; ITP file created by ByteFF-ML, 2026-02-21 08:19:29.450669

[ atomtypes ]
;name           bonded.type        at.num        mass        charge   ptype           sigma         epsilon
 o0bf                                   8      0.0000       0.00000       A     3.04351e-01     6.11346e-01
 c1bf                                   6      0.0000       0.00000       A     3.31270e-01     4.08495e-01
 o2bf                                   8      0.0000       0.00000       A     3.04351e-01     6.11346e-01
 c3bf                                   6      0.0000       0.00000       A     3.31580e-01     4.10578e-01
 c4bf                                   6      0.0000       0.00000       A     3.31606e-01     4.10911e-01
 c5bf                                   6      0.0000       0.00000       A     3.31468e-01     4.12919e-01
 c6bf                                   6      0.0000       0.00000       A     3.31479e-01     4.12975e-01
 c7bf                                   6      0.0000       0.00000       A     3.31507e-01     4.12945e-01
 c8bf                                   6      0.0000       0.00000       A     3.31448e-01     4.12303e-01
 c9bf                                   6      0.0000       0.00000       A     3.31417e-01     4.11727e-01
 c10bf                                  6      0.0000       0.00000       A     3.31209e-01     4.12534e-01
 c11bf                                  6      0.0000       0.00000       A     3.39740e-01     4.50819e-01
 c12bf                                  6      0.0000       0.00000       A     3.39825e-01     4.50762e-01
 c13bf                                  6      0.0000       0.00000       A     3.39714e-01     4.51040e-01
 o14bf                                  8      0.0000       0.00000       A     3.15865e-01     3.05459e-01
 c15bf                                  6      0.0000       0.00000       A     3.31391e-01     4.13087e-01
 c16bf                                  6      0.0000       0.00000       A     3.31634e-01     4.12011e-01
 c17bf                                  6      0.0000       0.00000       A     3.31320e-01     4.12396e-01
 c18bf                                  6      0.0000       0.00000       A     3.31486e-01     4.12265e-01
 c19bf                                  6      0.0000       0.00000       A     3.31509e-01     4.13604e-01
 c20bf                                  6      0.0000       0.00000       A     3.31599e-01     4.11789e-01
 h21bf                                  1      0.0000       0.00000       A     2.62509e-01     6.71594e-02
 h22bf                                  1      0.0000       0.00000       A     2.62453e-01     6.74531e-02
 h23bf                                  1      0.0000       0.00000       A     2.62437e-01     6.74722e-02
 h24bf                                  1      0.0000       0.00000       A     2.62476e-01     6.69056e-02
 h25bf                                  1      0.0000       0.00000       A     2.59715e-01     8.74790e-02
 h26bf                                  1      0.0000       0.00000       A     2.59715e-01     8.74790e-02
 h27bf                                  1      0.0000       0.00000       A     2.60066e-01     8.68629e-02
 h28bf                                  1      0.0000       0.00000       A     2.60066e-01     8.68629e-02
 h29bf                                  1      0.0000       0.00000       A     2.42089e-01     8.76721e-02
 h30bf                                  1      0.0000       0.00000       A     2.42089e-01     8.76721e-02
 h31bf                                  1      0.0000       0.00000       A     2.62507e-01     6.73398e-02
 h32bf                                  1      0.0000       0.00000       A     2.62446e-01     6.69008e-02
 n33bf                                  7      0.0000       0.00000       A     3.20469e-01     8.58390e-01
 h34bf                                  1      0.0000       0.00000       A     1.10720e-01     4.23341e-02
 h35bf                                  1      0.0000       0.00000       A     2.62543e-01     6.73813e-02
 h36bf                                  1      0.0000       0.00000       A     2.62472e-01     6.74738e-02
 c37bf                                  6      0.0000       0.00000       A     3.31494e-01     4.13000e-01
 c38bf                                  6      0.0000       0.00000       A     3.31484e-01     4.13026e-01
 c39bf                                  6      0.0000       0.00000       A     3.31502e-01     4.12407e-01
 c40bf                                  6      0.0000       0.00000       A     3.31369e-01     4.13301e-01
 c41bf                                  6      0.0000       0.00000       A     3.31502e-01     4.12407e-01
 c42bf                                  6      0.0000       0.00000       A     3.31484e-01     4.13026e-01
 h43bf                                  1      0.0000       0.00000       A     2.62457e-01     6.73477e-02
 h44bf                                  1      0.0000       0.00000       A     2.62467e-01     6.73573e-02
 h45bf                                  1      0.0000       0.00000       A     2.62472e-01     6.74738e-02
 h46bf                                  1      0.0000       0.00000       A     2.62472e-01     6.74738e-02
 h47bf                                  1      0.0000       0.00000       A     2.62467e-01     6.73573e-02

[ moleculetype ]
;name             nrexcl
 38_flip               3

[ atoms ]
;       nr            type      resi   res      atom      cgnr      charge          mass ; qtot
         1            o0bf         1   UNL        o0         1    -0.72437       15.9990 ; qtot   -0.724
         2            c1bf         1   UNL        c1         2     0.71536       12.0110 ; qtot   -0.009
         3            o2bf         1   UNL        o2         3    -0.72437       15.9990 ; qtot   -0.733
         4            c3bf         1   UNL        c3         4    -0.12874       12.0110 ; qtot   -0.862
         5            c4bf         1   UNL        c4         5    -0.06274       12.0110 ; qtot   -0.925
         6            c5bf         1   UNL        c5         6    -0.14509       12.0110 ; qtot   -1.070
         7            c6bf         1   UNL        c6         7    -0.09062       12.0110 ; qtot   -1.161
         8            c7bf         1   UNL        c7         8    -0.14599       12.0110 ; qtot   -1.307
         9            c8bf         1   UNL        c8         9    -0.06647       12.0110 ; qtot   -1.373
        10            c9bf         1   UNL        c9        10    -0.10957       12.0110 ; qtot   -1.483
        11           c10bf         1   UNL       c10        11    -0.19497       12.0110 ; qtot   -1.678
        12           c11bf         1   UNL       c11        12    -0.00891       12.0110 ; qtot   -1.686
        13           c12bf         1   UNL       c12        13    -0.08976       12.0110 ; qtot   -1.776
        14           c13bf         1   UNL       c13        14     0.16323       12.0110 ; qtot   -1.613
        15           o14bf         1   UNL       o14        15    -0.35272       15.9990 ; qtot   -1.966
        16           c15bf         1   UNL       c15        16     0.13678       12.0110 ; qtot   -1.829
        17           c16bf         1   UNL       c16        17    -0.15696       12.0110 ; qtot   -1.986
        18           c17bf         1   UNL       c17        18    -0.00529       12.0110 ; qtot   -1.991
        19           c18bf         1   UNL       c18        19    -0.13014       12.0110 ; qtot   -2.121
        20           c19bf         1   UNL       c19        20    -0.07596       12.0110 ; qtot   -2.197
        21           c20bf         1   UNL       c20        21    -0.16491       12.0110 ; qtot   -2.362
        22           h21bf         1   UNL       h21        22     0.11536        1.0080 ; qtot   -2.247
        23           h22bf         1   UNL       h22        23     0.11184        1.0080 ; qtot   -2.135
        24           h23bf         1   UNL       h23        24     0.11224        1.0080 ; qtot   -2.023
        25           h24bf         1   UNL       h24        25     0.11869        1.0080 ; qtot   -1.904
        26           h25bf         1   UNL       h25        26     0.04567        1.0080 ; qtot   -1.858
        27           h26bf         1   UNL       h26        27     0.04567        1.0080 ; qtot   -1.813
        28           h27bf         1   UNL       h27        28     0.05519        1.0080 ; qtot   -1.758
        29           h28bf         1   UNL       h28        29     0.05519        1.0080 ; qtot   -1.702
        30           h29bf         1   UNL       h29        30     0.04441        1.0080 ; qtot   -1.658
        31           h30bf         1   UNL       h30        31     0.04441        1.0080 ; qtot   -1.614
        32           h31bf         1   UNL       h31        32     0.12479        1.0080 ; qtot   -1.489
        33           h32bf         1   UNL       h32        33     0.12568        1.0080 ; qtot   -1.363
        34           n33bf         1   UNL       n33        34    -0.23318       14.0070 ; qtot   -1.596
        35           h34bf         1   UNL       h34        35     0.36278        1.0080 ; qtot   -1.233
        36           h35bf         1   UNL       h35        36     0.11612        1.0080 ; qtot   -1.117
        37           h36bf         1   UNL       h36        37     0.11821        1.0080 ; qtot   -0.999
        38           c37bf         1   UNL       c37        38    -0.10311       12.0110 ; qtot   -1.102
        39           c38bf         1   UNL       c38        39    -0.11427       12.0110 ; qtot   -1.217
        40           c39bf         1   UNL       c39        40    -0.10263       12.0110 ; qtot   -1.319
        41           c40bf         1   UNL       c40        41    -0.04242       12.0110 ; qtot   -1.362
        42           c41bf         1   UNL       c41        42    -0.10263       12.0110 ; qtot   -1.464
        43           c42bf         1   UNL       c42        43    -0.11427       12.0110 ; qtot   -1.578
        44           h43bf         1   UNL       h43        44     0.11588        1.0080 ; qtot   -1.463
        45           h44bf         1   UNL       h44        45     0.11544        1.0080 ; qtot   -1.347
        46           h45bf         1   UNL       h45        46     0.11585        1.0080 ; qtot   -1.231
        47           h46bf         1   UNL       h46        47     0.11585        1.0080 ; qtot   -1.115
        48           h47bf         1   UNL       h47        48     0.11545        1.0080 ; qtot   -1.000

[ bonds ]
;       ai        aj funct               r               k
         1         2     1        0.126246   477087.239648
         2         3     1        0.126246   477087.239648
         2         4     1        0.153400   125645.617041
         4        11     1        0.138965   327323.865771
         4        34     1        0.138505   264560.341650
         5         6     1        0.140170   306119.305762
         5        10     1        0.143187   232474.419336
         5        34     1        0.137011   296448.938721
         6         7     1        0.139356   324716.603516
         6        22     1        0.108648   317710.778467
         7         8     1        0.141322   279766.924170
         7        23     1        0.108613   319631.935205
         8         9     1        0.139211   326075.535254
         8        24     1        0.108624   318958.700391
         9        10     1        0.140988   296604.944922
         9        25     1        0.108582   319566.943262
        10        11     1        0.144259   230612.483154
        11        12     1        0.150445   207387.031226
        12        13     1        0.154309   174651.010718
        12        26     1        0.109425   295733.235693
        12        27     1        0.109425   295733.235693
        13        14     1        0.152499   192439.969580
        13        28     1        0.109516   297606.203906
        13        29     1        0.109516   297606.203906
        14        15     1        0.143309   187548.489502
        14        30     1        0.109678   290005.185449
        14        31     1        0.109678   290005.185449
        15        16     1        0.136846   266425.291211
        16        17     1        0.140177   288830.171973
        16        21     1        0.140317   287389.700244
        17        18     1        0.140352   289535.455859
        17        32     1        0.108385   322785.538379
        18        19     1        0.140600   285137.403809
        18        41     1        0.148336   213161.967603
        19        20     1        0.139640   314963.904834
        19        37     1        0.108553   319478.789160
        20        21     1        0.139718   314885.301611
        20        36     1        0.108652   318420.684570
        21        33     1        0.108401   324079.861230
        34        35     1        0.101568   409831.840137
        38        39     1        0.139950   305544.516504
        38        43     1        0.139950   305544.516504
        38        44     1        0.108618   320581.609229
        39        40     1        0.139702   316083.553857
        39        45     1        0.108644   319100.252588
        40        41     1        0.140665   283221.354492
        40        46     1        0.108602   318208.164746
        41        42     1        0.140665   283221.354492
        42        43     1        0.139702   316083.528320
        42        47     1        0.108602   318208.164746
        43        48     1        0.108644   319100.252588

[ angles ]
;       ai        aj        ak funct           theta             cth
         1         2         3     1      129.890915      711.082981
         1         2         4     1      114.963943      332.710740
         2         4        11     1      135.663651      350.727714
         2         4        34     1      115.605225      381.001478
         3         2         4     1      114.963943      332.710740
         4        11        10     1      106.575829      405.326820
         4        11        12     1      127.327011      428.528720
         4        34         5     1      110.661705      412.354504
         4        34        35     1      117.847610      382.259436
         5         6         7     1      117.701210      791.646496
         5         6        22     1      121.289551      440.177345
         5        10         9     1      118.560951      742.089118
         5        10        11     1      107.585289      271.643946
         5        34        35     1      131.290939      307.571595
         6         5        10     1      122.120865      633.320696
         6         5        34     1      131.222183      478.691487
         6         7         8     1      121.218521      629.331416
         6         7        23     1      119.387344      434.126071
         7         6        22     1      121.092140      440.849832
         7         8         9     1      121.054970      638.915493
         7         8        24     1      119.239258      447.408528
         8         7        23     1      119.397072      440.561550
         8         9        10     1      119.297623      725.558372
         8         9        25     1      120.503197      431.554931
         9         8        24     1      119.770569      439.261009
         9        10        11     1      134.133453      413.767632
        10         5        34     1      106.946518      176.571523
        10         9        25     1      120.298561      433.490133
        10        11        12     1      125.788147      461.612620
        11         4        34     1      108.726097      284.224963
        11        12        13     1      112.795059      547.868165
        11        12        26     1      109.126892      490.517563
        11        12        27     1      109.126892      490.517563
        12        13        14     1      112.616066      592.567044
        12        13        28     1      109.492508      484.680227
        12        13        29     1      109.492508      484.680227
        13        12        26     1      108.938232      484.895664
        13        12        27     1      108.938232      484.895664
        13        14        15     1      109.537682      621.490885
        13        14        30     1      110.734940      494.618216
        13        14        31     1      110.734940      494.618216
        14        13        28     1      108.792709      511.357823
        14        13        29     1      108.792709      511.357823
        14        15        16     1      118.829308      527.827344
        15        14        30     1      108.881714      459.864509
        15        14        31     1      108.881714      459.864509
        15        16        17     1      118.722633      511.617440
        15        16        21     1      121.034363      556.835521
        16        17        18     1      120.762245      730.681627
        16        17        32     1      119.329247      437.895029
        16        21        20     1      119.243042      733.612777
        16        21        33     1      120.224182      437.975407
        17        16        21     1      119.884071      608.260556
        17        18        19     1      118.802711      615.771530
        17        18        41     1      120.382614      441.154650
        18        17        32     1      119.986412      419.017232
        18        19        20     1      120.127853      684.909168
        18        19        37     1      119.857590      432.346390
        18        41        40     1      120.875595      503.785687
        18        41        42     1      120.875595      503.785687
        19        18        41     1      120.818176      526.079520
        19        20        21     1      121.000565      690.324248
        19        20        36     1      119.691711      439.498568
        20        19        37     1      119.979797      436.978087
        20        21        33     1      120.438271      428.877174
        21        20        36     1      119.288162      436.344352
        26        12        27     1      106.761887      356.396313
        28        13        29     1      107.017380      359.666787
        30        14        31     1      107.963120      344.594179
        38        39        40     1      120.242699      706.774424
        38        39        45     1      120.096329      440.275152
        38        43        42     1      120.242699      706.774424
        38        43        48     1      120.096329      440.275152
        39        38        43     1      119.502403      668.838473
        39        38        44     1      120.262772      428.502417
        39        40        41     1      120.914841      701.697583
        39        40        46     1      119.580116      435.085692
        40        39        45     1      119.678391      436.602437
        40        41        42     1      118.219215      608.973105
        41        40        46     1      119.543518      425.788301
        41        42        43     1      120.914841      701.697583
        41        42        47     1      119.543518      425.788301
        42        43        48     1      119.678391      436.602437
        43        38        44     1      120.262772      428.502417
        43        42        47     1      119.580116      435.085692

[ dihedrals ] ; propers for gromacs 4.5 or higher, use funct 9
;       ai        aj        ak        al funct           phase               k        pn
         1         2         4        11     9        0.000000       -5.848196         1
         1         2         4        11     9      180.000000        2.034170         2
         1         2         4        11     9        0.000000       -0.165345         3
         1         2         4        11     9      180.000000        0.106470         4
         1         2         4        34     9        0.000000        6.314812         1
         1         2         4        34     9      180.000000        2.991276         2
         1         2         4        34     9        0.000000        0.807548         3
         1         2         4        34     9      180.000000        0.524419         4
         2         4        11        10     9        0.000000        0.407151         1
         2         4        11        10     9      180.000000       14.821666         2
         2         4        11        10     9        0.000000       -0.971338         3
         2         4        11        10     9      180.000000       -0.840499         4
         2         4        11        12     9        0.000000        0.171018         1
         2         4        11        12     9      180.000000       12.352449         2
         2         4        11        12     9        0.000000        0.301653         3
         2         4        11        12     9      180.000000       -0.783839         4
         2         4        34         5     9        0.000000       -0.541694         1
         2         4        34         5     9      180.000000        7.269043         2
         2         4        34         5     9        0.000000        0.535651         3
         2         4        34         5     9      180.000000       -0.257959         4
         2         4        34        35     9        0.000000       -0.060045         1
         2         4        34        35     9      180.000000        3.229365         2
         2         4        34        35     9        0.000000        0.283770         3
         2         4        34        35     9      180.000000        0.035855         4
         3         2         4        11     9        0.000000       -5.848196         1
         3         2         4        11     9      180.000000        2.034170         2
         3         2         4        11     9        0.000000       -0.165345         3
         3         2         4        11     9      180.000000        0.106470         4
         3         2         4        34     9        0.000000        6.314812         1
         3         2         4        34     9      180.000000        2.991276         2
         3         2         4        34     9        0.000000        0.807548         3
         3         2         4        34     9      180.000000        0.524419         4
         4        11        10         5     9        0.000000        0.059700         1
         4        11        10         5     9      180.000000       24.840541         2
         4        11        10         5     9        0.000000       -7.948559         3
         4        11        10         5     9      180.000000       -0.272064         4
         4        11        10         9     9        0.000000       -0.230767         1
         4        11        10         9     9      180.000000        4.359253         2
         4        11        10         9     9        0.000000       -0.639085         3
         4        11        10         9     9      180.000000        0.332474         4
         4        11        12        13     9        0.000000       -0.762663         1
         4        11        12        13     9      180.000000       -0.478729         2
         4        11        12        13     9        0.000000        0.120672         3
         4        11        12        13     9      180.000000       -0.050471         4
         4        11        12        26     9        0.000000        0.040229         1
         4        11        12        26     9      180.000000        0.070747         2
         4        11        12        26     9        0.000000       -0.344602         3
         4        11        12        26     9      180.000000        0.138807         4
         4        11        12        27     9        0.000000        0.040229         1
         4        11        12        27     9      180.000000        0.070747         2
         4        11        12        27     9        0.000000       -0.344602         3
         4        11        12        27     9      180.000000        0.138807         4
         4        34         5         6     9        0.000000        0.303828         1
         4        34         5         6     9      180.000000        4.550439         2
         4        34         5         6     9        0.000000        0.320222         3
         4        34         5         6     9      180.000000        0.136045         4
         4        34         5        10     9        0.000000       -0.267389         1
         4        34         5        10     9      180.000000       18.058717         2
         4        34         5        10     9        0.000000       -4.023646         3
         4        34         5        10     9      180.000000       -0.911935         4
         5         6         7         8     9        0.000000       -0.113626         1
         5         6         7         8     9      180.000000       21.530658         2
         5         6         7         8     9        0.000000       -1.714097         3
         5         6         7         8     9      180.000000       -0.570669         4
         5         6         7        23     9        0.000000        0.025567         1
         5         6         7        23     9      180.000000       16.325680         2
         5         6         7        23     9        0.000000       -0.701049         3
         5         6         7        23     9      180.000000       -0.066530         4
         5        10         9         8     9        0.000000        0.097901         1
         5        10         9         8     9      180.000000       19.194673         2
         5        10         9         8     9        0.000000       -1.707494         3
         5        10         9         8     9      180.000000       -0.440949         4
         5        10         9        25     9        0.000000        0.374264         1
         5        10         9        25     9      180.000000       13.045364         2
         5        10         9        25     9        0.000000       -0.146126         3
         5        10         9        25     9      180.000000        0.020637         4
         5        10        11        12     9        0.000000        1.148513         1
         5        10        11        12     9      180.000000       11.219891         2
         5        10        11        12     9        0.000000        0.713387         3
         5        10        11        12     9      180.000000       -0.325165         4
         5        34         4        11     9        0.000000       -0.001191         1
         5        34         4        11     9      180.000000       20.210573         2
         5        34         4        11     9        0.000000       -4.953608         3
         5        34         4        11     9      180.000000       -0.860756         4
         6         5        10         9     9        0.000000       -0.036515         1
         6         5        10         9     9      180.000000        9.944162         2
         6         5        10         9     9        0.000000       -1.355781         3
         6         5        10         9     9      180.000000        0.026608         4
         6         5        10        11     9        0.000000       -0.115361         1
         6         5        10        11     9      180.000000       10.689383         2
         6         5        10        11     9        0.000000       -2.544923         3
         6         5        10        11     9      180.000000        0.091706         4
         6         5        34        35     9        0.000000        0.027967         1
         6         5        34        35     9      180.000000        0.904266         2
         6         5        34        35     9        0.000000        0.266755         3
         6         5        34        35     9      180.000000       -0.055017         4
         6         7         8         9     9        0.000000        0.085716         1
         6         7         8         9     9      180.000000       17.178660         2
         6         7         8         9     9        0.000000       -1.420086         3
         6         7         8         9     9      180.000000       -0.309722         4
         6         7         8        24     9        0.000000        0.054101         1
         6         7         8        24     9      180.000000       13.653216         2
         6         7         8        24     9        0.000000       -0.711990         3
         6         7         8        24     9      180.000000        0.142296         4
         7         6         5        10     9        0.000000       -0.077956         1
         7         6         5        10     9      180.000000       17.305936         2
         7         6         5        10     9        0.000000       -1.495089         3
         7         6         5        10     9      180.000000       -0.342318         4
         7         6         5        34     9        0.000000        0.203656         1
         7         6         5        34     9      180.000000       16.361368         2
         7         6         5        34     9        0.000000       -0.221954         3
         7         6         5        34     9      180.000000       -0.348842         4
         7         8         9        10     9        0.000000       -0.127468         1
         7         8         9        10     9      180.000000       21.310594         2
         7         8         9        10     9        0.000000       -1.734983         3
         7         8         9        10     9      180.000000       -0.527673         4
         7         8         9        25     9        0.000000        0.032670         1
         7         8         9        25     9      180.000000       15.346210         2
         7         8         9        25     9        0.000000       -0.603448         3
         7         8         9        25     9      180.000000        0.127241         4
         8         7         6        22     9        0.000000        0.092707         1
         8         7         6        22     9      180.000000       14.929351         2
         8         7         6        22     9        0.000000       -0.522639         3
         8         7         6        22     9      180.000000        0.113419         4
         8         9        10        11     9        0.000000       -0.094464         1
         8         9        10        11     9      180.000000       14.058062         2
         8         9        10        11     9        0.000000       -0.928158         3
         8         9        10        11     9      180.000000       -0.193889         4
         9         8         7        23     9        0.000000        0.058801         1
         9         8         7        23     9      180.000000       13.405420         2
         9         8         7        23     9        0.000000       -0.757105         3
         9         8         7        23     9      180.000000        0.161000         4
         9        10         5        34     9        0.000000        0.098310         1
         9        10         5        34     9      180.000000       10.836978         2
         9        10         5        34     9        0.000000       -1.802469         3
         9        10         5        34     9      180.000000       -0.093940         4
         9        10        11        12     9        0.000000       -0.440081         1
         9        10        11        12     9      180.000000        5.384506         2
         9        10        11        12     9        0.000000        0.167749         3
         9        10        11        12     9      180.000000        0.241046         4
        10         5         6        22     9        0.000000        0.191640         1
        10         5         6        22     9      180.000000       11.778430         2
        10         5         6        22     9        0.000000       -0.112600         3
        10         5         6        22     9      180.000000       -0.028965         4
        10         5        34        35     9        0.000000        0.660543         1
        10         5        34        35     9      180.000000        1.565184         2
        10         5        34        35     9        0.000000        0.554703         3
        10         5        34        35     9      180.000000        0.160968         4
        10         9         8        24     9        0.000000        0.020216         1
        10         9         8        24     9      180.000000       16.122637         2
        10         9         8        24     9        0.000000       -0.557272         3
        10         9         8        24     9      180.000000       -0.082829         4
        10        11         4        34     9        0.000000       -0.269617         1
        10        11         4        34     9      180.000000       32.307342         2
        10        11         4        34     9        0.000000       -6.139104         3
        10        11         4        34     9      180.000000       -0.336368         4
        10        11        12        13     9        0.000000       -0.771543         1
        10        11        12        13     9      180.000000       -0.164164         2
        10        11        12        13     9        0.000000        0.272102         3
        10        11        12        13     9      180.000000        0.041434         4
        10        11        12        26     9        0.000000        0.085264         1
        10        11        12        26     9      180.000000        0.092043         2
        10        11        12        26     9        0.000000        0.301666         3
        10        11        12        26     9      180.000000        0.085541         4
        10        11        12        27     9        0.000000        0.085264         1
        10        11        12        27     9      180.000000        0.092043         2
        10        11        12        27     9        0.000000        0.301666         3
        10        11        12        27     9      180.000000        0.085541         4
        11         4        34        35     9        0.000000        2.056221         1
        11         4        34        35     9      180.000000        2.032206         2
        11         4        34        35     9        0.000000        0.994371         3
        11         4        34        35     9      180.000000        0.086239         4
        11        10         5        34     9        0.000000       -0.184495         1
        11        10         5        34     9      180.000000       20.114316         2
        11        10         5        34     9        0.000000       -6.567274         3
        11        10         5        34     9      180.000000       -0.385168         4
        11        10         9        25     9        0.000000       -0.083573         1
        11        10         9        25     9      180.000000       10.550967         2
        11        10         9        25     9        0.000000       -0.092864         3
        11        10         9        25     9      180.000000        0.077841         4
        11        12        13        14     9        0.000000       -1.037924         1
        11        12        13        14     9      180.000000       -0.195500         2
        11        12        13        14     9        0.000000        0.433131         3
        11        12        13        14     9      180.000000       -0.016638         4
        11        12        13        28     9        0.000000        0.174405         1
        11        12        13        28     9      180.000000        0.000426         2
        11        12        13        28     9        0.000000        0.595883         3
        11        12        13        28     9      180.000000        0.017036         4
        11        12        13        29     9        0.000000        0.174405         1
        11        12        13        29     9      180.000000        0.000426         2
        11        12        13        29     9        0.000000        0.595883         3
        11        12        13        29     9      180.000000        0.017036         4
        12        11         4        34     9        0.000000        0.597617         1
        12        11         4        34     9      180.000000       19.383909         2
        12        11         4        34     9        0.000000       -0.027506         3
        12        11         4        34     9      180.000000       -1.380854         4
        12        13        14        15     9        0.000000       -1.374505         1
        12        13        14        15     9      180.000000       -0.352102         2
        12        13        14        15     9        0.000000        0.469326         3
        12        13        14        15     9      180.000000        0.017552         4
        12        13        14        30     9        0.000000        0.052659         1
        12        13        14        30     9      180.000000        0.052844         2
        12        13        14        30     9        0.000000        0.650860         3
        12        13        14        30     9      180.000000        0.042224         4
        12        13        14        31     9        0.000000        0.052659         1
        12        13        14        31     9      180.000000        0.052844         2
        12        13        14        31     9        0.000000        0.650860         3
        12        13        14        31     9      180.000000        0.042224         4
        13        14        15        16     9        0.000000        0.369751         1
        13        14        15        16     9      180.000000        0.120675         2
        13        14        15        16     9        0.000000        0.691405         3
        13        14        15        16     9      180.000000        0.024038         4
        14        13        12        26     9        0.000000       -0.117826         1
        14        13        12        26     9      180.000000        0.051843         2
        14        13        12        26     9        0.000000        0.500191         3
        14        13        12        26     9      180.000000        0.024620         4
        14        13        12        27     9        0.000000       -0.117826         1
        14        13        12        27     9      180.000000        0.051843         2
        14        13        12        27     9        0.000000        0.500191         3
        14        13        12        27     9      180.000000        0.024620         4
        14        15        16        17     9        0.000000       -0.462059         1
        14        15        16        17     9      180.000000        5.184782         2
        14        15        16        17     9        0.000000        0.138229         3
        14        15        16        17     9      180.000000        0.338627         4
        14        15        16        21     9        0.000000        0.145515         1
        14        15        16        21     9      180.000000        5.223583         2
        14        15        16        21     9        0.000000        0.241736         3
        14        15        16        21     9      180.000000        0.305525         4
        15        14        13        28     9        0.000000        0.058421         1
        15        14        13        28     9      180.000000        0.163636         2
        15        14        13        28     9        0.000000        0.484802         3
        15        14        13        28     9      180.000000        0.071271         4
        15        14        13        29     9        0.000000        0.058421         1
        15        14        13        29     9      180.000000        0.163636         2
        15        14        13        29     9        0.000000        0.484802         3
        15        14        13        29     9      180.000000        0.071271         4
        15        16        17        18     9        0.000000        0.285031         1
        15        16        17        18     9      180.000000       16.965950         2
        15        16        17        18     9        0.000000        0.313420         3
        15        16        17        18     9      180.000000       -0.297853         4
        15        16        17        32     9        0.000000        0.078594         1
        15        16        17        32     9      180.000000       12.865190         2
        15        16        17        32     9        0.000000       -0.072245         3
        15        16        17        32     9      180.000000        0.310973         4
        15        16        21        20     9        0.000000        0.490935         1
        15        16        21        20     9      180.000000       17.508099         2
        15        16        21        20     9        0.000000        0.447170         3
        15        16        21        20     9      180.000000       -0.251790         4
        15        16        21        33     9        0.000000        0.048146         1
        15        16        21        33     9      180.000000       12.901184         2
        15        16        21        33     9        0.000000       -0.090893         3
        15        16        21        33     9      180.000000        0.252800         4
        16        15        14        30     9        0.000000       -0.177105         1
        16        15        14        30     9      180.000000        0.029878         2
        16        15        14        30     9        0.000000        0.834249         3
        16        15        14        30     9      180.000000       -0.045097         4
        16        15        14        31     9        0.000000       -0.177105         1
        16        15        14        31     9      180.000000        0.029878         2
        16        15        14        31     9        0.000000        0.834249         3
        16        15        14        31     9      180.000000       -0.045097         4
        16        17        18        19     9        0.000000       -0.201071         1
        16        17        18        19     9      180.000000       18.270088         2
        16        17        18        19     9        0.000000       -1.601377         3
        16        17        18        19     9      180.000000       -0.395444         4
        16        17        18        41     9        0.000000        0.226235         1
        16        17        18        41     9      180.000000       16.467948         2
        16        17        18        41     9        0.000000       -0.108716         3
        16        17        18        41     9      180.000000       -0.396008         4
        16        21        20        19     9        0.000000       -0.009220         1
        16        21        20        19     9      180.000000       18.498188         2
        16        21        20        19     9        0.000000       -1.575351         3
        16        21        20        19     9      180.000000       -0.485415         4
        16        21        20        36     9        0.000000        0.047524         1
        16        21        20        36     9      180.000000       14.519323         2
        16        21        20        36     9        0.000000       -0.487267         3
        16        21        20        36     9      180.000000        0.078901         4
        17        16        21        20     9        0.000000       -0.065693         1
        17        16        21        20     9      180.000000       15.737214         2
        17        16        21        20     9        0.000000       -0.873762         3
        17        16        21        20     9      180.000000       -0.187086         4
        17        16        21        33     9        0.000000        0.038192         1
        17        16        21        33     9      180.000000       12.520228         2
        17        16        21        33     9        0.000000       -0.452307         3
        17        16        21        33     9      180.000000        0.145920         4
        17        18        19        20     9        0.000000       -0.136515         1
        17        18        19        20     9      180.000000       18.258000         2
        17        18        19        20     9        0.000000       -1.425956         3
        17        18        19        20     9      180.000000       -0.299433         4
        17        18        19        37     9        0.000000       -0.117816         1
        17        18        19        37     9      180.000000       14.305615         2
        17        18        19        37     9        0.000000       -0.648831         3
        17        18        19        37     9      180.000000        0.040745         4
        17        18        41        40     9        0.000000       -0.023627         1
        17        18        41        40     9      180.000000        3.356033         2
        17        18        41        40     9        0.000000       -0.039221         3
        17        18        41        40     9      180.000000       -0.011758         4
        17        18        41        42     9        0.000000       -0.023627         1
        17        18        41        42     9      180.000000        3.356033         2
        17        18        41        42     9        0.000000       -0.039221         3
        17        18        41        42     9      180.000000       -0.011758         4
        18        17        16        21     9        0.000000       -0.112388         1
        18        17        16        21     9      180.000000       15.761049         2
        18        17        16        21     9        0.000000       -0.850459         3
        18        17        16        21     9      180.000000       -0.225580         4
        18        19        20        21     9        0.000000       -0.021314         1
        18        19        20        21     9      180.000000       18.727843         2
        18        19        20        21     9        0.000000       -1.490377         3
        18        19        20        21     9      180.000000       -0.339384         4
        18        19        20        36     9        0.000000       -0.048879         1
        18        19        20        36     9      180.000000       14.571079         2
        18        19        20        36     9        0.000000       -0.615660         3
        18        19        20        36     9      180.000000        0.109484         4
        18        41        40        39     9        0.000000        0.230243         1
        18        41        40        39     9      180.000000       16.210335         2
        18        41        40        39     9        0.000000       -0.155245         3
        18        41        40        39     9      180.000000       -0.217961         4
        18        41        40        46     9        0.000000       -0.088802         1
        18        41        40        46     9      180.000000       13.313255         2
        18        41        40        46     9        0.000000       -0.193628         3
        18        41        40        46     9      180.000000        0.197315         4
        18        41        42        43     9        0.000000        0.230243         1
        18        41        42        43     9      180.000000       16.210335         2
        18        41        42        43     9        0.000000       -0.155245         3
        18        41        42        43     9      180.000000       -0.217961         4
        18        41        42        47     9        0.000000       -0.088802         1
        18        41        42        47     9      180.000000       13.313255         2
        18        41        42        47     9        0.000000       -0.193628         3
        18        41        42        47     9      180.000000        0.197315         4
        19        18        17        32     9        0.000000       -0.038909         1
        19        18        17        32     9      180.000000       13.998508         2
        19        18        17        32     9        0.000000       -0.572015         3
        19        18        17        32     9      180.000000        0.087124         4
        19        18        41        40     9        0.000000       -0.003807         1
        19        18        41        40     9      180.000000        3.321043         2
        19        18        41        40     9        0.000000       -0.001546         3
        19        18        41        40     9      180.000000       -0.017960         4
        19        18        41        42     9        0.000000       -0.003807         1
        19        18        41        42     9      180.000000        3.321043         2
        19        18        41        42     9        0.000000       -0.001546         3
        19        18        41        42     9      180.000000       -0.017960         4
        19        20        21        33     9        0.000000        0.067274         1
        19        20        21        33     9      180.000000       13.793393         2
        19        20        21        33     9        0.000000       -0.632225         3
        19        20        21        33     9      180.000000        0.182436         4
        20        19        18        41     9        0.000000        0.263338         1
        20        19        18        41     9      180.000000       16.353340         2
        20        19        18        41     9        0.000000       -0.109270         3
        20        19        18        41     9      180.000000       -0.275697         4
        21        16        17        32     9        0.000000        0.126170         1
        21        16        17        32     9      180.000000       12.348164         2
        21        16        17        32     9        0.000000       -0.471104         3
        21        16        17        32     9      180.000000        0.253213         4
        21        20        19        37     9        0.000000        0.040420         1
        21        20        19        37     9      180.000000       14.664222         2
        21        20        19        37     9        0.000000       -0.748914         3
        21        20        19        37     9      180.000000        0.154572         4
        22         6         5        34     9        0.000000       -0.075257         1
        22         6         5        34     9      180.000000       11.465430         2
        22         6         5        34     9        0.000000       -0.064461         3
        22         6         5        34     9      180.000000        0.061567         4
        22         6         7        23     9        0.000000       -0.093298         1
        22         6         7        23     9      180.000000       12.220921         2
        22         6         7        23     9        0.000000       -0.649140         3
        22         6         7        23     9      180.000000        0.227120         4
        23         7         8        24     9        0.000000       -0.083847         1
        23         7         8        24     9      180.000000       10.869170         2
        23         7         8        24     9        0.000000       -0.488292         3
        23         7         8        24     9      180.000000        0.188957         4
        24         8         9        25     9        0.000000       -0.175108         1
        24         8         9        25     9      180.000000       12.479388         2
        24         8         9        25     9        0.000000       -0.668013         3
        24         8         9        25     9      180.000000        0.273644         4
        26        12        13        28     9        0.000000        0.021539         1
        26        12        13        28     9      180.000000        0.036431         2
        26        12        13        28     9        0.000000        0.611780         3
        26        12        13        28     9      180.000000       -0.014647         4
        26        12        13        29     9        0.000000        0.021539         1
        26        12        13        29     9      180.000000        0.036431         2
        26        12        13        29     9        0.000000        0.611780         3
        26        12        13        29     9      180.000000       -0.014647         4
        27        12        13        28     9        0.000000        0.021539         1
        27        12        13        28     9      180.000000        0.036431         2
        27        12        13        28     9        0.000000        0.611780         3
        27        12        13        28     9      180.000000       -0.014647         4
        27        12        13        29     9        0.000000        0.021539         1
        27        12        13        29     9      180.000000        0.036431         2
        27        12        13        29     9        0.000000        0.611780         3
        27        12        13        29     9      180.000000       -0.014647         4
        28        13        14        30     9        0.000000       -0.001071         1
        28        13        14        30     9      180.000000       -0.020826         2
        28        13        14        30     9        0.000000        0.671101         3
        28        13        14        30     9      180.000000       -0.051736         4
        28        13        14        31     9        0.000000       -0.001071         1
        28        13        14        31     9      180.000000       -0.020826         2
        28        13        14        31     9        0.000000        0.671101         3
        28        13        14        31     9      180.000000       -0.051736         4
        29        13        14        30     9        0.000000       -0.001071         1
        29        13        14        30     9      180.000000       -0.020826         2
        29        13        14        30     9        0.000000        0.671101         3
        29        13        14        30     9      180.000000       -0.051736         4
        29        13        14        31     9        0.000000       -0.001071         1
        29        13        14        31     9      180.000000       -0.020826         2
        29        13        14        31     9        0.000000        0.671101         3
        29        13        14        31     9      180.000000       -0.051736         4
        32        17        18        41     9        0.000000       -0.049999         1
        32        17        18        41     9      180.000000       13.090258         2
        32        17        18        41     9        0.000000       -0.165177         3
        32        17        18        41     9      180.000000        0.241973         4
        33        21        20        36     9        0.000000       -0.182095         1
        33        21        20        36     9      180.000000       11.531972         2
        33        21        20        36     9        0.000000       -0.587674         3
        33        21        20        36     9      180.000000        0.254253         4
        36        20        19        37     9        0.000000       -0.201404         1
        36        20        19        37     9      180.000000       11.798292         2
        36        20        19        37     9        0.000000       -0.725832         3
        36        20        19        37     9      180.000000        0.321406         4
        37        19        18        41     9        0.000000       -0.054796         1
        37        19        18        41     9      180.000000       13.271540         2
        37        19        18        41     9        0.000000       -0.184611         3
        37        19        18        41     9      180.000000        0.196679         4
        38        39        40        41     9        0.000000       -0.034201         1
        38        39        40        41     9      180.000000       18.963087         2
        38        39        40        41     9        0.000000       -1.468883         3
        38        39        40        41     9      180.000000       -0.345201         4
        38        39        40        46     9        0.000000        0.043275         1
        38        39        40        46     9      180.000000       14.814732         2
        38        39        40        46     9        0.000000       -0.717758         3
        38        39        40        46     9      180.000000        0.162068         4
        38        43        42        41     9        0.000000       -0.034201         1
        38        43        42        41     9      180.000000       18.963087         2
        38        43        42        41     9        0.000000       -1.468883         3
        38        43        42        41     9      180.000000       -0.345201         4
        38        43        42        47     9        0.000000        0.043275         1
        38        43        42        47     9      180.000000       14.814732         2
        38        43        42        47     9        0.000000       -0.717758         3
        38        43        42        47     9      180.000000        0.162068         4
        39        38        43        42     9        0.000000        0.009166         1
        39        38        43        42     9      180.000000       18.515278         2
        39        38        43        42     9        0.000000       -1.512753         3
        39        38        43        42     9      180.000000       -0.397397         4
        39        38        43        48     9        0.000000       -0.000464         1
        39        38        43        48     9      180.000000       14.363802         2
        39        38        43        48     9        0.000000       -0.720490         3
        39        38        43        48     9      180.000000        0.160854         4
        39        40        41        42     9        0.000000       -0.177414         1
        39        40        41        42     9      180.000000       18.291437         2
        39        40        41        42     9        0.000000       -1.411880         3
        39        40        41        42     9      180.000000       -0.317331         4
        40        39        38        43     9        0.000000        0.009166         1
        40        39        38        43     9      180.000000       18.515278         2
        40        39        38        43     9        0.000000       -1.512753         3
        40        39        38        43     9      180.000000       -0.397397         4
        40        39        38        44     9        0.000000        0.015038         1
        40        39        38        44     9      180.000000       14.015567         2
        40        39        38        44     9        0.000000       -0.706118         3
        40        39        38        44     9      180.000000        0.135689         4
        40        41        42        43     9        0.000000       -0.177414         1
        40        41        42        43     9      180.000000       18.291437         2
        40        41        42        43     9        0.000000       -1.411880         3
        40        41        42        43     9      180.000000       -0.317331         4
        40        41        42        47     9        0.000000       -0.116930         1
        40        41        42        47     9      180.000000       14.357855         2
        40        41        42        47     9        0.000000       -0.623253         3
        40        41        42        47     9      180.000000        0.039193         4
        41        40        39        45     9        0.000000       -0.059412         1
        41        40        39        45     9      180.000000       14.772797         2
        41        40        39        45     9        0.000000       -0.605886         3
        41        40        39        45     9      180.000000        0.108975         4
        41        42        43        48     9        0.000000       -0.059412         1
        41        42        43        48     9      180.000000       14.772797         2
        41        42        43        48     9        0.000000       -0.605886         3
        41        42        43        48     9      180.000000        0.108975         4
        42        41        40        46     9        0.000000       -0.116930         1
        42        41        40        46     9      180.000000       14.357855         2
        42        41        40        46     9        0.000000       -0.623253         3
        42        41        40        46     9      180.000000        0.039193         4
        42        43        38        44     9        0.000000        0.015038         1
        42        43        38        44     9      180.000000       14.015567         2
        42        43        38        44     9        0.000000       -0.706118         3
        42        43        38        44     9      180.000000        0.135689         4
        43        38        39        45     9        0.000000       -0.000464         1
        43        38        39        45     9      180.000000       14.363802         2
        43        38        39        45     9        0.000000       -0.720490         3
        43        38        39        45     9      180.000000        0.160854         4
        44        38        39        45     9        0.000000       -0.079427         1
        44        38        39        45     9      180.000000       11.318324         2
        44        38        39        45     9        0.000000       -0.539704         3
        44        38        39        45     9      180.000000        0.255203         4
        44        38        43        48     9        0.000000       -0.079427         1
        44        38        43        48     9      180.000000       11.318324         2
        44        38        43        48     9        0.000000       -0.539704         3
        44        38        43        48     9      180.000000        0.255203         4
        45        39        40        46     9        0.000000       -0.179390         1
        45        39        40        46     9      180.000000       12.010093         2
        45        39        40        46     9        0.000000       -0.698024         3
        45        39        40        46     9      180.000000        0.332205         4
        47        42        43        48     9        0.000000       -0.179390         1
        47        42        43        48     9      180.000000       12.010093         2
        47        42        43        48     9        0.000000       -0.698024         3
        47        42        43        48     9      180.000000        0.332205         4

[ dihedrals ] ; impropers
;       ai        aj        ak        al funct           phase               k        pn
         2         1         3         4     4      180.000000       27.893333         2
         2         3         4         1     4      180.000000       27.893333         2
         2         4         1         3     4      180.000000       27.893333         2

[ pairs ]
;       ai        aj funct
         1        11     1
         1        34     1
         2         5     1
         2        10     1
         2        12     1
         2        35     1
         3        11     1
         3        34     1
         4         6     1
         4         9     1
         4        13     1
         4        26     1
         4        27     1
         5         8     1
         5        12     1
         5        23     1
         5        25     1
         6         9     1
         6        11     1
         6        24     1
         6        35     1
         7        10     1
         7        25     1
         7        34     1
         8        11     1
         8        22     1
         9        12     1
         9        23     1
         9        34     1
        10        13     1
        10        22     1
        10        24     1
        10        26     1
        10        27     1
        10        35     1
        11        14     1
        11        25     1
        11        28     1
        11        29     1
        11        35     1
        12        15     1
        12        30     1
        12        31     1
        12        34     1
        13        16     1
        14        17     1
        14        21     1
        14        26     1
        14        27     1
        15        18     1
        15        20     1
        15        28     1
        15        29     1
        15        32     1
        15        33     1
        16        19     1
        16        30     1
        16        31     1
        16        36     1
        16        41     1
        17        20     1
        17        33     1
        17        37     1
        17        40     1
        17        42     1
        18        21     1
        18        36     1
        18        39     1
        18        43     1
        18        46     1
        18        47     1
        19        32     1
        19        33     1
        19        40     1
        19        42     1
        20        41     1
        21        32     1
        21        37     1
        22        23     1
        22        34     1
        23        24     1
        24        25     1
        26        28     1
        26        29     1
        27        28     1
        27        29     1
        28        30     1
        28        31     1
        29        30     1
        29        31     1
        32        41     1
        33        36     1
        36        37     1
        37        41     1
        38        41     1
        38        46     1
        38        47     1
        39        42     1
        39        48     1
        40        43     1
        40        44     1
        40        47     1
        41        45     1
        41        48     1
        42        44     1
        42        46     1
        43        45     1
        44        45     1
        44        48     1
        45        46     1
        47        48     1
