; ITP file created by ByteFF-ML, 2026-02-21 08:19:19.042666

[ atomtypes ]
;name           bonded.type        at.num        mass        charge   ptype           sigma         epsilon
 o0bf                                   8      0.0000       0.00000       A     3.04351e-01     6.11346e-01
 c1bf                                   6      0.0000       0.00000       A     3.31270e-01     4.08495e-01
 o2bf                                   8      0.0000       0.00000       A     3.04351e-01     6.11346e-01
 c3bf                                   6      0.0000       0.00000       A     3.31580e-01     4.10578e-01
 c4bf                                   6      0.0000       0.00000       A     3.31606e-01     4.10911e-01
 c5bf                                   6      0.0000       0.00000       A     3.31468e-01     4.12919e-01
 c6bf                                   6      0.0000       0.00000       A     3.31479e-01     4.12975e-01
 c7bf                                   6      0.0000       0.00000       A     3.31507e-01     4.12945e-01
 c8bf                                   6      0.0000       0.00000       A     3.31448e-01     4.12303e-01
 c9bf                                   6      0.0000       0.00000       A     3.31417e-01     4.11727e-01
 c10bf                                  6      0.0000       0.00000       A     3.31209e-01     4.12534e-01
 c11bf                                  6      0.0000       0.00000       A     3.39740e-01     4.50819e-01
 c12bf                                  6      0.0000       0.00000       A     3.39821e-01     4.50732e-01
 c13bf                                  6      0.0000       0.00000       A     3.39754e-01     4.50898e-01
 o14bf                                  8      0.0000       0.00000       A     3.15651e-01     3.02535e-01
 c15bf                                  6      0.0000       0.00000       A     3.31493e-01     4.12643e-01
 c16bf                                  6      0.0000       0.00000       A     3.31503e-01     4.13933e-01
 c17bf                                  6      0.0000       0.00000       A     3.31427e-01     4.12862e-01
 c18bf                                  6      0.0000       0.00000       A     3.31513e-01     4.13123e-01
 h19bf                                  1      0.0000       0.00000       A     2.62509e-01     6.71594e-02
 h20bf                                  1      0.0000       0.00000       A     2.62453e-01     6.74531e-02
 h21bf                                  1      0.0000       0.00000       A     2.62437e-01     6.74722e-02
 h22bf                                  1      0.0000       0.00000       A     2.62476e-01     6.69056e-02
 h23bf                                  1      0.0000       0.00000       A     2.59715e-01     8.74790e-02
 h24bf                                  1      0.0000       0.00000       A     2.59715e-01     8.74790e-02
 h25bf                                  1      0.0000       0.00000       A     2.60066e-01     8.68629e-02
 h26bf                                  1      0.0000       0.00000       A     2.60066e-01     8.68629e-02
 h27bf                                  1      0.0000       0.00000       A     2.42108e-01     8.76817e-02
 h28bf                                  1      0.0000       0.00000       A     2.42108e-01     8.76817e-02
 h29bf                                  1      0.0000       0.00000       A     2.62575e-01     6.72536e-02
 c30bf                                  6      0.0000       0.00000       A     3.31444e-01     4.12721e-01
 c31bf                                  6      0.0000       0.00000       A     3.31488e-01     4.12359e-01
 c32bf                                  6      0.0000       0.00000       A     3.31534e-01     4.13123e-01
 c33bf                                  6      0.0000       0.00000       A     3.31499e-01     4.12734e-01
 c34bf                                  6      0.0000       0.00000       A     3.31496e-01     4.12697e-01
 c35bf                                  6      0.0000       0.00000       A     3.31400e-01     4.13449e-01
 h36bf                                  1      0.0000       0.00000       A     2.62478e-01     6.75951e-02
 h37bf                                  1      0.0000       0.00000       A     2.62489e-01     6.75504e-02
 h38bf                                  1      0.0000       0.00000       A     2.62489e-01     6.75504e-02
 h39bf                                  1      0.0000       0.00000       A     2.62520e-01     6.76255e-02
 h40bf                                  1      0.0000       0.00000       A     2.62535e-01     6.72073e-02
 cl41bf                                17      0.0000       0.00000       A     3.46629e-01     1.10345e+00
 n42bf                                  7      0.0000       0.00000       A     3.20469e-01     8.58390e-01
 h43bf                                  1      0.0000       0.00000       A     1.10720e-01     4.23341e-02

[ moleculetype ]
;name             nrexcl
 44_flip               3

[ atoms ]
;       nr            type      resi   res      atom      cgnr      charge          mass ; qtot
         1            o0bf         1   UNL        o0         1    -0.72437       15.9990 ; qtot   -0.724
         2            c1bf         1   UNL        c1         2     0.71536       12.0110 ; qtot   -0.009
         3            o2bf         1   UNL        o2         3    -0.72437       15.9990 ; qtot   -0.733
         4            c3bf         1   UNL        c3         4    -0.12874       12.0110 ; qtot   -0.862
         5            c4bf         1   UNL        c4         5    -0.06274       12.0110 ; qtot   -0.925
         6            c5bf         1   UNL        c5         6    -0.14509       12.0110 ; qtot   -1.070
         7            c6bf         1   UNL        c6         7    -0.09062       12.0110 ; qtot   -1.161
         8            c7bf         1   UNL        c7         8    -0.14599       12.0110 ; qtot   -1.307
         9            c8bf         1   UNL        c8         9    -0.06647       12.0110 ; qtot   -1.373
        10            c9bf         1   UNL        c9        10    -0.10957       12.0110 ; qtot   -1.483
        11           c10bf         1   UNL       c10        11    -0.19497       12.0110 ; qtot   -1.678
        12           c11bf         1   UNL       c11        12    -0.00891       12.0110 ; qtot   -1.686
        13           c12bf         1   UNL       c12        13    -0.08977       12.0110 ; qtot   -1.776
        14           c13bf         1   UNL       c13        14     0.16333       12.0110 ; qtot   -1.613
        15           o14bf         1   UNL       o14        15    -0.35415       15.9990 ; qtot   -1.967
        16           c15bf         1   UNL       c15        16     0.15407       12.0110 ; qtot   -1.813
        17           c16bf         1   UNL       c16        17     0.10685       12.0110 ; qtot   -1.706
        18           c17bf         1   UNL       c17        18    -0.05811       12.0110 ; qtot   -1.764
        19           c18bf         1   UNL       c18        19    -0.19502       12.0110 ; qtot   -1.959
        20           h19bf         1   UNL       h19        20     0.11536        1.0080 ; qtot   -1.844
        21           h20bf         1   UNL       h20        21     0.11184        1.0080 ; qtot   -1.732
        22           h21bf         1   UNL       h21        22     0.11224        1.0080 ; qtot   -1.620
        23           h22bf         1   UNL       h22        23     0.11869        1.0080 ; qtot   -1.501
        24           h23bf         1   UNL       h23        24     0.04567        1.0080 ; qtot   -1.455
        25           h24bf         1   UNL       h24        25     0.04567        1.0080 ; qtot   -1.410
        26           h25bf         1   UNL       h25        26     0.05535        1.0080 ; qtot   -1.354
        27           h26bf         1   UNL       h26        27     0.05535        1.0080 ; qtot   -1.299
        28           h27bf         1   UNL       h27        28     0.04594        1.0080 ; qtot   -1.253
        29           h28bf         1   UNL       h28        29     0.04594        1.0080 ; qtot   -1.207
        30           h29bf         1   UNL       h29        30     0.12949        1.0080 ; qtot   -1.078
        31           c30bf         1   UNL       c30        31    -0.00916       12.0110 ; qtot   -1.087
        32           c31bf         1   UNL       c31        32    -0.05169       12.0110 ; qtot   -1.139
        33           c32bf         1   UNL       c32        33    -0.08214       12.0110 ; qtot   -1.221
        34           c33bf         1   UNL       c33        34    -0.11299       12.0110 ; qtot   -1.334
        35           c34bf         1   UNL       c34        35    -0.09937       12.0110 ; qtot   -1.433
        36           c35bf         1   UNL       c35        36    -0.10186       12.0110 ; qtot   -1.535
        37           h36bf         1   UNL       h36        37     0.12580        1.0080 ; qtot   -1.409
        38           h37bf         1   UNL       h37        38     0.11645        1.0080 ; qtot   -1.293
        39           h38bf         1   UNL       h38        39     0.11844        1.0080 ; qtot   -1.174
        40           h39bf         1   UNL       h39        40     0.12682        1.0080 ; qtot   -1.047
        41           h40bf         1   UNL       h40        41     0.13489        1.0080 ; qtot   -0.913
        42          cl41bf         1   UNL      cl41        42    -0.21703       35.4530 ; qtot   -1.130
        43           n42bf         1   UNL       n42        43    -0.23318       14.0070 ; qtot   -1.363
        44           h43bf         1   UNL       h43        44     0.36276        1.0080 ; qtot   -1.000

[ bonds ]
;       ai        aj funct               r               k
         1         2     1        0.126246   477087.239648
         2         3     1        0.126246   477087.239648
         2         4     1        0.153400   125645.617041
         4        11     1        0.138965   327323.865771
         4        43     1        0.138505   264560.367188
         5         6     1        0.140170   306119.305762
         5        10     1        0.143187   232474.419336
         5        43     1        0.137011   296448.938721
         6         7     1        0.139356   324716.603516
         6        20     1        0.108648   317710.778467
         7         8     1        0.141322   279766.924170
         7        21     1        0.108613   319631.935205
         8         9     1        0.139211   326075.535254
         8        22     1        0.108624   318958.700391
         9        10     1        0.140988   296604.944922
         9        23     1        0.108582   319566.943262
        10        11     1        0.144259   230612.483154
        11        12     1        0.150445   207387.031226
        12        13     1        0.154308   174656.935327
        12        24     1        0.109425   295733.235693
        12        25     1        0.109425   295733.235693
        13        14     1        0.152479   192757.549072
        13        26     1        0.109515   297660.291504
        13        27     1        0.109515   297660.291504
        14        15     1        0.143585   183492.711328
        14        28     1        0.109622   291623.420996
        14        29     1        0.109622   291623.420996
        15        16     1        0.136701   265846.952295
        16        19     1        0.138233   331140.999658
        16        32     1        0.143228   239790.673486
        17        18     1        0.137508   352060.310156
        17        31     1        0.142661   246806.279248
        17        42     1        0.176298   139953.408228
        18        19     1        0.141397   284371.367139
        18        41     1        0.108467   324167.862109
        19        30     1        0.108330   325901.193408
        31        32     1        0.143448   242535.810596
        31        36     1        0.142194   269643.809717
        32        33     1        0.141940   274017.524902
        33        34     1        0.138065   351854.455518
        33        37     1        0.108456   322554.989355
        34        35     1        0.141563   277658.171826
        34        38     1        0.108610   320314.874121
        35        36     1        0.138017   352121.114014
        35        39     1        0.108605   320797.729785
        36        40     1        0.108382   324296.109473
        43        44     1        0.101568   409831.840137

[ angles ]
;       ai        aj        ak funct           theta             cth
         1         2         3     1      129.890915      711.082981
         1         2         4     1      114.963943      332.710740
         2         4        11     1      135.663651      350.727714
         2         4        43     1      115.605225      381.001510
         3         2         4     1      114.963943      332.710740
         4        11        10     1      106.575829      405.326820
         4        11        12     1      127.327011      428.528720
         4        43         5     1      110.661705      412.354440
         4        43        44     1      117.847610      382.259468
         5         6         7     1      117.701210      791.646496
         5         6        20     1      121.289551      440.177345
         5        10         9     1      118.560951      742.089118
         5        10        11     1      107.585289      271.643946
         5        43        44     1      131.290939      307.571563
         6         5        10     1      122.120865      633.320696
         6         5        43     1      131.222183      478.691487
         6         7         8     1      121.218521      629.331416
         6         7        21     1      119.387344      434.126071
         7         6        20     1      121.092140      440.849832
         7         8         9     1      121.054970      638.915493
         7         8        22     1      119.239258      447.408528
         8         7        21     1      119.397072      440.561550
         8         9        10     1      119.297623      725.558372
         8         9        23     1      120.503197      431.554931
         9         8        22     1      119.770569      439.261009
         9        10        11     1      134.133453      413.767632
        10         5        43     1      106.946518      176.571523
        10         9        23     1      120.298561      433.490133
        10        11        12     1      125.788147      461.612620
        11         4        43     1      108.726097      284.224995
        11        12        13     1      112.795105      548.013662
        11        12        24     1      109.126892      490.517563
        11        12        25     1      109.126892      490.517563
        12        13        14     1      112.596092      591.569692
        12        13        26     1      109.495163      484.698613
        12        13        27     1      109.495163      484.698613
        13        12        24     1      108.936073      484.939652
        13        12        25     1      108.936073      484.939652
        13        14        15     1      109.371521      625.511448
        13        14        28     1      110.818993      494.243874
        13        14        29     1      110.818993      494.243874
        14        13        26     1      108.782150      510.566811
        14        13        27     1      108.782150      510.566811
        14        15        16     1      118.672020      503.242641
        15        14        28     1      108.759766      456.673296
        15        14        29     1      108.759766      456.673296
        15        16        19     1      124.857201      503.757373
        15        16        32     1      115.096581      462.306016
        16        19        18     1      120.082779      734.689230
        16        19        30     1      121.131371      434.240158
        16        32        31     1      119.066994      732.153969
        16        32        33     1      121.466148      494.840325
        17        18        19     1      120.441574      613.839776
        17        18        41     1      120.098915      418.409289
        17        31        32     1      117.486557      683.774490
        17        31        36     1      123.612106      414.130291
        18        17        31     1      121.429359      542.164579
        18        17        42     1      118.651077      356.209158
        18        19        30     1      118.810196      442.698208
        19        16        32     1      120.290512      549.297541
        19        18        41     1      119.561485      427.713256
        24        12        25     1      106.761887      356.396250
        26        13        27     1      107.020569      359.636781
        28        14        29     1      108.062378      344.404310
        31        17        42     1      120.096756      356.979358
        31        32        33     1      119.499710      751.956402
        31        36        35     1      120.816368      589.321341
        31        36        40     1      119.065773      426.394679
        32        31        36     1      118.676231      756.601857
        32        33        34     1      120.674538      615.645377
        32        33        37     1      118.806374      426.426633
        33        34        35     1      120.117393      703.131108
        33        34        38     1      120.094200      445.249525
        34        33        37     1      120.411987      429.714887
        34        35        36     1      120.409012      701.824758
        34        35        39     1      119.746292      444.624824
        35        34        38     1      119.787277      444.921501
        35        36        40     1      120.059341      435.952773
        36        35        39     1      119.907715      443.392147

[ dihedrals ] ; propers for gromacs 4.5 or higher, use funct 9
;       ai        aj        ak        al funct           phase               k        pn
         1         2         4        11     9        0.000000       -5.848196         1
         1         2         4        11     9      180.000000        2.034170         2
         1         2         4        11     9        0.000000       -0.165345         3
         1         2         4        11     9      180.000000        0.106470         4
         1         2         4        43     9        0.000000        6.314815         1
         1         2         4        43     9      180.000000        2.991276         2
         1         2         4        43     9        0.000000        0.807549         3
         1         2         4        43     9      180.000000        0.524419         4
         2         4        11        10     9        0.000000        0.407151         1
         2         4        11        10     9      180.000000       14.821666         2
         2         4        11        10     9        0.000000       -0.971338         3
         2         4        11        10     9      180.000000       -0.840499         4
         2         4        11        12     9        0.000000        0.171018         1
         2         4        11        12     9      180.000000       12.352449         2
         2         4        11        12     9        0.000000        0.301653         3
         2         4        11        12     9      180.000000       -0.783839         4
         2         4        43         5     9        0.000000       -0.541694         1
         2         4        43         5     9      180.000000        7.269044         2
         2         4        43         5     9        0.000000        0.535650         3
         2         4        43         5     9      180.000000       -0.257959         4
         2         4        43        44     9        0.000000       -0.060045         1
         2         4        43        44     9      180.000000        3.229365         2
         2         4        43        44     9        0.000000        0.283770         3
         2         4        43        44     9      180.000000        0.035855         4
         3         2         4        11     9        0.000000       -5.848196         1
         3         2         4        11     9      180.000000        2.034170         2
         3         2         4        11     9        0.000000       -0.165345         3
         3         2         4        11     9      180.000000        0.106470         4
         3         2         4        43     9        0.000000        6.314815         1
         3         2         4        43     9      180.000000        2.991276         2
         3         2         4        43     9        0.000000        0.807549         3
         3         2         4        43     9      180.000000        0.524419         4
         4        11        10         5     9        0.000000        0.059700         1
         4        11        10         5     9      180.000000       24.840541         2
         4        11        10         5     9        0.000000       -7.948559         3
         4        11        10         5     9      180.000000       -0.272064         4
         4        11        10         9     9        0.000000       -0.230767         1
         4        11        10         9     9      180.000000        4.359253         2
         4        11        10         9     9        0.000000       -0.639085         3
         4        11        10         9     9      180.000000        0.332474         4
         4        11        12        13     9        0.000000       -0.738084         1
         4        11        12        13     9      180.000000       -0.482783         2
         4        11        12        13     9        0.000000        0.120603         3
         4        11        12        13     9      180.000000       -0.049497         4
         4        11        12        24     9        0.000000        0.040229         1
         4        11        12        24     9      180.000000        0.070747         2
         4        11        12        24     9        0.000000       -0.344602         3
         4        11        12        24     9      180.000000        0.138807         4
         4        11        12        25     9        0.000000        0.040229         1
         4        11        12        25     9      180.000000        0.070747         2
         4        11        12        25     9        0.000000       -0.344602         3
         4        11        12        25     9      180.000000        0.138807         4
         4        43         5         6     9        0.000000        0.303827         1
         4        43         5         6     9      180.000000        4.550438         2
         4        43         5         6     9        0.000000        0.320222         3
         4        43         5         6     9      180.000000        0.136045         4
         4        43         5        10     9        0.000000       -0.267390         1
         4        43         5        10     9      180.000000       18.058715         2
         4        43         5        10     9        0.000000       -4.023647         3
         4        43         5        10     9      180.000000       -0.911935         4
         5         6         7         8     9        0.000000       -0.113626         1
         5         6         7         8     9      180.000000       21.530658         2
         5         6         7         8     9        0.000000       -1.714097         3
         5         6         7         8     9      180.000000       -0.570669         4
         5         6         7        21     9        0.000000        0.025567         1
         5         6         7        21     9      180.000000       16.325680         2
         5         6         7        21     9        0.000000       -0.701049         3
         5         6         7        21     9      180.000000       -0.066530         4
         5        10         9         8     9        0.000000        0.097901         1
         5        10         9         8     9      180.000000       19.194673         2
         5        10         9         8     9        0.000000       -1.707494         3
         5        10         9         8     9      180.000000       -0.440949         4
         5        10         9        23     9        0.000000        0.374264         1
         5        10         9        23     9      180.000000       13.045364         2
         5        10         9        23     9        0.000000       -0.146126         3
         5        10         9        23     9      180.000000        0.020637         4
         5        10        11        12     9        0.000000        1.148513         1
         5        10        11        12     9      180.000000       11.219891         2
         5        10        11        12     9        0.000000        0.713387         3
         5        10        11        12     9      180.000000       -0.325165         4
         5        43         4        11     9        0.000000       -0.001192         1
         5        43         4        11     9      180.000000       20.210571         2
         5        43         4        11     9        0.000000       -4.953607         3
         5        43         4        11     9      180.000000       -0.860756         4
         6         5        10         9     9        0.000000       -0.036515         1
         6         5        10         9     9      180.000000        9.944162         2
         6         5        10         9     9        0.000000       -1.355781         3
         6         5        10         9     9      180.000000        0.026608         4
         6         5        10        11     9        0.000000       -0.115361         1
         6         5        10        11     9      180.000000       10.689383         2
         6         5        10        11     9        0.000000       -2.544923         3
         6         5        10        11     9      180.000000        0.091706         4
         6         5        43        44     9        0.000000        0.027967         1
         6         5        43        44     9      180.000000        0.904266         2
         6         5        43        44     9        0.000000        0.266755         3
         6         5        43        44     9      180.000000       -0.055017         4
         6         7         8         9     9        0.000000        0.085716         1
         6         7         8         9     9      180.000000       17.178660         2
         6         7         8         9     9        0.000000       -1.420086         3
         6         7         8         9     9      180.000000       -0.309722         4
         6         7         8        22     9        0.000000        0.054101         1
         6         7         8        22     9      180.000000       13.653216         2
         6         7         8        22     9        0.000000       -0.711990         3
         6         7         8        22     9      180.000000        0.142296         4
         7         6         5        10     9        0.000000       -0.077956         1
         7         6         5        10     9      180.000000       17.305936         2
         7         6         5        10     9        0.000000       -1.495089         3
         7         6         5        10     9      180.000000       -0.342318         4
         7         6         5        43     9        0.000000        0.203655         1
         7         6         5        43     9      180.000000       16.361366         2
         7         6         5        43     9        0.000000       -0.221954         3
         7         6         5        43     9      180.000000       -0.348842         4
         7         8         9        10     9        0.000000       -0.127468         1
         7         8         9        10     9      180.000000       21.310594         2
         7         8         9        10     9        0.000000       -1.734983         3
         7         8         9        10     9      180.000000       -0.527673         4
         7         8         9        23     9        0.000000        0.032670         1
         7         8         9        23     9      180.000000       15.346210         2
         7         8         9        23     9        0.000000       -0.603448         3
         7         8         9        23     9      180.000000        0.127241         4
         8         7         6        20     9        0.000000        0.092707         1
         8         7         6        20     9      180.000000       14.929351         2
         8         7         6        20     9        0.000000       -0.522639         3
         8         7         6        20     9      180.000000        0.113419         4
         8         9        10        11     9        0.000000       -0.094464         1
         8         9        10        11     9      180.000000       14.058062         2
         8         9        10        11     9        0.000000       -0.928158         3
         8         9        10        11     9      180.000000       -0.193889         4
         9         8         7        21     9        0.000000        0.058801         1
         9         8         7        21     9      180.000000       13.405420         2
         9         8         7        21     9        0.000000       -0.757105         3
         9         8         7        21     9      180.000000        0.161000         4
         9        10         5        43     9        0.000000        0.098310         1
         9        10         5        43     9      180.000000       10.836978         2
         9        10         5        43     9        0.000000       -1.802469         3
         9        10         5        43     9      180.000000       -0.093939         4
         9        10        11        12     9        0.000000       -0.440081         1
         9        10        11        12     9      180.000000        5.384506         2
         9        10        11        12     9        0.000000        0.167749         3
         9        10        11        12     9      180.000000        0.241046         4
        10         5         6        20     9        0.000000        0.191640         1
        10         5         6        20     9      180.000000       11.778430         2
        10         5         6        20     9        0.000000       -0.112600         3
        10         5         6        20     9      180.000000       -0.028965         4
        10         5        43        44     9        0.000000        0.660544         1
        10         5        43        44     9      180.000000        1.565184         2
        10         5        43        44     9        0.000000        0.554703         3
        10         5        43        44     9      180.000000        0.160968         4
        10         9         8        22     9        0.000000        0.020216         1
        10         9         8        22     9      180.000000       16.122637         2
        10         9         8        22     9        0.000000       -0.557272         3
        10         9         8        22     9      180.000000       -0.082829         4
        10        11         4        43     9        0.000000       -0.269618         1
        10        11         4        43     9      180.000000       32.307342         2
        10        11         4        43     9        0.000000       -6.139104         3
        10        11         4        43     9      180.000000       -0.336367         4
        10        11        12        13     9        0.000000       -0.767895         1
        10        11        12        13     9      180.000000       -0.164027         2
        10        11        12        13     9        0.000000        0.271293         3
        10        11        12        13     9      180.000000        0.042790         4
        10        11        12        24     9        0.000000        0.085264         1
        10        11        12        24     9      180.000000        0.092043         2
        10        11        12        24     9        0.000000        0.301666         3
        10        11        12        24     9      180.000000        0.085541         4
        10        11        12        25     9        0.000000        0.085264         1
        10        11        12        25     9      180.000000        0.092043         2
        10        11        12        25     9        0.000000        0.301666         3
        10        11        12        25     9      180.000000        0.085541         4
        11         4        43        44     9        0.000000        2.056222         1
        11         4        43        44     9      180.000000        2.032207         2
        11         4        43        44     9        0.000000        0.994371         3
        11         4        43        44     9      180.000000        0.086240         4
        11        10         5        43     9        0.000000       -0.184496         1
        11        10         5        43     9      180.000000       20.114318         2
        11        10         5        43     9        0.000000       -6.567274         3
        11        10         5        43     9      180.000000       -0.385168         4
        11        10         9        23     9        0.000000       -0.083573         1
        11        10         9        23     9      180.000000       10.550967         2
        11        10         9        23     9        0.000000       -0.092864         3
        11        10         9        23     9      180.000000        0.077841         4
        11        12        13        14     9        0.000000       -1.024121         1
        11        12        13        14     9      180.000000       -0.207153         2
        11        12        13        14     9        0.000000        0.421254         3
        11        12        13        14     9      180.000000       -0.019415         4
        11        12        13        26     9        0.000000        0.173222         1
        11        12        13        26     9      180.000000        0.002079         2
        11        12        13        26     9        0.000000        0.596348         3
        11        12        13        26     9      180.000000        0.016806         4
        11        12        13        27     9        0.000000        0.173222         1
        11        12        13        27     9      180.000000        0.002079         2
        11        12        13        27     9        0.000000        0.596348         3
        11        12        13        27     9      180.000000        0.016806         4
        12        11         4        43     9        0.000000        0.597618         1
        12        11         4        43     9      180.000000       19.383907         2
        12        11         4        43     9        0.000000       -0.027506         3
        12        11         4        43     9      180.000000       -1.380854         4
        12        13        14        15     9        0.000000       -1.444192         1
        12        13        14        15     9      180.000000       -0.380017         2
        12        13        14        15     9        0.000000        0.458336         3
        12        13        14        15     9      180.000000        0.015735         4
        12        13        14        28     9        0.000000        0.055248         1
        12        13        14        28     9      180.000000        0.039484         2
        12        13        14        28     9        0.000000        0.652163         3
        12        13        14        28     9      180.000000        0.043994         4
        12        13        14        29     9        0.000000        0.055248         1
        12        13        14        29     9      180.000000        0.039484         2
        12        13        14        29     9        0.000000        0.652163         3
        12        13        14        29     9      180.000000        0.043994         4
        13        14        15        16     9        0.000000        0.202461         1
        13        14        15        16     9      180.000000        0.306147         2
        13        14        15        16     9        0.000000        0.663317         3
        13        14        15        16     9      180.000000        0.037894         4
        14        13        12        24     9        0.000000       -0.131825         1
        14        13        12        24     9      180.000000        0.053867         2
        14        13        12        24     9        0.000000        0.490049         3
        14        13        12        24     9      180.000000        0.024743         4
        14        13        12        25     9        0.000000       -0.131825         1
        14        13        12        25     9      180.000000        0.053867         2
        14        13        12        25     9        0.000000        0.490049         3
        14        13        12        25     9      180.000000        0.024743         4
        14        15        16        19     9        0.000000        0.894565         1
        14        15        16        19     9      180.000000        4.953615         2
        14        15        16        19     9        0.000000       -0.120664         3
        14        15        16        19     9      180.000000        0.345905         4
        14        15        16        32     9        0.000000       -1.305401         1
        14        15        16        32     9      180.000000        5.157444         2
        14        15        16        32     9        0.000000        0.061302         3
        14        15        16        32     9      180.000000        0.390177         4
        15        14        13        26     9        0.000000        0.036466         1
        15        14        13        26     9      180.000000        0.149894         2
        15        14        13        26     9        0.000000        0.480097         3
        15        14        13        26     9      180.000000        0.070791         4
        15        14        13        27     9        0.000000        0.036466         1
        15        14        13        27     9      180.000000        0.149894         2
        15        14        13        27     9        0.000000        0.480097         3
        15        14        13        27     9      180.000000        0.070791         4
        15        16        19        18     9        0.000000        0.426368         1
        15        16        19        18     9      180.000000       20.855499         2
        15        16        19        18     9        0.000000        0.571319         3
        15        16        19        18     9      180.000000       -0.628379         4
        15        16        19        30     9        0.000000        0.173943         1
        15        16        19        30     9      180.000000       15.048202         2
        15        16        19        30     9        0.000000        0.161097         3
        15        16        19        30     9      180.000000        0.187129         4
        15        16        32        31     9        0.000000        0.123632         1
        15        16        32        31     9      180.000000       14.834794         2
        15        16        32        31     9        0.000000        0.285984         3
        15        16        32        31     9      180.000000       -0.314045         4
        15        16        32        33     9        0.000000        0.101140         1
        15        16        32        33     9      180.000000       13.454617         2
        15        16        32        33     9        0.000000        0.064763         3
        15        16        32        33     9      180.000000       -0.061982         4
        16        15        14        28     9        0.000000       -0.280199         1
        16        15        14        28     9      180.000000       -0.032650         2
        16        15        14        28     9        0.000000        0.866124         3
        16        15        14        28     9      180.000000       -0.044807         4
        16        15        14        29     9        0.000000       -0.280199         1
        16        15        14        29     9      180.000000       -0.032650         2
        16        15        14        29     9        0.000000        0.866124         3
        16        15        14        29     9      180.000000       -0.044807         4
        16        19        18        17     9        0.000000       -0.182159         1
        16        19        18        17     9      180.000000       15.789640         2
        16        19        18        17     9        0.000000       -1.656558         3
        16        19        18        17     9      180.000000       -0.289551         4
        16        19        18        41     9        0.000000        0.168293         1
        16        19        18        41     9      180.000000       13.305434         2
        16        19        18        41     9        0.000000       -0.619943         3
        16        19        18        41     9      180.000000        0.076217         4
        16        32        31        17     9        0.000000        0.244190         1
        16        32        31        17     9      180.000000       11.600343         2
        16        32        31        17     9        0.000000       -0.732119         3
        16        32        31        17     9      180.000000       -0.355579         4
        16        32        31        36     9        0.000000        0.104810         1
        16        32        31        36     9      180.000000       11.525919         2
        16        32        31        36     9        0.000000       -0.985636         3
        16        32        31        36     9      180.000000       -0.228802         4
        16        32        33        34     9        0.000000       -0.307981         1
        16        32        33        34     9      180.000000       14.329528         2
        16        32        33        34     9        0.000000       -0.856901         3
        16        32        33        34     9      180.000000       -0.184428         4
        16        32        33        37     9        0.000000       -0.136538         1
        16        32        33        37     9      180.000000       12.017566         2
        16        32        33        37     9        0.000000       -0.502076         3
        16        32        33        37     9      180.000000       -0.021090         4
        17        18        19        30     9        0.000000        0.192321         1
        17        18        19        30     9      180.000000       12.571118         2
        17        18        19        30     9        0.000000       -0.584528         3
        17        18        19        30     9      180.000000        0.161564         4
        17        31        32        33     9        0.000000        0.508122         1
        17        31        32        33     9      180.000000       10.600827         2
        17        31        32        33     9        0.000000       -0.727044         3
        17        31        32        33     9      180.000000       -0.249522         4
        17        31        36        35     9        0.000000       -0.161828         1
        17        31        36        35     9      180.000000       13.026888         2
        17        31        36        35     9        0.000000       -0.619875         3
        17        31        36        35     9      180.000000       -0.203744         4
        17        31        36        40     9        0.000000       -0.307664         1
        17        31        36        40     9      180.000000       10.937238         2
        17        31        36        40     9        0.000000       -0.529992         3
        17        31        36        40     9      180.000000        0.079248         4
        18        17        31        32     9        0.000000       -0.136392         1
        18        17        31        32     9      180.000000       13.634545         2
        18        17        31        32     9        0.000000       -0.886563         3
        18        17        31        32     9      180.000000       -0.217446         4
        18        17        31        36     9        0.000000        0.017441         1
        18        17        31        36     9      180.000000       10.672514         2
        18        17        31        36     9        0.000000       -0.507839         3
        18        17        31        36     9      180.000000       -0.035931         4
        18        19        16        32     9        0.000000       -0.110831         1
        18        19        16        32     9      180.000000       18.449277         2
        18        19        16        32     9        0.000000       -1.118786         3
        18        19        16        32     9      180.000000       -0.431393         4
        19        16        32        31     9        0.000000       -0.143787         1
        19        16        32        31     9      180.000000       12.518468         2
        19        16        32        31     9        0.000000       -0.613903         3
        19        16        32        31     9      180.000000       -0.118399         4
        19        16        32        33     9        0.000000       -0.245948         1
        19        16        32        33     9      180.000000        9.354935         2
        19        16        32        33     9        0.000000       -0.293219         3
        19        16        32        33     9      180.000000        0.000793         4
        19        18        17        31     9        0.000000       -0.080821         1
        19        18        17        31     9      180.000000       19.423918         2
        19        18        17        31     9        0.000000       -1.331560         3
        19        18        17        31     9      180.000000       -0.433632         4
        19        18        17        42     9        0.000000        0.290071         1
        19        18        17        42     9      180.000000       22.608198         2
        19        18        17        42     9        0.000000        0.215305         3
        19        18        17        42     9      180.000000       -0.978195         4
        20         6         5        43     9        0.000000       -0.075257         1
        20         6         5        43     9      180.000000       11.465431         2
        20         6         5        43     9        0.000000       -0.064461         3
        20         6         5        43     9      180.000000        0.061567         4
        20         6         7        21     9        0.000000       -0.093298         1
        20         6         7        21     9      180.000000       12.220921         2
        20         6         7        21     9        0.000000       -0.649140         3
        20         6         7        21     9      180.000000        0.227120         4
        21         7         8        22     9        0.000000       -0.083847         1
        21         7         8        22     9      180.000000       10.869170         2
        21         7         8        22     9        0.000000       -0.488292         3
        21         7         8        22     9      180.000000        0.188957         4
        22         8         9        23     9        0.000000       -0.175108         1
        22         8         9        23     9      180.000000       12.479388         2
        22         8         9        23     9        0.000000       -0.668013         3
        22         8         9        23     9      180.000000        0.273644         4
        24        12        13        26     9        0.000000        0.021055         1
        24        12        13        26     9      180.000000        0.036953         2
        24        12        13        26     9        0.000000        0.611540         3
        24        12        13        26     9      180.000000       -0.014512         4
        24        12        13        27     9        0.000000        0.021055         1
        24        12        13        27     9      180.000000        0.036953         2
        24        12        13        27     9        0.000000        0.611540         3
        24        12        13        27     9      180.000000       -0.014512         4
        25        12        13        26     9        0.000000        0.021055         1
        25        12        13        26     9      180.000000        0.036953         2
        25        12        13        26     9        0.000000        0.611540         3
        25        12        13        26     9      180.000000       -0.014512         4
        25        12        13        27     9        0.000000        0.021055         1
        25        12        13        27     9      180.000000        0.036953         2
        25        12        13        27     9        0.000000        0.611540         3
        25        12        13        27     9      180.000000       -0.014512         4
        26        13        14        28     9        0.000000       -0.008802         1
        26        13        14        28     9      180.000000       -0.016763         2
        26        13        14        28     9        0.000000        0.668352         3
        26        13        14        28     9      180.000000       -0.049453         4
        26        13        14        29     9        0.000000       -0.008802         1
        26        13        14        29     9      180.000000       -0.016763         2
        26        13        14        29     9        0.000000        0.668352         3
        26        13        14        29     9      180.000000       -0.049453         4
        27        13        14        28     9        0.000000       -0.008802         1
        27        13        14        28     9      180.000000       -0.016763         2
        27        13        14        28     9        0.000000        0.668352         3
        27        13        14        28     9      180.000000       -0.049453         4
        27        13        14        29     9        0.000000       -0.008802         1
        27        13        14        29     9      180.000000       -0.016763         2
        27        13        14        29     9        0.000000        0.668352         3
        27        13        14        29     9      180.000000       -0.049453         4
        30        19        16        32     9        0.000000       -0.091832         1
        30        19        16        32     9      180.000000       13.766252         2
        30        19        16        32     9        0.000000       -0.474355         3
        30        19        16        32     9      180.000000        0.058196         4
        30        19        18        41     9        0.000000       -0.216468         1
        30        19        18        41     9      180.000000       11.145989         2
        30        19        18        41     9        0.000000       -0.787421         3
        30        19        18        41     9      180.000000        0.123308         4
        31        17        18        41     9        0.000000        0.011384         1
        31        17        18        41     9      180.000000       14.490432         2
        31        17        18        41     9        0.000000       -0.449339         3
        31        17        18        41     9      180.000000        0.109033         4
        31        32        33        34     9        0.000000       -0.294936         1
        31        32        33        34     9      180.000000       16.275193         2
        31        32        33        34     9        0.000000       -1.117909         3
        31        32        33        34     9      180.000000       -0.239373         4
        31        32        33        37     9        0.000000       -0.064287         1
        31        32        33        37     9      180.000000       12.190318         2
        31        32        33        37     9        0.000000       -0.231876         3
        31        32        33        37     9      180.000000        0.032666         4
        31        36        35        34     9        0.000000       -0.123361         1
        31        36        35        34     9      180.000000       20.639611         2
        31        36        35        34     9        0.000000       -1.654554         3
        31        36        35        34     9      180.000000       -0.437307         4
        31        36        35        39     9        0.000000        0.050654         1
        31        36        35        39     9      180.000000       15.988639         2
        31        36        35        39     9        0.000000       -0.600607         3
        31        36        35        39     9      180.000000        0.081160         4
        32        31        17        42     9        0.000000        0.217824         1
        32        31        17        42     9      180.000000       14.788665         2
        32        31        17        42     9        0.000000        0.155330         3
        32        31        17        42     9      180.000000       -0.551910         4
        32        31        36        35     9        0.000000       -0.357573         1
        32        31        36        35     9      180.000000       15.885999         2
        32        31        36        35     9        0.000000       -1.201140         3
        32        31        36        35     9      180.000000       -0.225598         4
        32        31        36        40     9        0.000000       -0.184472         1
        32        31        36        40     9      180.000000       11.712151         2
        32        31        36        40     9        0.000000       -0.247839         3
        32        31        36        40     9      180.000000        0.008846         4
        32        33        34        35     9        0.000000       -0.213154         1
        32        33        34        35     9      180.000000       20.800137         2
        32        33        34        35     9        0.000000       -1.943027         3
        32        33        34        35     9      180.000000       -0.427206         4
        32        33        34        38     9        0.000000       -0.047708         1
        32        33        34        38     9      180.000000       16.164977         2
        32        33        34        38     9        0.000000       -0.758925         3
        32        33        34        38     9      180.000000       -0.014485         4
        33        32        31        36     9        0.000000        0.106731         1
        33        32        31        36     9      180.000000       10.457807         2
        33        32        31        36     9        0.000000       -0.825551         3
        33        32        31        36     9      180.000000       -0.130479         4
        33        34        35        36     9        0.000000        0.056831         1
        33        34        35        36     9      180.000000       15.770192         2
        33        34        35        36     9        0.000000       -1.383423         3
        33        34        35        36     9      180.000000       -0.234494         4
        33        34        35        39     9        0.000000        0.000123         1
        33        34        35        39     9      180.000000       12.700892         2
        33        34        35        39     9        0.000000       -0.648501         3
        33        34        35        39     9      180.000000        0.097862         4
        34        35        36        40     9        0.000000       -0.039348         1
        34        35        36        40     9      180.000000       16.002295         2
        34        35        36        40     9        0.000000       -0.525987         3
        34        35        36        40     9      180.000000        0.123326         4
        35        34        33        37     9        0.000000       -0.000106         1
        35        34        33        37     9      180.000000       16.253819         2
        35        34        33        37     9        0.000000       -0.548561         3
        35        34        33        37     9      180.000000        0.093884         4
        36        31        17        42     9        0.000000        0.192542         1
        36        31        17        42     9      180.000000       13.464249         2
        36        31        17        42     9        0.000000        0.249955         3
        36        31        17        42     9      180.000000       -0.197053         4
        36        35        34        38     9        0.000000       -0.025868         1
        36        35        34        38     9      180.000000       12.806800         2
        36        35        34        38     9        0.000000       -0.650497         3
        36        35        34        38     9      180.000000        0.109694         4
        37        33        34        38     9        0.000000       -0.149870         1
        37        33        34        38     9      180.000000       12.686794         2
        37        33        34        38     9        0.000000       -0.689689         3
        37        33        34        38     9      180.000000        0.316855         4
        38        34        35        39     9        0.000000       -0.243200         1
        38        34        35        39     9      180.000000       10.148250         2
        38        34        35        39     9        0.000000       -0.376981         3
        38        34        35        39     9      180.000000        0.139275         4
        39        35        36        40     9        0.000000       -0.190516         1
        39        35        36        40     9      180.000000       12.727838         2
        39        35        36        40     9        0.000000       -0.697397         3
        39        35        36        40     9      180.000000        0.302709         4
        41        18        17        42     9        0.000000        0.109474         1
        41        18        17        42     9      180.000000       15.586947         2
        41        18        17        42     9        0.000000        0.102926         3
        41        18        17        42     9      180.000000        0.101135         4

[ dihedrals ] ; impropers
;       ai        aj        ak        al funct           phase               k        pn
         2         1         3         4     4      180.000000       27.893333         2
         2         3         4         1     4      180.000000       27.893333         2
         2         4         1         3     4      180.000000       27.893333         2

[ pairs ]
;       ai        aj funct
         1        11     1
         1        43     1
         2         5     1
         2        10     1
         2        12     1
         2        44     1
         3        11     1
         3        43     1
         4         6     1
         4         9     1
         4        13     1
         4        24     1
         4        25     1
         5         8     1
         5        12     1
         5        21     1
         5        23     1
         6         9     1
         6        11     1
         6        22     1
         6        44     1
         7        10     1
         7        23     1
         7        43     1
         8        11     1
         8        20     1
         9        12     1
         9        21     1
         9        43     1
        10        13     1
        10        20     1
        10        22     1
        10        24     1
        10        25     1
        10        44     1
        11        14     1
        11        23     1
        11        26     1
        11        27     1
        11        44     1
        12        15     1
        12        28     1
        12        29     1
        12        43     1
        13        16     1
        14        19     1
        14        24     1
        14        25     1
        14        32     1
        15        18     1
        15        26     1
        15        27     1
        15        30     1
        15        31     1
        15        33     1
        16        17     1
        16        28     1
        16        29     1
        16        34     1
        16        36     1
        16        37     1
        16        41     1
        17        30     1
        17        33     1
        17        35     1
        17        40     1
        18        32     1
        18        36     1
        19        31     1
        19        33     1
        19        42     1
        20        21     1
        20        43     1
        21        22     1
        22        23     1
        24        26     1
        24        27     1
        25        26     1
        25        27     1
        26        28     1
        26        29     1
        27        28     1
        27        29     1
        30        32     1
        30        41     1
        31        34     1
        31        37     1
        31        39     1
        31        41     1
        32        35     1
        32        38     1
        32        40     1
        32        42     1
        33        36     1
        33        39     1
        34        40     1
        35        37     1
        36        38     1
        36        42     1
        37        38     1
        38        39     1
        39        40     1
        41        42     1
