; ITP file created by ByteFF-ML, 2026-02-21 08:19:42.447361

[ atomtypes ]
;name           bonded.type        at.num        mass        charge   ptype           sigma         epsilon
 o0bf                                   8      0.0000       0.00000       A     3.04351e-01     6.11346e-01
 c1bf                                   6      0.0000       0.00000       A     3.31270e-01     4.08495e-01
 o2bf                                   8      0.0000       0.00000       A     3.04351e-01     6.11346e-01
 c3bf                                   6      0.0000       0.00000       A     3.31580e-01     4.10578e-01
 c4bf                                   6      0.0000       0.00000       A     3.31606e-01     4.10911e-01
 c5bf                                   6      0.0000       0.00000       A     3.31468e-01     4.12919e-01
 c6bf                                   6      0.0000       0.00000       A     3.31479e-01     4.12975e-01
 c7bf                                   6      0.0000       0.00000       A     3.31507e-01     4.12945e-01
 c8bf                                   6      0.0000       0.00000       A     3.31448e-01     4.12303e-01
 c9bf                                   6      0.0000       0.00000       A     3.31417e-01     4.11727e-01
 c10bf                                  6      0.0000       0.00000       A     3.31209e-01     4.12534e-01
 c11bf                                  6      0.0000       0.00000       A     3.39740e-01     4.50819e-01
 c12bf                                  6      0.0000       0.00000       A     3.39821e-01     4.50732e-01
 c13bf                                  6      0.0000       0.00000       A     3.39725e-01     4.50864e-01
 o14bf                                  8      0.0000       0.00000       A     3.15640e-01     3.03105e-01
 c15bf                                  6      0.0000       0.00000       A     3.31616e-01     4.13567e-01
 c16bf                                  6      0.0000       0.00000       A     3.31483e-01     4.12156e-01
 c17bf                                  6      0.0000       0.00000       A     3.31507e-01     4.12654e-01
 c18bf                                  6      0.0000       0.00000       A     3.31450e-01     4.12696e-01
 h19bf                                  1      0.0000       0.00000       A     2.62509e-01     6.71594e-02
 h20bf                                  1      0.0000       0.00000       A     2.62453e-01     6.74531e-02
 h21bf                                  1      0.0000       0.00000       A     2.62437e-01     6.74722e-02
 h22bf                                  1      0.0000       0.00000       A     2.62476e-01     6.69056e-02
 h23bf                                  1      0.0000       0.00000       A     2.59715e-01     8.74790e-02
 h24bf                                  1      0.0000       0.00000       A     2.59715e-01     8.74790e-02
 h25bf                                  1      0.0000       0.00000       A     2.60066e-01     8.68629e-02
 h26bf                                  1      0.0000       0.00000       A     2.60066e-01     8.68629e-02
 h27bf                                  1      0.0000       0.00000       A     2.42108e-01     8.76817e-02
 h28bf                                  1      0.0000       0.00000       A     2.42108e-01     8.76817e-02
 h29bf                                  1      0.0000       0.00000       A     2.62476e-01     6.71355e-02
 c30bf                                  6      0.0000       0.00000       A     3.31421e-01     4.11628e-01
 c31bf                                  6      0.0000       0.00000       A     3.31394e-01     4.11700e-01
 c32bf                                  6      0.0000       0.00000       A     3.39846e-01     4.51908e-01
 c33bf                                  6      0.0000       0.00000       A     3.39847e-01     4.51107e-01
 c34bf                                  6      0.0000       0.00000       A     3.39827e-01     4.51028e-01
 c35bf                                  6      0.0000       0.00000       A     3.39728e-01     4.52573e-01
 h36bf                                  1      0.0000       0.00000       A     2.62566e-01     6.74259e-02
 h37bf                                  1      0.0000       0.00000       A     2.62423e-01     6.67221e-02
 h38bf                                  1      0.0000       0.00000       A     2.59880e-01     8.70656e-02
 h39bf                                  1      0.0000       0.00000       A     2.59880e-01     8.70656e-02
 h40bf                                  1      0.0000       0.00000       A     2.59894e-01     8.77535e-02
 h41bf                                  1      0.0000       0.00000       A     2.59894e-01     8.77535e-02
 h42bf                                  1      0.0000       0.00000       A     2.59894e-01     8.77535e-02
 h43bf                                  1      0.0000       0.00000       A     2.59894e-01     8.77535e-02
 h44bf                                  1      0.0000       0.00000       A     2.59844e-01     8.72172e-02
 h45bf                                  1      0.0000       0.00000       A     2.59844e-01     8.72172e-02
 n46bf                                  7      0.0000       0.00000       A     3.20469e-01     8.58390e-01
 h47bf                                  1      0.0000       0.00000       A     1.10720e-01     4.23341e-02

[ moleculetype ]
;name             nrexcl
 45                    3

[ atoms ]
;       nr            type      resi   res      atom      cgnr      charge          mass ; qtot
         1            o0bf         1   UNL        o0         1    -0.72437       15.9990 ; qtot   -0.724
         2            c1bf         1   UNL        c1         2     0.71536       12.0110 ; qtot   -0.009
         3            o2bf         1   UNL        o2         3    -0.72437       15.9990 ; qtot   -0.733
         4            c3bf         1   UNL        c3         4    -0.12874       12.0110 ; qtot   -0.862
         5            c4bf         1   UNL        c4         5    -0.06274       12.0110 ; qtot   -0.925
         6            c5bf         1   UNL        c5         6    -0.14509       12.0110 ; qtot   -1.070
         7            c6bf         1   UNL        c6         7    -0.09062       12.0110 ; qtot   -1.161
         8            c7bf         1   UNL        c7         8    -0.14599       12.0110 ; qtot   -1.307
         9            c8bf         1   UNL        c8         9    -0.06647       12.0110 ; qtot   -1.373
        10            c9bf         1   UNL        c9        10    -0.10957       12.0110 ; qtot   -1.483
        11           c10bf         1   UNL       c10        11    -0.19497       12.0110 ; qtot   -1.678
        12           c11bf         1   UNL       c11        12    -0.00891       12.0110 ; qtot   -1.686
        13           c12bf         1   UNL       c12        13    -0.08984       12.0110 ; qtot   -1.776
        14           c13bf         1   UNL       c13        14     0.16369       12.0110 ; qtot   -1.613
        15           o14bf         1   UNL       o14        15    -0.35758       15.9990 ; qtot   -1.970
        16           c15bf         1   UNL       c15        16     0.13336       12.0110 ; qtot   -1.837
        17           c16bf         1   UNL       c16        17    -0.13722       12.0110 ; qtot   -1.974
        18           c17bf         1   UNL       c17        18    -0.07751       12.0110 ; qtot   -2.052
        19           c18bf         1   UNL       c18        19    -0.18979       12.0110 ; qtot   -2.241
        20           h19bf         1   UNL       h19        20     0.11536        1.0080 ; qtot   -2.126
        21           h20bf         1   UNL       h20        21     0.11184        1.0080 ; qtot   -2.014
        22           h21bf         1   UNL       h21        22     0.11224        1.0080 ; qtot   -1.902
        23           h22bf         1   UNL       h22        23     0.11869        1.0080 ; qtot   -1.783
        24           h23bf         1   UNL       h23        24     0.04567        1.0080 ; qtot   -1.738
        25           h24bf         1   UNL       h24        25     0.04567        1.0080 ; qtot   -1.692
        26           h25bf         1   UNL       h25        26     0.05535        1.0080 ; qtot   -1.637
        27           h26bf         1   UNL       h26        27     0.05535        1.0080 ; qtot   -1.581
        28           h27bf         1   UNL       h27        28     0.04503        1.0080 ; qtot   -1.536
        29           h28bf         1   UNL       h28        29     0.04503        1.0080 ; qtot   -1.491
        30           h29bf         1   UNL       h29        30     0.12296        1.0080 ; qtot   -1.368
        31           c30bf         1   UNL       c30        31    -0.05232       12.0110 ; qtot   -1.421
        32           c31bf         1   UNL       c31        32    -0.09572       12.0110 ; qtot   -1.516
        33           c32bf         1   UNL       c32        33    -0.02546       12.0110 ; qtot   -1.542
        34           c33bf         1   UNL       c33        34    -0.07530       12.0110 ; qtot   -1.617
        35           c34bf         1   UNL       c34        35    -0.07468       12.0110 ; qtot   -1.692
        36           c35bf         1   UNL       c35        36    -0.03236       12.0110 ; qtot   -1.724
        37           h36bf         1   UNL       h36        37     0.11597        1.0080 ; qtot   -1.608
        38           h37bf         1   UNL       h37        38     0.11305        1.0080 ; qtot   -1.495
        39           h38bf         1   UNL       h38        39     0.04999        1.0080 ; qtot   -1.445
        40           h39bf         1   UNL       h39        40     0.04999        1.0080 ; qtot   -1.395
        41           h40bf         1   UNL       h40        41     0.04213        1.0080 ; qtot   -1.353
        42           h41bf         1   UNL       h41        42     0.04213        1.0080 ; qtot   -1.311
        43           h42bf         1   UNL       h42        43     0.04184        1.0080 ; qtot   -1.269
        44           h43bf         1   UNL       h43        44     0.04184        1.0080 ; qtot   -1.227
        45           h44bf         1   UNL       h44        45     0.04874        1.0080 ; qtot   -1.178
        46           h45bf         1   UNL       h45        46     0.04874        1.0080 ; qtot   -1.130
        47           n46bf         1   UNL       n46        47    -0.23318       14.0070 ; qtot   -1.363
        48           h47bf         1   UNL       h47        48     0.36278        1.0080 ; qtot   -1.000

[ bonds ]
;       ai        aj funct               r               k
         1         2     1        0.126246   477087.239648
         2         3     1        0.126246   477087.239648
         2         4     1        0.153400   125645.617041
         4        11     1        0.138965   327323.865771
         4        47     1        0.138505   264560.367188
         5         6     1        0.140170   306119.305762
         5        10     1        0.143187   232474.419336
         5        47     1        0.137011   296448.938721
         6         7     1        0.139356   324716.603516
         6        20     1        0.108648   317710.778467
         7         8     1        0.141322   279766.924170
         7        21     1        0.108613   319631.935205
         8         9     1        0.139211   326075.535254
         8        22     1        0.108624   318958.700391
         9        10     1        0.140988   296604.944922
         9        23     1        0.108582   319566.943262
        10        11     1        0.144259   230612.483154
        11        12     1        0.150445   207387.031226
        12        13     1        0.154308   174656.935327
        12        24     1        0.109425   295733.261230
        12        25     1        0.109425   295733.235693
        13        14     1        0.152491   192580.410913
        13        26     1        0.109515   297660.291504
        13        27     1        0.109515   297660.291504
        14        15     1        0.143335   186987.171069
        14        28     1        0.109645   290824.977734
        14        29     1        0.109645   290824.977734
        15        16     1        0.137321   257073.678369
        16        19     1        0.139804   293489.008984
        16        32     1        0.141135   261148.328467
        17        18     1        0.139343   317721.887109
        17        31     1        0.140362   285530.343311
        17        38     1        0.108702   315390.400098
        18        19     1        0.139995   310738.534717
        18        37     1        0.108623   319340.531250
        19        30     1        0.108357   324261.838672
        31        32     1        0.140556   281301.755518
        31        36     1        0.151741   191998.573413
        32        33     1        0.151615   190368.858936
        33        34     1        0.153352   188689.104492
        33        39     1        0.109661   290529.002637
        33        40     1        0.109661   290529.002637
        34        35     1        0.153356   188110.025000
        34        41     1        0.109601   292827.444629
        34        42     1        0.109601   292827.444629
        35        36     1        0.153408   188347.175366
        35        43     1        0.109603   292817.434082
        35        44     1        0.109603   292817.434082
        36        45     1        0.109691   290077.634229
        36        46     1        0.109691   290077.634229
        47        48     1        0.101568   409831.840137

[ angles ]
;       ai        aj        ak funct           theta             cth
         1         2         3     1      129.890915      711.082981
         1         2         4     1      114.963943      332.710740
         2         4        11     1      135.663651      350.727714
         2         4        47     1      115.605225      381.001510
         3         2         4     1      114.963943      332.710740
         4        11        10     1      106.575829      405.326820
         4        11        12     1      127.327011      428.528720
         4        47         5     1      110.661705      412.354440
         4        47        48     1      117.847610      382.259468
         5         6         7     1      117.701210      791.646496
         5         6        20     1      121.289551      440.177345
         5        10         9     1      118.560951      742.089118
         5        10        11     1      107.585289      271.643946
         5        47        48     1      131.290939      307.571563
         6         5        10     1      122.120865      633.320696
         6         5        47     1      131.222183      478.691487
         6         7         8     1      121.218521      629.331416
         6         7        21     1      119.387344      434.126071
         7         6        20     1      121.092140      440.849832
         7         8         9     1      121.054970      638.915493
         7         8        22     1      119.239258      447.408528
         8         7        21     1      119.397072      440.561550
         8         9        10     1      119.297623      725.558372
         8         9        23     1      120.503197      431.554931
         9         8        22     1      119.770569      439.261009
         9        10        11     1      134.133453      413.767632
        10         5        47     1      106.946518      176.571539
        10         9        23     1      120.298561      433.490133
        10        11        12     1      125.788147      461.612620
        11         4        47     1      108.726097      284.224995
        11        12        13     1      112.795105      548.013662
        11        12        24     1      109.126892      490.517499
        11        12        25     1      109.126892      490.517563
        12        13        14     1      112.603127      591.876904
        12        13        26     1      109.495163      484.698613
        12        13        27     1      109.495163      484.698613
        13        12        24     1      108.936073      484.939652
        13        12        25     1      108.936073      484.939652
        13        14        15     1      109.466530      621.425255
        13        14        28     1      110.770493      493.988886
        13        14        29     1      110.770493      493.988886
        14        13        26     1      108.788368      510.681505
        14        13        27     1      108.788368      510.681505
        14        15        16     1      118.660133      518.056846
        15        14        28     1      108.878220      456.172034
        15        14        29     1      108.878220      456.172034
        15        16        19     1      123.980179      526.237499
        15        16        32     1      115.257370      488.205784
        16        19        18     1      119.373962      739.715444
        16        19        30     1      120.850609      431.469956
        16        32        31     1      118.774155      729.939264
        16        32        33     1      119.332962      466.686779
        17        18        19     1      120.308609      671.842276
        17        18        37     1      120.258934      437.097569
        17        31        32     1      119.839867      705.916505
        17        31        36     1      119.514404      449.192838
        18        17        31     1      120.605263      677.158144
        18        17        38     1      120.136757      442.402393
        18        19        30     1      119.748734      441.050203
        19        16        32     1      121.269760      640.755506
        19        18        37     1      119.430031      437.161348
        24        12        25     1      106.761887      356.396313
        26        13        27     1      107.020569      359.636781
        28        14        29     1      108.012817      344.441563
        31        17        38     1      119.236435      423.785904
        31        32        33     1      121.652328      490.984381
        31        36        35     1      112.883995      596.730806
        31        36        45     1      109.036781      480.357432
        31        36        46     1      109.036781      480.357432
        32        31        36     1      120.600426      494.098728
        32        33        34     1      112.785912      604.408666
        32        33        39     1      109.145058      467.876043
        32        33        40     1      109.145058      467.876043
        33        34        35     1      110.392189      612.038196
        33        34        41     1      109.618492      514.561262
        33        34        42     1      109.618492      514.561262
        34        33        39     1      109.742432      497.911131
        34        33        40     1      109.742432      497.911131
        34        35        36     1      110.319778      612.190334
        34        35        43     1      110.019127      505.884423
        34        35        44     1      110.019127      505.884423
        35        34        41     1      110.017677      505.075184
        35        34        42     1      110.017677      505.075184
        35        36        45     1      109.686752      503.651554
        35        36        46     1      109.686752      503.651554
        36        35        43     1      109.637131      513.499493
        36        35        44     1      109.637131      513.499493
        39        33        40     1      105.733200      368.377144
        41        34        42     1      106.875793      361.656479
        43        35        44     1      106.856911      361.911180
        45        36        46     1      106.028908      368.174922

[ dihedrals ] ; propers for gromacs 4.5 or higher, use funct 9
;       ai        aj        ak        al funct           phase               k        pn
         1         2         4        11     9        0.000000       -5.848196         1
         1         2         4        11     9      180.000000        2.034170         2
         1         2         4        11     9        0.000000       -0.165345         3
         1         2         4        11     9      180.000000        0.106470         4
         1         2         4        47     9        0.000000        6.314815         1
         1         2         4        47     9      180.000000        2.991276         2
         1         2         4        47     9        0.000000        0.807549         3
         1         2         4        47     9      180.000000        0.524419         4
         2         4        11        10     9        0.000000        0.407151         1
         2         4        11        10     9      180.000000       14.821666         2
         2         4        11        10     9        0.000000       -0.971338         3
         2         4        11        10     9      180.000000       -0.840499         4
         2         4        11        12     9        0.000000        0.171018         1
         2         4        11        12     9      180.000000       12.352449         2
         2         4        11        12     9        0.000000        0.301653         3
         2         4        11        12     9      180.000000       -0.783839         4
         2         4        47         5     9        0.000000       -0.541694         1
         2         4        47         5     9      180.000000        7.269044         2
         2         4        47         5     9        0.000000        0.535650         3
         2         4        47         5     9      180.000000       -0.257959         4
         2         4        47        48     9        0.000000       -0.060045         1
         2         4        47        48     9      180.000000        3.229365         2
         2         4        47        48     9        0.000000        0.283770         3
         2         4        47        48     9      180.000000        0.035855         4
         3         2         4        11     9        0.000000       -5.848196         1
         3         2         4        11     9      180.000000        2.034170         2
         3         2         4        11     9        0.000000       -0.165345         3
         3         2         4        11     9      180.000000        0.106470         4
         3         2         4        47     9        0.000000        6.314815         1
         3         2         4        47     9      180.000000        2.991276         2
         3         2         4        47     9        0.000000        0.807549         3
         3         2         4        47     9      180.000000        0.524419         4
         4        11        10         5     9        0.000000        0.059700         1
         4        11        10         5     9      180.000000       24.840541         2
         4        11        10         5     9        0.000000       -7.948559         3
         4        11        10         5     9      180.000000       -0.272064         4
         4        11        10         9     9        0.000000       -0.230767         1
         4        11        10         9     9      180.000000        4.359253         2
         4        11        10         9     9        0.000000       -0.639085         3
         4        11        10         9     9      180.000000        0.332474         4
         4        11        12        13     9        0.000000       -0.738084         1
         4        11        12        13     9      180.000000       -0.482783         2
         4        11        12        13     9        0.000000        0.120603         3
         4        11        12        13     9      180.000000       -0.049497         4
         4        11        12        24     9        0.000000        0.040229         1
         4        11        12        24     9      180.000000        0.070747         2
         4        11        12        24     9        0.000000       -0.344602         3
         4        11        12        24     9      180.000000        0.138806         4
         4        11        12        25     9        0.000000        0.040229         1
         4        11        12        25     9      180.000000        0.070747         2
         4        11        12        25     9        0.000000       -0.344602         3
         4        11        12        25     9      180.000000        0.138807         4
         4        47         5         6     9        0.000000        0.303827         1
         4        47         5         6     9      180.000000        4.550438         2
         4        47         5         6     9        0.000000        0.320222         3
         4        47         5         6     9      180.000000        0.136045         4
         4        47         5        10     9        0.000000       -0.267390         1
         4        47         5        10     9      180.000000       18.058715         2
         4        47         5        10     9        0.000000       -4.023647         3
         4        47         5        10     9      180.000000       -0.911935         4
         5         6         7         8     9        0.000000       -0.113626         1
         5         6         7         8     9      180.000000       21.530658         2
         5         6         7         8     9        0.000000       -1.714097         3
         5         6         7         8     9      180.000000       -0.570669         4
         5         6         7        21     9        0.000000        0.025567         1
         5         6         7        21     9      180.000000       16.325680         2
         5         6         7        21     9        0.000000       -0.701049         3
         5         6         7        21     9      180.000000       -0.066530         4
         5        10         9         8     9        0.000000        0.097901         1
         5        10         9         8     9      180.000000       19.194673         2
         5        10         9         8     9        0.000000       -1.707494         3
         5        10         9         8     9      180.000000       -0.440949         4
         5        10         9        23     9        0.000000        0.374264         1
         5        10         9        23     9      180.000000       13.045364         2
         5        10         9        23     9        0.000000       -0.146126         3
         5        10         9        23     9      180.000000        0.020637         4
         5        10        11        12     9        0.000000        1.148513         1
         5        10        11        12     9      180.000000       11.219891         2
         5        10        11        12     9        0.000000        0.713387         3
         5        10        11        12     9      180.000000       -0.325165         4
         5        47         4        11     9        0.000000       -0.001192         1
         5        47         4        11     9      180.000000       20.210571         2
         5        47         4        11     9        0.000000       -4.953607         3
         5        47         4        11     9      180.000000       -0.860756         4
         6         5        10         9     9        0.000000       -0.036515         1
         6         5        10         9     9      180.000000        9.944162         2
         6         5        10         9     9        0.000000       -1.355781         3
         6         5        10         9     9      180.000000        0.026608         4
         6         5        10        11     9        0.000000       -0.115361         1
         6         5        10        11     9      180.000000       10.689383         2
         6         5        10        11     9        0.000000       -2.544923         3
         6         5        10        11     9      180.000000        0.091706         4
         6         5        47        48     9        0.000000        0.027967         1
         6         5        47        48     9      180.000000        0.904266         2
         6         5        47        48     9        0.000000        0.266755         3
         6         5        47        48     9      180.000000       -0.055017         4
         6         7         8         9     9        0.000000        0.085716         1
         6         7         8         9     9      180.000000       17.178660         2
         6         7         8         9     9        0.000000       -1.420086         3
         6         7         8         9     9      180.000000       -0.309722         4
         6         7         8        22     9        0.000000        0.054101         1
         6         7         8        22     9      180.000000       13.653216         2
         6         7         8        22     9        0.000000       -0.711990         3
         6         7         8        22     9      180.000000        0.142296         4
         7         6         5        10     9        0.000000       -0.077956         1
         7         6         5        10     9      180.000000       17.305936         2
         7         6         5        10     9        0.000000       -1.495089         3
         7         6         5        10     9      180.000000       -0.342318         4
         7         6         5        47     9        0.000000        0.203655         1
         7         6         5        47     9      180.000000       16.361366         2
         7         6         5        47     9        0.000000       -0.221954         3
         7         6         5        47     9      180.000000       -0.348842         4
         7         8         9        10     9        0.000000       -0.127468         1
         7         8         9        10     9      180.000000       21.310594         2
         7         8         9        10     9        0.000000       -1.734983         3
         7         8         9        10     9      180.000000       -0.527673         4
         7         8         9        23     9        0.000000        0.032670         1
         7         8         9        23     9      180.000000       15.346209         2
         7         8         9        23     9        0.000000       -0.603448         3
         7         8         9        23     9      180.000000        0.127241         4
         8         7         6        20     9        0.000000        0.092707         1
         8         7         6        20     9      180.000000       14.929351         2
         8         7         6        20     9        0.000000       -0.522639         3
         8         7         6        20     9      180.000000        0.113419         4
         8         9        10        11     9        0.000000       -0.094464         1
         8         9        10        11     9      180.000000       14.058062         2
         8         9        10        11     9        0.000000       -0.928158         3
         8         9        10        11     9      180.000000       -0.193889         4
         9         8         7        21     9        0.000000        0.058801         1
         9         8         7        21     9      180.000000       13.405420         2
         9         8         7        21     9        0.000000       -0.757105         3
         9         8         7        21     9      180.000000        0.161000         4
         9        10         5        47     9        0.000000        0.098310         1
         9        10         5        47     9      180.000000       10.836978         2
         9        10         5        47     9        0.000000       -1.802469         3
         9        10         5        47     9      180.000000       -0.093939         4
         9        10        11        12     9        0.000000       -0.440081         1
         9        10        11        12     9      180.000000        5.384506         2
         9        10        11        12     9        0.000000        0.167749         3
         9        10        11        12     9      180.000000        0.241046         4
        10         5         6        20     9        0.000000        0.191640         1
        10         5         6        20     9      180.000000       11.778430         2
        10         5         6        20     9        0.000000       -0.112600         3
        10         5         6        20     9      180.000000       -0.028965         4
        10         5        47        48     9        0.000000        0.660544         1
        10         5        47        48     9      180.000000        1.565184         2
        10         5        47        48     9        0.000000        0.554703         3
        10         5        47        48     9      180.000000        0.160968         4
        10         9         8        22     9        0.000000        0.020216         1
        10         9         8        22     9      180.000000       16.122637         2
        10         9         8        22     9        0.000000       -0.557272         3
        10         9         8        22     9      180.000000       -0.082829         4
        10        11         4        47     9        0.000000       -0.269618         1
        10        11         4        47     9      180.000000       32.307342         2
        10        11         4        47     9        0.000000       -6.139104         3
        10        11         4        47     9      180.000000       -0.336367         4
        10        11        12        13     9        0.000000       -0.767895         1
        10        11        12        13     9      180.000000       -0.164027         2
        10        11        12        13     9        0.000000        0.271293         3
        10        11        12        13     9      180.000000        0.042790         4
        10        11        12        24     9        0.000000        0.085263         1
        10        11        12        24     9      180.000000        0.092043         2
        10        11        12        24     9        0.000000        0.301666         3
        10        11        12        24     9      180.000000        0.085541         4
        10        11        12        25     9        0.000000        0.085264         1
        10        11        12        25     9      180.000000        0.092043         2
        10        11        12        25     9        0.000000        0.301666         3
        10        11        12        25     9      180.000000        0.085541         4
        11         4        47        48     9        0.000000        2.056222         1
        11         4        47        48     9      180.000000        2.032207         2
        11         4        47        48     9        0.000000        0.994371         3
        11         4        47        48     9      180.000000        0.086240         4
        11        10         5        47     9        0.000000       -0.184496         1
        11        10         5        47     9      180.000000       20.114318         2
        11        10         5        47     9        0.000000       -6.567274         3
        11        10         5        47     9      180.000000       -0.385168         4
        11        10         9        23     9        0.000000       -0.083572         1
        11        10         9        23     9      180.000000       10.550966         2
        11        10         9        23     9        0.000000       -0.092864         3
        11        10         9        23     9      180.000000        0.077841         4
        11        12        13        14     9        0.000000       -1.075896         1
        11        12        13        14     9      180.000000       -0.199932         2
        11        12        13        14     9        0.000000        0.424801         3
        11        12        13        14     9      180.000000       -0.020336         4
        11        12        13        26     9        0.000000        0.173222         1
        11        12        13        26     9      180.000000        0.002079         2
        11        12        13        26     9        0.000000        0.596348         3
        11        12        13        26     9      180.000000        0.016806         4
        11        12        13        27     9        0.000000        0.173222         1
        11        12        13        27     9      180.000000        0.002079         2
        11        12        13        27     9        0.000000        0.596348         3
        11        12        13        27     9      180.000000        0.016806         4
        12        11         4        47     9        0.000000        0.597618         1
        12        11         4        47     9      180.000000       19.383907         2
        12        11         4        47     9        0.000000       -0.027506         3
        12        11         4        47     9      180.000000       -1.380854         4
        12        13        14        15     9        0.000000       -1.486898         1
        12        13        14        15     9      180.000000       -0.400123         2
        12        13        14        15     9        0.000000        0.459450         3
        12        13        14        15     9      180.000000        0.016946         4
        12        13        14        28     9        0.000000        0.054882         1
        12        13        14        28     9      180.000000        0.040229         2
        12        13        14        28     9        0.000000        0.649075         3
        12        13        14        28     9      180.000000        0.043691         4
        12        13        14        29     9        0.000000        0.054882         1
        12        13        14        29     9      180.000000        0.040229         2
        12        13        14        29     9        0.000000        0.649075         3
        12        13        14        29     9      180.000000        0.043691         4
        13        14        15        16     9        0.000000        0.027416         1
        13        14        15        16     9      180.000000        0.278780         2
        13        14        15        16     9        0.000000        0.639796         3
        13        14        15        16     9      180.000000        0.030843         4
        14        13        12        24     9        0.000000       -0.124945         1
        14        13        12        24     9      180.000000        0.053919         2
        14        13        12        24     9        0.000000        0.493720         3
        14        13        12        24     9      180.000000        0.024229         4
        14        13        12        25     9        0.000000       -0.124945         1
        14        13        12        25     9      180.000000        0.053918         2
        14        13        12        25     9        0.000000        0.493720         3
        14        13        12        25     9      180.000000        0.024229         4
        14        15        16        19     9        0.000000        0.911515         1
        14        15        16        19     9      180.000000        4.831542         2
        14        15        16        19     9        0.000000       -0.062445         3
        14        15        16        19     9      180.000000        0.230379         4
        14        15        16        32     9        0.000000       -1.029690         1
        14        15        16        32     9      180.000000        4.291732         2
        14        15        16        32     9        0.000000        0.654976         3
        14        15        16        32     9      180.000000        0.062426         4
        15        14        13        26     9        0.000000        0.052382         1
        15        14        13        26     9      180.000000        0.145069         2
        15        14        13        26     9        0.000000        0.472252         3
        15        14        13        26     9      180.000000        0.073290         4
        15        14        13        27     9        0.000000        0.052382         1
        15        14        13        27     9      180.000000        0.145069         2
        15        14        13        27     9        0.000000        0.472252         3
        15        14        13        27     9      180.000000        0.073290         4
        15        16        19        18     9        0.000000        0.550047         1
        15        16        19        18     9      180.000000       19.158077         2
        15        16        19        18     9        0.000000        0.549384         3
        15        16        19        18     9      180.000000       -0.351274         4
        15        16        19        30     9        0.000000        0.066972         1
        15        16        19        30     9      180.000000       14.009478         2
        15        16        19        30     9        0.000000        0.098684         3
        15        16        19        30     9      180.000000        0.257283         4
        15        16        32        31     9        0.000000        0.055743         1
        15        16        32        31     9      180.000000       17.061861         2
        15        16        32        31     9        0.000000        0.393105         3
        15        16        32        31     9      180.000000       -0.346881         4
        15        16        32        33     9        0.000000       -0.372612         1
        15        16        32        33     9      180.000000       16.611171         2
        15        16        32        33     9        0.000000       -0.120209         3
        15        16        32        33     9      180.000000       -0.164311         4
        16        15        14        28     9        0.000000       -0.118442         1
        16        15        14        28     9      180.000000       -0.024406         2
        16        15        14        28     9        0.000000        0.809738         3
        16        15        14        28     9      180.000000       -0.055180         4
        16        15        14        29     9        0.000000       -0.118442         1
        16        15        14        29     9      180.000000       -0.024406         2
        16        15        14        29     9        0.000000        0.809738         3
        16        15        14        29     9      180.000000       -0.055180         4
        16        19        18        17     9        0.000000       -0.010450         1
        16        19        18        17     9      180.000000       18.305233         2
        16        19        18        17     9        0.000000       -1.679916         3
        16        19        18        17     9      180.000000       -0.478952         4
        16        19        18        37     9        0.000000        0.097559         1
        16        19        18        37     9      180.000000       14.146743         2
        16        19        18        37     9        0.000000       -0.536068         3
        16        19        18        37     9      180.000000        0.037603         4
        16        32        31        17     9        0.000000       -0.122572         1
        16        32        31        17     9      180.000000       17.855018         2
        16        32        31        17     9        0.000000       -1.292406         3
        16        32        31        17     9      180.000000       -0.471549         4
        16        32        31        36     9        0.000000        0.065550         1
        16        32        31        36     9      180.000000       15.560128         2
        16        32        31        36     9        0.000000       -0.147617         3
        16        32        31        36     9      180.000000       -0.372867         4
        16        32        33        34     9        0.000000       -1.256335         1
        16        32        33        34     9      180.000000       -0.938066         2
        16        32        33        34     9        0.000000        0.100965         3
        16        32        33        34     9      180.000000        0.183756         4
        16        32        33        39     9        0.000000        0.021163         1
        16        32        33        39     9      180.000000        0.078059         2
        16        32        33        39     9        0.000000       -0.096110         3
        16        32        33        39     9      180.000000       -0.010950         4
        16        32        33        40     9        0.000000        0.021163         1
        16        32        33        40     9      180.000000        0.078059         2
        16        32        33        40     9        0.000000       -0.096110         3
        16        32        33        40     9      180.000000       -0.010950         4
        17        18        19        30     9        0.000000        0.081006         1
        17        18        19        30     9      180.000000       13.894728         2
        17        18        19        30     9        0.000000       -0.723870         3
        17        18        19        30     9      180.000000        0.197563         4
        17        31        32        33     9        0.000000        0.042128         1
        17        31        32        33     9      180.000000       15.743969         2
        17        31        32        33     9        0.000000       -0.191342         3
        17        31        32        33     9      180.000000       -0.313163         4
        17        31        36        35     9        0.000000       -0.789469         1
        17        31        36        35     9      180.000000       -0.918499         2
        17        31        36        35     9        0.000000       -0.199226         3
        17        31        36        35     9      180.000000        0.251233         4
        17        31        36        45     9        0.000000        0.032571         1
        17        31        36        45     9      180.000000        0.007453         2
        17        31        36        45     9        0.000000       -0.265494         3
        17        31        36        45     9      180.000000        0.008730         4
        17        31        36        46     9        0.000000        0.032571         1
        17        31        36        46     9      180.000000        0.007453         2
        17        31        36        46     9        0.000000       -0.265494         3
        17        31        36        46     9      180.000000        0.008730         4
        18        17        31        32     9        0.000000        0.032805         1
        18        17        31        32     9      180.000000       19.135812         2
        18        17        31        32     9        0.000000       -1.440379         3
        18        17        31        32     9      180.000000       -0.444498         4
        18        17        31        36     9        0.000000        0.086327         1
        18        17        31        36     9      180.000000       17.530154         2
        18        17        31        36     9        0.000000       -0.063984         3
        18        17        31        36     9      180.000000       -0.317254         4
        18        19        16        32     9        0.000000       -0.041180         1
        18        19        16        32     9      180.000000       16.353783         2
        18        19        16        32     9        0.000000       -1.002797         3
        18        19        16        32     9      180.000000       -0.291024         4
        19        16        32        31     9        0.000000       -0.125448         1
        19        16        32        31     9      180.000000       14.870128         2
        19        16        32        31     9        0.000000       -0.773371         3
        19        16        32        31     9      180.000000       -0.247808         4
        19        16        32        33     9        0.000000       -0.204513         1
        19        16        32        33     9      180.000000       12.740158         2
        19        16        32        33     9        0.000000       -0.193818         3
        19        16        32        33     9      180.000000       -0.067016         4
        19        18        17        31     9        0.000000        0.044977         1
        19        18        17        31     9      180.000000       18.828279         2
        19        18        17        31     9        0.000000       -1.705924         3
        19        18        17        31     9      180.000000       -0.388430         4
        19        18        17        38     9        0.000000        0.037753         1
        19        18        17        38     9      180.000000       15.005334         2
        19        18        17        38     9        0.000000       -0.693591         3
        19        18        17        38     9      180.000000        0.131222         4
        20         6         5        47     9        0.000000       -0.075257         1
        20         6         5        47     9      180.000000       11.465431         2
        20         6         5        47     9        0.000000       -0.064461         3
        20         6         5        47     9      180.000000        0.061567         4
        20         6         7        21     9        0.000000       -0.093298         1
        20         6         7        21     9      180.000000       12.220921         2
        20         6         7        21     9        0.000000       -0.649140         3
        20         6         7        21     9      180.000000        0.227120         4
        21         7         8        22     9        0.000000       -0.083847         1
        21         7         8        22     9      180.000000       10.869170         2
        21         7         8        22     9        0.000000       -0.488292         3
        21         7         8        22     9      180.000000        0.188957         4
        22         8         9        23     9        0.000000       -0.175108         1
        22         8         9        23     9      180.000000       12.479387         2
        22         8         9        23     9        0.000000       -0.668014         3
        22         8         9        23     9      180.000000        0.273644         4
        24        12        13        26     9        0.000000        0.021055         1
        24        12        13        26     9      180.000000        0.036953         2
        24        12        13        26     9        0.000000        0.611540         3
        24        12        13        26     9      180.000000       -0.014512         4
        24        12        13        27     9        0.000000        0.021055         1
        24        12        13        27     9      180.000000        0.036953         2
        24        12        13        27     9        0.000000        0.611540         3
        24        12        13        27     9      180.000000       -0.014512         4
        25        12        13        26     9        0.000000        0.021055         1
        25        12        13        26     9      180.000000        0.036953         2
        25        12        13        26     9        0.000000        0.611540         3
        25        12        13        26     9      180.000000       -0.014512         4
        25        12        13        27     9        0.000000        0.021055         1
        25        12        13        27     9      180.000000        0.036953         2
        25        12        13        27     9        0.000000        0.611540         3
        25        12        13        27     9      180.000000       -0.014512         4
        26        13        14        28     9        0.000000       -0.007957         1
        26        13        14        28     9      180.000000       -0.017145         2
        26        13        14        28     9        0.000000        0.669835         3
        26        13        14        28     9      180.000000       -0.049977         4
        26        13        14        29     9        0.000000       -0.007957         1
        26        13        14        29     9      180.000000       -0.017145         2
        26        13        14        29     9        0.000000        0.669835         3
        26        13        14        29     9      180.000000       -0.049977         4
        27        13        14        28     9        0.000000       -0.007957         1
        27        13        14        28     9      180.000000       -0.017145         2
        27        13        14        28     9        0.000000        0.669835         3
        27        13        14        28     9      180.000000       -0.049977         4
        27        13        14        29     9        0.000000       -0.007957         1
        27        13        14        29     9      180.000000       -0.017145         2
        27        13        14        29     9        0.000000        0.669835         3
        27        13        14        29     9      180.000000       -0.049977         4
        30        19        16        32     9        0.000000        0.059701         1
        30        19        16        32     9      180.000000       12.405085         2
        30        19        16        32     9        0.000000       -0.457976         3
        30        19        16        32     9      180.000000        0.178417         4
        30        19        18        37     9        0.000000       -0.146961         1
        30        19        18        37     9      180.000000       11.322459         2
        30        19        18        37     9        0.000000       -0.620456         3
        30        19        18        37     9      180.000000        0.283039         4
        31        17        18        37     9        0.000000       -0.011902         1
        31        17        18        37     9      180.000000       14.083288         2
        31        17        18        37     9        0.000000       -0.626316         3
        31        17        18        37     9      180.000000        0.141007         4
        31        32        33        34     9        0.000000        1.147517         1
        31        32        33        34     9      180.000000       -2.377496         2
        31        32        33        34     9        0.000000       -0.061845         3
        31        32        33        34     9      180.000000        0.490166         4
        31        32        33        39     9        0.000000       -0.035164         1
        31        32        33        39     9      180.000000        0.089103         2
        31        32        33        39     9        0.000000       -0.048847         3
        31        32        33        39     9      180.000000       -0.004391         4
        31        32        33        40     9        0.000000       -0.035164         1
        31        32        33        40     9      180.000000        0.089103         2
        31        32        33        40     9        0.000000       -0.048847         3
        31        32        33        40     9      180.000000       -0.004391         4
        31        36        35        34     9        0.000000        0.577978         1
        31        36        35        34     9      180.000000       -1.658839         2
        31        36        35        34     9        0.000000        0.413059         3
        31        36        35        34     9      180.000000        0.026405         4
        31        36        35        43     9        0.000000       -0.011165         1
        31        36        35        43     9      180.000000        0.042129         2
        31        36        35        43     9        0.000000        0.423829         3
        31        36        35        43     9      180.000000       -0.010172         4
        31        36        35        44     9        0.000000       -0.011165         1
        31        36        35        44     9      180.000000        0.042129         2
        31        36        35        44     9        0.000000        0.423829         3
        31        36        35        44     9      180.000000       -0.010172         4
        32        31        17        38     9        0.000000       -0.004474         1
        32        31        17        38     9      180.000000       14.916998         2
        32        31        17        38     9        0.000000       -0.464319         3
        32        31        17        38     9      180.000000       -0.038883         4
        32        31        36        35     9        0.000000        0.889496         1
        32        31        36        35     9      180.000000       -2.119843         2
        32        31        36        35     9        0.000000        0.037148         3
        32        31        36        35     9      180.000000        0.361742         4
        32        31        36        45     9        0.000000       -0.063647         1
        32        31        36        45     9      180.000000        0.044580         2
        32        31        36        45     9        0.000000        0.027563         3
        32        31        36        45     9      180.000000        0.002638         4
        32        31        36        46     9        0.000000       -0.063647         1
        32        31        36        46     9      180.000000        0.044580         2
        32        31        36        46     9        0.000000        0.027563         3
        32        31        36        46     9      180.000000        0.002638         4
        32        33        34        35     9        0.000000        0.308393         1
        32        33        34        35     9      180.000000       -1.626960         2
        32        33        34        35     9        0.000000        0.461431         3
        32        33        34        35     9      180.000000       -0.009100         4
        32        33        34        41     9        0.000000       -0.010702         1
        32        33        34        41     9      180.000000        0.053875         2
        32        33        34        41     9        0.000000        0.450780         3
        32        33        34        41     9      180.000000       -0.014427         4
        32        33        34        42     9        0.000000       -0.010702         1
        32        33        34        42     9      180.000000        0.053875         2
        32        33        34        42     9        0.000000        0.450780         3
        32        33        34        42     9      180.000000       -0.014427         4
        33        32        31        36     9        0.000000       -0.137772         1
        33        32        31        36     9      180.000000       14.564995         2
        33        32        31        36     9        0.000000        0.024029         3
        33        32        31        36     9      180.000000       -0.152361         4
        33        34        35        36     9        0.000000        0.245808         1
        33        34        35        36     9      180.000000       -0.734860         2
        33        34        35        36     9        0.000000       -0.002064         3
        33        34        35        36     9      180.000000        0.219104         4
        33        34        35        43     9        0.000000        0.005143         1
        33        34        35        43     9      180.000000        0.010822         2
        33        34        35        43     9        0.000000        0.177908         3
        33        34        35        43     9      180.000000        0.009719         4
        33        34        35        44     9        0.000000        0.005143         1
        33        34        35        44     9      180.000000        0.010822         2
        33        34        35        44     9        0.000000        0.177908         3
        33        34        35        44     9      180.000000        0.009719         4
        34        35        36        45     9        0.000000       -0.046856         1
        34        35        36        45     9      180.000000        0.031137         2
        34        35        36        45     9        0.000000        0.317105         3
        34        35        36        45     9      180.000000        0.016080         4
        34        35        36        46     9        0.000000       -0.046856         1
        34        35        36        46     9      180.000000        0.031137         2
        34        35        36        46     9        0.000000        0.317105         3
        34        35        36        46     9      180.000000        0.016080         4
        35        34        33        39     9        0.000000       -0.059481         1
        35        34        33        39     9      180.000000        0.038177         2
        35        34        33        39     9        0.000000        0.336677         3
        35        34        33        39     9      180.000000        0.018234         4
        35        34        33        40     9        0.000000       -0.059481         1
        35        34        33        40     9      180.000000        0.038177         2
        35        34        33        40     9        0.000000        0.336677         3
        35        34        33        40     9      180.000000        0.018234         4
        36        31        17        38     9        0.000000       -0.186091         1
        36        31        17        38     9      180.000000       13.431772         2
        36        31        17        38     9        0.000000       -0.493650         3
        36        31        17        38     9      180.000000        0.240299         4
        36        35        34        41     9        0.000000       -0.000910         1
        36        35        34        41     9      180.000000        0.028385         2
        36        35        34        41     9        0.000000        0.198512         3
        36        35        34        41     9      180.000000        0.006113         4
        36        35        34        42     9        0.000000       -0.000910         1
        36        35        34        42     9      180.000000        0.028385         2
        36        35        34        42     9        0.000000        0.198512         3
        36        35        34        42     9      180.000000        0.006113         4
        37        18        17        38     9        0.000000       -0.195884         1
        37        18        17        38     9      180.000000       11.489564         2
        37        18        17        38     9        0.000000       -0.662766         3
        37        18        17        38     9      180.000000        0.329853         4
        39        33        34        41     9        0.000000       -0.005442         1
        39        33        34        41     9      180.000000       -0.000370         2
        39        33        34        41     9        0.000000        0.386745         3
        39        33        34        41     9      180.000000       -0.003137         4
        39        33        34        42     9        0.000000       -0.005442         1
        39        33        34        42     9      180.000000       -0.000370         2
        39        33        34        42     9        0.000000        0.386745         3
        39        33        34        42     9      180.000000       -0.003137         4
        40        33        34        41     9        0.000000       -0.005442         1
        40        33        34        41     9      180.000000       -0.000370         2
        40        33        34        41     9        0.000000        0.386745         3
        40        33        34        41     9      180.000000       -0.003137         4
        40        33        34        42     9        0.000000       -0.005442         1
        40        33        34        42     9      180.000000       -0.000370         2
        40        33        34        42     9        0.000000        0.386745         3
        40        33        34        42     9      180.000000       -0.003137         4
        41        34        35        43     9        0.000000        0.008446         1
        41        34        35        43     9      180.000000        0.003884         2
        41        34        35        43     9        0.000000        0.268298         3
        41        34        35        43     9      180.000000       -0.010388         4
        41        34        35        44     9        0.000000        0.008446         1
        41        34        35        44     9      180.000000        0.003884         2
        41        34        35        44     9        0.000000        0.268298         3
        41        34        35        44     9      180.000000       -0.010388         4
        42        34        35        43     9        0.000000        0.008446         1
        42        34        35        43     9      180.000000        0.003884         2
        42        34        35        43     9        0.000000        0.268298         3
        42        34        35        43     9      180.000000       -0.010388         4
        42        34        35        44     9        0.000000        0.008446         1
        42        34        35        44     9      180.000000        0.003884         2
        42        34        35        44     9        0.000000        0.268298         3
        42        34        35        44     9      180.000000       -0.010388         4
        43        35        36        45     9        0.000000       -0.003508         1
        43        35        36        45     9      180.000000       -0.002808         2
        43        35        36        45     9        0.000000        0.372509         3
        43        35        36        45     9      180.000000       -0.002306         4
        43        35        36        46     9        0.000000       -0.003508         1
        43        35        36        46     9      180.000000       -0.002808         2
        43        35        36        46     9        0.000000        0.372509         3
        43        35        36        46     9      180.000000       -0.002306         4
        44        35        36        45     9        0.000000       -0.003508         1
        44        35        36        45     9      180.000000       -0.002808         2
        44        35        36        45     9        0.000000        0.372509         3
        44        35        36        45     9      180.000000       -0.002306         4
        44        35        36        46     9        0.000000       -0.003508         1
        44        35        36        46     9      180.000000       -0.002808         2
        44        35        36        46     9        0.000000        0.372509         3
        44        35        36        46     9      180.000000       -0.002306         4

[ dihedrals ] ; impropers
;       ai        aj        ak        al funct           phase               k        pn
         2         1         3         4     4      180.000000       27.893333         2
         2         3         4         1     4      180.000000       27.893333         2
         2         4         1         3     4      180.000000       27.893333         2

[ pairs ]
;       ai        aj funct
         1        11     1
         1        47     1
         2         5     1
         2        10     1
         2        12     1
         2        48     1
         3        11     1
         3        47     1
         4         6     1
         4         9     1
         4        13     1
         4        24     1
         4        25     1
         5         8     1
         5        12     1
         5        21     1
         5        23     1
         6         9     1
         6        11     1
         6        22     1
         6        48     1
         7        10     1
         7        23     1
         7        47     1
         8        11     1
         8        20     1
         9        12     1
         9        21     1
         9        47     1
        10        13     1
        10        20     1
        10        22     1
        10        24     1
        10        25     1
        10        48     1
        11        14     1
        11        23     1
        11        26     1
        11        27     1
        11        48     1
        12        15     1
        12        28     1
        12        29     1
        12        47     1
        13        16     1
        14        19     1
        14        24     1
        14        25     1
        14        32     1
        15        18     1
        15        26     1
        15        27     1
        15        30     1
        15        31     1
        15        33     1
        16        17     1
        16        28     1
        16        29     1
        16        34     1
        16        36     1
        16        37     1
        16        39     1
        16        40     1
        17        30     1
        17        33     1
        17        35     1
        17        45     1
        17        46     1
        18        32     1
        18        36     1
        19        31     1
        19        33     1
        19        38     1
        20        21     1
        20        47     1
        21        22     1
        22        23     1
        24        26     1
        24        27     1
        25        26     1
        25        27     1
        26        28     1
        26        29     1
        27        28     1
        27        29     1
        30        32     1
        30        37     1
        31        34     1
        31        37     1
        31        39     1
        31        40     1
        31        43     1
        31        44     1
        32        35     1
        32        38     1
        32        41     1
        32        42     1
        32        45     1
        32        46     1
        33        36     1
        33        43     1
        33        44     1
        34        45     1
        34        46     1
        35        39     1
        35        40     1
        36        38     1
        36        41     1
        36        42     1
        37        38     1
        39        41     1
        39        42     1
        40        41     1
        40        42     1
        41        43     1
        41        44     1
        42        43     1
        42        44     1
        43        45     1
        43        46     1
        44        45     1
        44        46     1
