; ITP file created by ByteFF-ML, 2026-02-21 08:19:21.539801

[ atomtypes ]
;name           bonded.type        at.num        mass        charge   ptype           sigma         epsilon
 o0bf                                   8      0.0000       0.00000       A     3.04351e-01     6.11346e-01
 c1bf                                   6      0.0000       0.00000       A     3.31270e-01     4.08495e-01
 o2bf                                   8      0.0000       0.00000       A     3.04351e-01     6.11346e-01
 c3bf                                   6      0.0000       0.00000       A     3.31436e-01     4.11412e-01
 c4bf                                   6      0.0000       0.00000       A     3.31603e-01     4.10673e-01
 c5bf                                   6      0.0000       0.00000       A     3.31431e-01     4.12629e-01
 c6bf                                   6      0.0000       0.00000       A     3.31489e-01     4.13382e-01
 c7bf                                   6      0.0000       0.00000       A     3.31504e-01     4.11863e-01
 c8bf                                   6      0.0000       0.00000       A     3.31376e-01     4.14747e-01
 c9bf                                   6      0.0000       0.00000       A     3.31079e-01     4.10977e-01
 c10bf                                  6      0.0000       0.00000       A     3.30790e-01     4.12512e-01
 c11bf                                  6      0.0000       0.00000       A     3.39738e-01     4.51222e-01
 c12bf                                  6      0.0000       0.00000       A     3.39825e-01     4.50762e-01
 c13bf                                  6      0.0000       0.00000       A     3.39714e-01     4.51040e-01
 o14bf                                  8      0.0000       0.00000       A     3.15822e-01     3.05272e-01
 c15bf                                  6      0.0000       0.00000       A     3.31432e-01     4.12981e-01
 c16bf                                  6      0.0000       0.00000       A     3.31554e-01     4.12571e-01
 c17bf                                  6      0.0000       0.00000       A     3.31461e-01     4.12386e-01
 c18bf                                  6      0.0000       0.00000       A     3.39791e-01     4.50449e-01
 c19bf                                  6      0.0000       0.00000       A     3.31555e-01     4.13380e-01
 cl20bf                                17      0.0000       0.00000       A     3.46762e-01     1.10618e+00
 c21bf                                  6      0.0000       0.00000       A     3.31461e-01     4.12384e-01
 c22bf                                  6      0.0000       0.00000       A     3.39791e-01     4.50449e-01
 c23bf                                  6      0.0000       0.00000       A     3.31554e-01     4.12571e-01
 h24bf                                  1      0.0000       0.00000       A     2.62509e-01     6.71594e-02
 h25bf                                  1      0.0000       0.00000       A     2.62473e-01     6.73541e-02
 h26bf                                  1      0.0000       0.00000       A     2.62503e-01     6.70796e-02
 cl27bf                                17      0.0000       0.00000       A     3.46683e-01     1.10233e+00
 h28bf                                  1      0.0000       0.00000       A     2.59715e-01     8.74790e-02
 h29bf                                  1      0.0000       0.00000       A     2.59715e-01     8.74790e-02
 h30bf                                  1      0.0000       0.00000       A     2.60066e-01     8.68629e-02
 h31bf                                  1      0.0000       0.00000       A     2.60066e-01     8.68629e-02
 h32bf                                  1      0.0000       0.00000       A     2.42089e-01     8.76721e-02
 h33bf                                  1      0.0000       0.00000       A     2.42089e-01     8.76721e-02
 h34bf                                  1      0.0000       0.00000       A     2.62480e-01     6.69854e-02
 h35bf                                  1      0.0000       0.00000       A     2.60015e-01     8.71198e-02
 h36bf                                  1      0.0000       0.00000       A     2.60015e-01     8.71198e-02
 h37bf                                  1      0.0000       0.00000       A     2.60015e-01     8.71198e-02
 h38bf                                  1      0.0000       0.00000       A     2.60015e-01     8.71198e-02
 h39bf                                  1      0.0000       0.00000       A     2.60015e-01     8.71198e-02
 h40bf                                  1      0.0000       0.00000       A     2.60015e-01     8.71198e-02
 h41bf                                  1      0.0000       0.00000       A     2.62480e-01     6.69854e-02
 n42bf                                  7      0.0000       0.00000       A     3.20440e-01     8.60047e-01
 h43bf                                  1      0.0000       0.00000       A     1.10720e-01     4.23341e-02

[ moleculetype ]
;name             nrexcl
 50                    3

[ atoms ]
;       nr            type      resi   res      atom      cgnr      charge          mass ; qtot
         1            o0bf         1   UNL        o0         1    -0.72437       15.9990 ; qtot   -0.724
         2            c1bf         1   UNL        c1         2     0.71392       12.0110 ; qtot   -0.010
         3            o2bf         1   UNL        o2         3    -0.72437       15.9990 ; qtot   -0.735
         4            c3bf         1   UNL        c3         4    -0.13241       12.0110 ; qtot   -0.867
         5            c4bf         1   UNL        c4         5    -0.06808       12.0110 ; qtot   -0.935
         6            c5bf         1   UNL        c5         6    -0.13563       12.0110 ; qtot   -1.071
         7            c6bf         1   UNL        c6         7    -0.08615       12.0110 ; qtot   -1.157
         8            c7bf         1   UNL        c7         8    -0.13615       12.0110 ; qtot   -1.293
         9            c8bf         1   UNL        c8         9     0.18061       12.0110 ; qtot   -1.113
        10            c9bf         1   UNL        c9        10    -0.09630       12.0110 ; qtot   -1.209
        11           c10bf         1   UNL       c10        11    -0.18112       12.0110 ; qtot   -1.390
        12           c11bf         1   UNL       c11        12    -0.01241       12.0110 ; qtot   -1.402
        13           c12bf         1   UNL       c12        13    -0.08875       12.0110 ; qtot   -1.491
        14           c13bf         1   UNL       c13        14     0.16317       12.0110 ; qtot   -1.328
        15           o14bf         1   UNL       o14        15    -0.35197       15.9990 ; qtot   -1.680
        16           c15bf         1   UNL       c15        16     0.14773       12.0110 ; qtot   -1.532
        17           c16bf         1   UNL       c16        17    -0.16892       12.0110 ; qtot   -1.701
        18           c17bf         1   UNL       c17        18    -0.02666       12.0110 ; qtot   -1.728
        19           c18bf         1   UNL       c18        19    -0.04881       12.0110 ; qtot   -1.777
        20           c19bf         1   UNL       c19        20     0.09092       12.0110 ; qtot   -1.686
        21          cl20bf         1   UNL      cl20        21    -0.22555       35.4530 ; qtot   -1.911
        22           c21bf         1   UNL       c21        22    -0.02666       12.0110 ; qtot   -1.938
        23           c22bf         1   UNL       c22        23    -0.04881       12.0110 ; qtot   -1.987
        24           c23bf         1   UNL       c23        24    -0.16892       12.0110 ; qtot   -2.156
        25           h24bf         1   UNL       h24        25     0.12050        1.0080 ; qtot   -2.035
        26           h25bf         1   UNL       h25        26     0.11924        1.0080 ; qtot   -1.916
        27           h26bf         1   UNL       h26        27     0.12994        1.0080 ; qtot   -1.786
        28          cl27bf         1   UNL      cl27        28    -0.21868       35.4530 ; qtot   -2.005
        29           h28bf         1   UNL       h28        29     0.05104        1.0080 ; qtot   -1.954
        30           h29bf         1   UNL       h29        30     0.05104        1.0080 ; qtot   -1.903
        31           h30bf         1   UNL       h30        31     0.05519        1.0080 ; qtot   -1.847
        32           h31bf         1   UNL       h31        32     0.05519        1.0080 ; qtot   -1.792
        33           h32bf         1   UNL       h32        33     0.04441        1.0080 ; qtot   -1.748
        34           h33bf         1   UNL       h33        34     0.04441        1.0080 ; qtot   -1.703
        35           h34bf         1   UNL       h34        35     0.12602        1.0080 ; qtot   -1.577
        36           h35bf         1   UNL       h35        36     0.05173        1.0080 ; qtot   -1.526
        37           h36bf         1   UNL       h36        37     0.05173        1.0080 ; qtot   -1.474
        38           h37bf         1   UNL       h37        38     0.05173        1.0080 ; qtot   -1.422
        39           h38bf         1   UNL       h38        39     0.05173        1.0080 ; qtot   -1.370
        40           h39bf         1   UNL       h39        40     0.05173        1.0080 ; qtot   -1.319
        41           h40bf         1   UNL       h40        41     0.05173        1.0080 ; qtot   -1.267
        42           h41bf         1   UNL       h41        42     0.12602        1.0080 ; qtot   -1.141
        43           n42bf         1   UNL       n42        43    -0.22404       14.0070 ; qtot   -1.365
        44           h43bf         1   UNL       h43        44     0.36503        1.0080 ; qtot   -1.000

[ bonds ]
;       ai        aj funct               r               k
         1         2     1        0.126246   477087.239648
         2         3     1        0.126246   477087.239648
         2         4     1        0.153632   123220.536523
         4        11     1        0.139168   322757.268799
         4        43     1        0.138185   268448.775146
         5         6     1        0.140022   307609.906836
         5        10     1        0.143817   223109.884717
         5        43     1        0.136705   301705.573926
         6         7     1        0.139079   331119.522949
         6        25     1        0.108604   319501.261816
         7         8     1        0.141005   284881.598584
         7        26     1        0.108562   321640.684229
         8         9     1        0.139081   314140.997021
         8        27     1        0.108432   324493.843311
         9        10     1        0.141196   268231.939551
         9        28     1        0.176123   141595.367749
        10        11     1        0.144898   219377.074365
        11        12     1        0.150723   203958.993506
        12        13     1        0.154264   175060.127979
        12        29     1        0.109301   298698.936816
        12        30     1        0.109301   298698.936816
        13        14     1        0.152499   192439.969580
        13        31     1        0.109516   297606.203906
        13        32     1        0.109516   297606.203906
        14        15     1        0.143236   188521.555518
        14        33     1        0.109678   290005.185449
        14        34     1        0.109678   290005.185449
        15        16     1        0.136766   267570.426270
        16        17     1        0.140055   290275.010547
        16        24     1        0.140055   290275.036084
        17        18     1        0.139982   300993.905762
        17        35     1        0.108463   321222.871582
        18        19     1        0.150871   204488.199023
        18        20     1        0.140338   274458.806152
        19        36     1        0.109363   302731.450684
        19        37     1        0.109363   302731.450684
        19        38     1        0.109363   302731.450684
        20        21     1        0.176898   133058.886670
        20        22     1        0.140338   274458.780615
        22        23     1        0.150871   204488.199023
        22        24     1        0.139982   300993.854687
        23        39     1        0.109363   302731.450684
        23        40     1        0.109363   302731.450684
        23        41     1        0.109363   302731.450684
        24        42     1        0.108463   321222.871582
        43        44     1        0.101599   409243.082080

[ angles ]
;       ai        aj        ak funct           theta             cth
         1         2         3     1      129.890915      711.082981
         1         2         4     1      114.925400      325.875924
         2         4        11     1      135.916565      338.073214
         2         4        43     1      114.957314      389.897521
         3         2         4     1      114.925400      325.875924
         4        11        10     1      106.436401      400.377792
         4        11        12     1      125.149536      431.312680
         4        43         5     1      110.906410      416.821966
         4        43        44     1      117.827652      383.631098
         5         6         7     1      117.675583      785.358877
         5         6        25     1      121.073387      444.697158
         5        10         9     1      116.025513      701.486965
         5        10        11     1      107.142990      264.173049
         5        43        44     1      131.096603      309.568533
         6         5        10     1      123.377747      615.739417
         6         5        43     1      130.000458      481.517520
         6         7         8     1      121.226318      621.415167
         6         7        26     1      119.774452      435.054632
         7         6        25     1      121.237961      442.573013
         7         8         9     1      120.701988      573.804419
         7         8        27     1      120.055893      439.481810
         8         7        26     1      118.897095      443.634558
         8         9        10     1      121.070168      652.245673
         8         9        28     1      117.405777      389.797799
         9         8        27     1      119.260757      412.775260
         9        10        11     1      137.168945      370.938548
        10         5        43     1      107.206566      179.114827
        10         9        28     1      121.505043      334.603232
        10        11        12     1      128.444016      440.146700
        11         4        43     1      108.836197      298.014332
        11        12        13     1      112.774147      546.339194
        11        12        29     1      109.158981      482.685012
        11        12        30     1      109.158981      482.685012
        12        13        14     1      112.566444      589.440791
        12        13        31     1      109.474869      483.077645
        12        13        32     1      109.474869      483.077645
        13        12        29     1      109.014809      482.859814
        13        12        30     1      109.014809      482.859814
        13        14        15     1      109.552856      621.752640
        13        14        33     1      110.734940      494.618216
        13        14        34     1      110.734940      494.618152
        14        13        31     1      108.792709      511.357823
        14        13        32     1      108.792709      511.357823
        14        15        16     1      118.844559      525.993364
        15        14        33     1      108.915588      459.732418
        15        14        34     1      108.915588      459.732418
        15        16        17     1      120.182823      539.222640
        15        16        24     1      120.182823      539.222640
        16        17        18     1      121.024536      726.137171
        16        17        35     1      119.719345      439.110787
        16        24        22     1      121.024536      726.137171
        16        24        42     1      119.719345      439.110787
        17        16        24     1      119.664146      578.709140
        17        18        19     1      120.321632      419.261047
        17        18        20     1      117.928101      622.323842
        18        17        35     1      119.245934      407.396315
        18        19        36     1      111.015518      475.802219
        18        19        37     1      111.015518      475.802219
        18        19        38     1      111.015518      475.802219
        18        20        21     1      118.560402      387.794126
        18        20        22     1      122.675980      600.905996
        19        18        20     1      121.863098      370.480189
        20        22        23     1      121.863098      370.480157
        20        22        24     1      117.928101      622.323842
        21        20        22     1      118.560402      387.794189
        22        23        39     1      111.015518      475.802219
        22        23        40     1      111.015518      475.802219
        22        23        41     1      111.015518      475.802219
        22        24        42     1      119.245934      407.396347
        23        22        24     1      120.321640      419.261079
        29        12        30     1      106.899391      354.620335
        31        13        32     1      107.017380      359.666787
        33        14        34     1      107.963120      344.594179
        36        19        37     1      107.895142      356.831338
        36        19        38     1      107.895142      356.831338
        37        19        38     1      107.895142      356.831338
        39        23        40     1      107.895142      356.831306
        39        23        41     1      107.895142      356.831306
        40        23        41     1      107.895142      356.831306

[ dihedrals ] ; propers for gromacs 4.5 or higher, use funct 9
;       ai        aj        ak        al funct           phase               k        pn
         1         2         4        11     9        0.000000       -6.114666         1
         1         2         4        11     9      180.000000        1.771433         2
         1         2         4        11     9        0.000000       -0.190207         3
         1         2         4        11     9      180.000000        0.057838         4
         1         2         4        43     9        0.000000        7.952103         1
         1         2         4        43     9      180.000000        2.645095         2
         1         2         4        43     9        0.000000        0.995236         3
         1         2         4        43     9      180.000000        0.519271         4
         2         4        11        10     9        0.000000       -0.523194         1
         2         4        11        10     9      180.000000       14.988326         2
         2         4        11        10     9        0.000000       -0.876560         3
         2         4        11        10     9      180.000000       -1.034357         4
         2         4        11        12     9        0.000000       -0.089500         1
         2         4        11        12     9      180.000000       12.713656         2
         2         4        11        12     9        0.000000        0.323072         3
         2         4        11        12     9      180.000000       -0.888774         4
         2         4        43         5     9        0.000000       -0.062615         1
         2         4        43         5     9      180.000000        7.885534         2
         2         4        43         5     9        0.000000        0.420659         3
         2         4        43         5     9      180.000000       -0.268097         4
         2         4        43        44     9        0.000000       -0.032070         1
         2         4        43        44     9      180.000000        3.232305         2
         2         4        43        44     9        0.000000        0.282624         3
         2         4        43        44     9      180.000000        0.048819         4
         3         2         4        11     9        0.000000       -6.114666         1
         3         2         4        11     9      180.000000        1.771433         2
         3         2         4        11     9        0.000000       -0.190207         3
         3         2         4        11     9      180.000000        0.057838         4
         3         2         4        43     9        0.000000        7.952103         1
         3         2         4        43     9      180.000000        2.645095         2
         3         2         4        43     9        0.000000        0.995236         3
         3         2         4        43     9      180.000000        0.519271         4
         4        11        10         5     9        0.000000        0.676068         1
         4        11        10         5     9      180.000000       24.526710         2
         4        11        10         5     9        0.000000       -8.685983         3
         4        11        10         5     9      180.000000       -0.377015         4
         4        11        10         9     9        0.000000        0.186481         1
         4        11        10         9     9      180.000000        4.117664         2
         4        11        10         9     9        0.000000       -0.293060         3
         4        11        10         9     9      180.000000        0.342062         4
         4        11        12        13     9        0.000000       -1.126017         1
         4        11        12        13     9      180.000000       -1.494740         2
         4        11        12        13     9        0.000000        0.059888         3
         4        11        12        13     9      180.000000        0.037979         4
         4        11        12        29     9        0.000000       -0.105404         1
         4        11        12        29     9      180.000000        0.170819         2
         4        11        12        29     9        0.000000       -0.503939         3
         4        11        12        29     9      180.000000        0.188108         4
         4        11        12        30     9        0.000000       -0.105404         1
         4        11        12        30     9      180.000000        0.170819         2
         4        11        12        30     9        0.000000       -0.503939         3
         4        11        12        30     9      180.000000        0.188108         4
         4        43         5         6     9        0.000000        0.418442         1
         4        43         5         6     9      180.000000        4.857953         2
         4        43         5         6     9        0.000000        0.195338         3
         4        43         5         6     9      180.000000        0.121863         4
         4        43         5        10     9        0.000000       -1.151088         1
         4        43         5        10     9      180.000000       18.628723         2
         4        43         5        10     9        0.000000       -3.977587         3
         4        43         5        10     9      180.000000       -0.882037         4
         5         6         7         8     9        0.000000       -0.172081         1
         5         6         7         8     9      180.000000       21.409935         2
         5         6         7         8     9        0.000000       -1.724013         3
         5         6         7         8     9      180.000000       -0.579076         4
         5         6         7        26     9        0.000000       -0.055123         1
         5         6         7        26     9      180.000000       16.053016         2
         5         6         7        26     9        0.000000       -0.696365         3
         5         6         7        26     9      180.000000       -0.060829         4
         5        10         9         8     9        0.000000        0.187133         1
         5        10         9         8     9      180.000000       15.170912         2
         5        10         9         8     9        0.000000       -1.190955         3
         5        10         9         8     9      180.000000       -0.244518         4
         5        10         9        28     9        0.000000        0.610181         1
         5        10         9        28     9      180.000000       14.847954         2
         5        10         9        28     9        0.000000        0.394895         3
         5        10         9        28     9      180.000000       -0.776265         4
         5        10        11        12     9        0.000000        1.002341         1
         5        10        11        12     9      180.000000       11.086028         2
         5        10        11        12     9        0.000000        0.543289         3
         5        10        11        12     9      180.000000       -0.429827         4
         5        43         4        11     9        0.000000       -0.105947         1
         5        43         4        11     9      180.000000       20.055002         2
         5        43         4        11     9        0.000000       -5.011511         3
         5        43         4        11     9      180.000000       -0.814670         4
         6         5        10         9     9        0.000000       -0.031686         1
         6         5        10         9     9      180.000000       10.435074         2
         6         5        10         9     9        0.000000       -1.246580         3
         6         5        10         9     9      180.000000       -0.076529         4
         6         5        10        11     9        0.000000       -0.012648         1
         6         5        10        11     9      180.000000       10.773008         2
         6         5        10        11     9        0.000000       -1.872167         3
         6         5        10        11     9      180.000000       -0.049377         4
         6         5        43        44     9        0.000000       -0.160025         1
         6         5        43        44     9      180.000000        1.153452         2
         6         5        43        44     9        0.000000        0.242031         3
         6         5        43        44     9      180.000000       -0.009778         4
         6         7         8         9     9        0.000000        0.049440         1
         6         7         8         9     9      180.000000       17.094088         2
         6         7         8         9     9        0.000000       -1.546317         3
         6         7         8         9     9      180.000000       -0.310122         4
         6         7         8        27     9        0.000000        0.106687         1
         6         7         8        27     9      180.000000       13.663332         2
         6         7         8        27     9        0.000000       -0.736803         3
         6         7         8        27     9      180.000000        0.165884         4
         7         6         5        10     9        0.000000       -0.105647         1
         7         6         5        10     9      180.000000       17.645087         2
         7         6         5        10     9        0.000000       -1.544526         3
         7         6         5        10     9      180.000000       -0.481200         4
         7         6         5        43     9        0.000000        0.136225         1
         7         6         5        43     9      180.000000       16.337743         2
         7         6         5        43     9        0.000000       -0.254577         3
         7         6         5        43     9      180.000000       -0.285106         4
         7         8         9        10     9        0.000000        0.052502         1
         7         8         9        10     9      180.000000       20.128350         2
         7         8         9        10     9        0.000000       -1.438789         3
         7         8         9        10     9      180.000000       -0.495717         4
         7         8         9        28     9        0.000000        0.395420         1
         7         8         9        28     9      180.000000       21.394070         2
         7         8         9        28     9        0.000000        0.325745         3
         7         8         9        28     9      180.000000       -0.781245         4
         8         7         6        25     9        0.000000        0.101560         1
         8         7         6        25     9      180.000000       14.892114         2
         8         7         6        25     9        0.000000       -0.522620         3
         8         7         6        25     9      180.000000        0.087772         4
         8         9        10        11     9        0.000000       -0.120008         1
         8         9        10        11     9      180.000000       11.148702         2
         8         9        10        11     9        0.000000       -0.206371         3
         8         9        10        11     9      180.000000       -0.387990         4
         9         8         7        26     9        0.000000        0.066564         1
         9         8         7        26     9      180.000000       12.845515         2
         9         8         7        26     9        0.000000       -0.672103         3
         9         8         7        26     9      180.000000        0.179044         4
         9        10         5        43     9        0.000000        0.606792         1
         9        10         5        43     9      180.000000       12.707866         2
         9        10         5        43     9        0.000000       -1.711943         3
         9        10         5        43     9      180.000000       -0.460367         4
         9        10        11        12     9        0.000000        0.192911         1
         9        10        11        12     9      180.000000        4.984303         2
         9        10        11        12     9        0.000000        0.676369         3
         9        10        11        12     9      180.000000       -0.134826         4
        10         5         6        25     9        0.000000        0.179763         1
        10         5         6        25     9      180.000000       11.650255         2
        10         5         6        25     9        0.000000       -0.201133         3
        10         5         6        25     9      180.000000       -0.035766         4
        10         5        43        44     9        0.000000        1.131310         1
        10         5        43        44     9      180.000000        1.571262         2
        10         5        43        44     9        0.000000        0.560359         3
        10         5        43        44     9      180.000000        0.258678         4
        10         9         8        27     9        0.000000        0.034703         1
        10         9         8        27     9      180.000000       14.967351         2
        10         9         8        27     9        0.000000       -0.515968         3
        10         9         8        27     9      180.000000        0.017537         4
        10        11         4        43     9        0.000000       -0.249325         1
        10        11         4        43     9      180.000000       30.738540         2
        10        11         4        43     9        0.000000       -6.157753         3
        10        11         4        43     9      180.000000       -0.273028         4
        10        11        12        13     9        0.000000        1.919666         1
        10        11        12        13     9      180.000000       -2.946934         2
        10        11        12        13     9        0.000000        0.845622         3
        10        11        12        13     9      180.000000        0.025501         4
        10        11        12        29     9        0.000000       -0.249688         1
        10        11        12        29     9      180.000000        0.097272         2
        10        11        12        29     9        0.000000        0.260879         3
        10        11        12        29     9      180.000000        0.177660         4
        10        11        12        30     9        0.000000       -0.249688         1
        10        11        12        30     9      180.000000        0.097272         2
        10        11        12        30     9        0.000000        0.260879         3
        10        11        12        30     9      180.000000        0.177660         4
        11         4        43        44     9        0.000000        1.864403         1
        11         4        43        44     9      180.000000        1.899383         2
        11         4        43        44     9        0.000000        0.786041         3
        11         4        43        44     9      180.000000        0.112762         4
        11        10         5        43     9        0.000000       -0.324434         1
        11        10         5        43     9      180.000000       19.614070         2
        11        10         5        43     9        0.000000       -5.770084         3
        11        10         5        43     9      180.000000       -0.375724         4
        11        10         9        28     9        0.000000       -0.105177         1
        11        10         9        28     9      180.000000       11.480788         2
        11        10         9        28     9        0.000000        0.441036         3
        11        10         9        28     9      180.000000       -0.624989         4
        11        12        13        14     9        0.000000       -1.100669         1
        11        12        13        14     9      180.000000        0.079174         2
        11        12        13        14     9        0.000000        0.414964         3
        11        12        13        14     9      180.000000       -0.066189         4
        11        12        13        31     9        0.000000        0.110807         1
        11        12        13        31     9      180.000000       -0.021692         2
        11        12        13        31     9        0.000000        0.565487         3
        11        12        13        31     9      180.000000        0.007915         4
        11        12        13        32     9        0.000000        0.110807         1
        11        12        13        32     9      180.000000       -0.021692         2
        11        12        13        32     9        0.000000        0.565487         3
        11        12        13        32     9      180.000000        0.007915         4
        12        11         4        43     9        0.000000        0.258913         1
        12        11         4        43     9      180.000000       18.860981         2
        12        11         4        43     9        0.000000       -0.370919         3
        12        11         4        43     9      180.000000       -1.303884         4
        12        13        14        15     9        0.000000       -1.268872         1
        12        13        14        15     9      180.000000       -0.287789         2
        12        13        14        15     9        0.000000        0.467561         3
        12        13        14        15     9      180.000000        0.005199         4
        12        13        14        33     9        0.000000        0.011050         1
        12        13        14        33     9      180.000000        0.038668         2
        12        13        14        33     9        0.000000        0.649410         3
        12        13        14        33     9      180.000000        0.041708         4
        12        13        14        34     9        0.000000        0.011050         1
        12        13        14        34     9      180.000000        0.038668         2
        12        13        14        34     9        0.000000        0.649409         3
        12        13        14        34     9      180.000000        0.041707         4
        13        14        15        16     9        0.000000        0.351537         1
        13        14        15        16     9      180.000000        0.157599         2
        13        14        15        16     9        0.000000        0.685578         3
        13        14        15        16     9      180.000000        0.026758         4
        14        13        12        29     9        0.000000       -0.128585         1
        14        13        12        29     9      180.000000        0.046057         2
        14        13        12        29     9        0.000000        0.490619         3
        14        13        12        29     9      180.000000        0.019658         4
        14        13        12        30     9        0.000000       -0.128585         1
        14        13        12        30     9      180.000000        0.046057         2
        14        13        12        30     9        0.000000        0.490619         3
        14        13        12        30     9      180.000000        0.019658         4
        14        15        16        17     9        0.000000       -0.137734         1
        14        15        16        17     9      180.000000        5.126576         2
        14        15        16        17     9        0.000000        0.103179         3
        14        15        16        17     9      180.000000        0.346239         4
        14        15        16        24     9        0.000000       -0.137734         1
        14        15        16        24     9      180.000000        5.126576         2
        14        15        16        24     9        0.000000        0.103180         3
        14        15        16        24     9      180.000000        0.346240         4
        15        14        13        31     9        0.000000        0.058555         1
        15        14        13        31     9      180.000000        0.166947         2
        15        14        13        31     9        0.000000        0.483446         3
        15        14        13        31     9      180.000000        0.072634         4
        15        14        13        32     9        0.000000        0.058555         1
        15        14        13        32     9      180.000000        0.166947         2
        15        14        13        32     9        0.000000        0.483446         3
        15        14        13        32     9      180.000000        0.072634         4
        15        16        17        18     9        0.000000        0.301612         1
        15        16        17        18     9      180.000000       16.852349         2
        15        16        17        18     9        0.000000        0.363219         3
        15        16        17        18     9      180.000000       -0.324670         4
        15        16        17        35     9        0.000000        0.077569         1
        15        16        17        35     9      180.000000       12.867848         2
        15        16        17        35     9        0.000000       -0.083698         3
        15        16        17        35     9      180.000000        0.318108         4
        15        16        24        22     9        0.000000        0.301612         1
        15        16        24        22     9      180.000000       16.852349         2
        15        16        24        22     9        0.000000        0.363218         3
        15        16        24        22     9      180.000000       -0.324669         4
        15        16        24        42     9        0.000000        0.077569         1
        15        16        24        42     9      180.000000       12.867847         2
        15        16        24        42     9        0.000000       -0.083698         3
        15        16        24        42     9      180.000000        0.318108         4
        16        15        14        33     9        0.000000       -0.180130         1
        16        15        14        33     9      180.000000        0.036843         2
        16        15        14        33     9        0.000000        0.827393         3
        16        15        14        33     9      180.000000       -0.048875         4
        16        15        14        34     9        0.000000       -0.180129         1
        16        15        14        34     9      180.000000        0.036843         2
        16        15        14        34     9        0.000000        0.827393         3
        16        15        14        34     9      180.000000       -0.048875         4
        16        17        18        19     9        0.000000        0.079422         1
        16        17        18        19     9      180.000000       16.350832         2
        16        17        18        19     9        0.000000       -0.049451         3
        16        17        18        19     9      180.000000       -0.286105         4
        16        17        18        20     9        0.000000       -0.118684         1
        16        17        18        20     9      180.000000       18.963111         2
        16        17        18        20     9        0.000000       -1.419004         3
        16        17        18        20     9      180.000000       -0.550490         4
        16        24        22        20     9        0.000000       -0.118683         1
        16        24        22        20     9      180.000000       18.963111         2
        16        24        22        20     9        0.000000       -1.419004         3
        16        24        22        20     9      180.000000       -0.550490         4
        16        24        22        23     9        0.000000        0.079421         1
        16        24        22        23     9      180.000000       16.350834         2
        16        24        22        23     9        0.000000       -0.049451         3
        16        24        22        23     9      180.000000       -0.286105         4
        17        16        24        22     9        0.000000       -0.103052         1
        17        16        24        22     9      180.000000       15.653163         2
        17        16        24        22     9        0.000000       -1.003742         3
        17        16        24        22     9      180.000000       -0.230044         4
        17        16        24        42     9        0.000000        0.054560         1
        17        16        24        42     9      180.000000       12.313194         2
        17        16        24        42     9        0.000000       -0.472029         3
        17        16        24        42     9      180.000000        0.201015         4
        17        18        19        36     9        0.000000       -0.020053         1
        17        18        19        36     9      180.000000        0.002010         2
        17        18        19        36     9        0.000000       -0.133025         3
        17        18        19        36     9      180.000000        0.002394         4
        17        18        19        37     9        0.000000       -0.020053         1
        17        18        19        37     9      180.000000        0.002010         2
        17        18        19        37     9        0.000000       -0.133025         3
        17        18        19        37     9      180.000000        0.002394         4
        17        18        19        38     9        0.000000       -0.020053         1
        17        18        19        38     9      180.000000        0.002010         2
        17        18        19        38     9        0.000000       -0.133025         3
        17        18        19        38     9      180.000000        0.002394         4
        17        18        20        21     9        0.000000        0.212531         1
        17        18        20        21     9      180.000000       18.642595         2
        17        18        20        21     9        0.000000        0.197826         3
        17        18        20        21     9      180.000000       -0.606702         4
        17        18        20        22     9        0.000000       -0.076351         1
        17        18        20        22     9      180.000000       17.006314         2
        17        18        20        22     9        0.000000       -1.141110         3
        17        18        20        22     9      180.000000       -0.339527         4
        18        17        16        24     9        0.000000       -0.103051         1
        18        17        16        24     9      180.000000       15.653161         2
        18        17        16        24     9        0.000000       -1.003742         3
        18        17        16        24     9      180.000000       -0.230044         4
        18        20        22        23     9        0.000000        0.210009         1
        18        20        22        23     9      180.000000       13.888542         2
        18        20        22        23     9        0.000000       -0.204866         3
        18        20        22        23     9      180.000000       -0.185053         4
        18        20        22        24     9        0.000000       -0.076352         1
        18        20        22        24     9      180.000000       17.006314         2
        18        20        22        24     9        0.000000       -1.141110         3
        18        20        22        24     9      180.000000       -0.339527         4
        19        18        17        35     9        0.000000       -0.123001         1
        19        18        17        35     9      180.000000       13.141090         2
        19        18        17        35     9        0.000000       -0.476172         3
        19        18        17        35     9      180.000000        0.276766         4
        19        18        20        21     9        0.000000       -0.154583         1
        19        18        20        21     9      180.000000       16.420763         2
        19        18        20        21     9        0.000000       -0.142787         3
        19        18        20        21     9      180.000000       -0.451462         4
        19        18        20        22     9        0.000000        0.210008         1
        19        18        20        22     9      180.000000       13.888543         2
        19        18        20        22     9        0.000000       -0.204866         3
        19        18        20        22     9      180.000000       -0.185053         4
        20        18        17        35     9        0.000000        0.145215         1
        20        18        17        35     9      180.000000       13.905366         2
        20        18        17        35     9        0.000000       -0.387717         3
        20        18        17        35     9      180.000000        0.192985         4
        20        18        19        36     9        0.000000       -0.013438         1
        20        18        19        36     9      180.000000       -0.011171         2
        20        18        19        36     9        0.000000        0.211639         3
        20        18        19        36     9      180.000000        0.022789         4
        20        18        19        37     9        0.000000       -0.013438         1
        20        18        19        37     9      180.000000       -0.011171         2
        20        18        19        37     9        0.000000        0.211639         3
        20        18        19        37     9      180.000000        0.022789         4
        20        18        19        38     9        0.000000       -0.013438         1
        20        18        19        38     9      180.000000       -0.011171         2
        20        18        19        38     9        0.000000        0.211639         3
        20        18        19        38     9      180.000000        0.022789         4
        20        22        23        39     9        0.000000       -0.013439         1
        20        22        23        39     9      180.000000       -0.011173         2
        20        22        23        39     9        0.000000        0.211639         3
        20        22        23        39     9      180.000000        0.022789         4
        20        22        23        40     9        0.000000       -0.013439         1
        20        22        23        40     9      180.000000       -0.011173         2
        20        22        23        40     9        0.000000        0.211639         3
        20        22        23        40     9      180.000000        0.022789         4
        20        22        23        41     9        0.000000       -0.013439         1
        20        22        23        41     9      180.000000       -0.011173         2
        20        22        23        41     9        0.000000        0.211639         3
        20        22        23        41     9      180.000000        0.022789         4
        20        22        24        42     9        0.000000        0.145215         1
        20        22        24        42     9      180.000000       13.905366         2
        20        22        24        42     9        0.000000       -0.387717         3
        20        22        24        42     9      180.000000        0.192985         4
        21        20        22        23     9        0.000000       -0.154582         1
        21        20        22        23     9      180.000000       16.420766         2
        21        20        22        23     9        0.000000       -0.142788         3
        21        20        22        23     9      180.000000       -0.451462         4
        21        20        22        24     9        0.000000        0.212531         1
        21        20        22        24     9      180.000000       18.642597         2
        21        20        22        24     9        0.000000        0.197826         3
        21        20        22        24     9      180.000000       -0.606702         4
        23        22        24        42     9        0.000000       -0.123001         1
        23        22        24        42     9      180.000000       13.141090         2
        23        22        24        42     9        0.000000       -0.476172         3
        23        22        24        42     9      180.000000        0.276766         4
        24        16        17        35     9        0.000000        0.054561         1
        24        16        17        35     9      180.000000       12.313196         2
        24        16        17        35     9        0.000000       -0.472030         3
        24        16        17        35     9      180.000000        0.201016         4
        24        22        23        39     9        0.000000       -0.020052         1
        24        22        23        39     9      180.000000        0.002010         2
        24        22        23        39     9        0.000000       -0.133024         3
        24        22        23        39     9      180.000000        0.002394         4
        24        22        23        40     9        0.000000       -0.020052         1
        24        22        23        40     9      180.000000        0.002010         2
        24        22        23        40     9        0.000000       -0.133024         3
        24        22        23        40     9      180.000000        0.002394         4
        24        22        23        41     9        0.000000       -0.020052         1
        24        22        23        41     9      180.000000        0.002010         2
        24        22        23        41     9        0.000000       -0.133024         3
        24        22        23        41     9      180.000000        0.002394         4
        25         6         5        43     9        0.000000        0.015711         1
        25         6         5        43     9      180.000000       12.210334         2
        25         6         5        43     9        0.000000       -0.112925         3
        25         6         5        43     9      180.000000        0.045580         4
        25         6         7        26     9        0.000000       -0.098050         1
        25         6         7        26     9      180.000000       12.368594         2
        25         6         7        26     9        0.000000       -0.657892         3
        25         6         7        26     9      180.000000        0.228481         4
        26         7         8        27     9        0.000000       -0.211409         1
        26         7         8        27     9      180.000000       11.003292         2
        26         7         8        27     9        0.000000       -0.633656         3
        26         7         8        27     9      180.000000        0.180394         4
        27         8         9        28     9        0.000000        0.016376         1
        27         8         9        28     9      180.000000       14.950097         2
        27         8         9        28     9        0.000000       -0.050061         3
        27         8         9        28     9      180.000000        0.163362         4
        29        12        13        31     9        0.000000        0.006022         1
        29        12        13        31     9      180.000000        0.044110         2
        29        12        13        31     9        0.000000        0.613738         3
        29        12        13        31     9      180.000000        0.003162         4
        29        12        13        32     9        0.000000        0.006022         1
        29        12        13        32     9      180.000000        0.044110         2
        29        12        13        32     9        0.000000        0.613738         3
        29        12        13        32     9      180.000000        0.003162         4
        30        12        13        31     9        0.000000        0.006022         1
        30        12        13        31     9      180.000000        0.044110         2
        30        12        13        31     9        0.000000        0.613738         3
        30        12        13        31     9      180.000000        0.003162         4
        30        12        13        32     9        0.000000        0.006022         1
        30        12        13        32     9      180.000000        0.044110         2
        30        12        13        32     9        0.000000        0.613738         3
        30        12        13        32     9      180.000000        0.003162         4
        31        13        14        33     9        0.000000       -0.001071         1
        31        13        14        33     9      180.000000       -0.020826         2
        31        13        14        33     9        0.000000        0.671101         3
        31        13        14        33     9      180.000000       -0.051736         4
        31        13        14        34     9        0.000000       -0.001071         1
        31        13        14        34     9      180.000000       -0.020825         2
        31        13        14        34     9        0.000000        0.671101         3
        31        13        14        34     9      180.000000       -0.051737         4
        32        13        14        33     9        0.000000       -0.001071         1
        32        13        14        33     9      180.000000       -0.020826         2
        32        13        14        33     9        0.000000        0.671101         3
        32        13        14        33     9      180.000000       -0.051736         4
        32        13        14        34     9        0.000000       -0.001071         1
        32        13        14        34     9      180.000000       -0.020825         2
        32        13        14        34     9        0.000000        0.671101         3
        32        13        14        34     9      180.000000       -0.051737         4

[ dihedrals ] ; impropers
;       ai        aj        ak        al funct           phase               k        pn
         2         1         3         4     4      180.000000       27.893333         2
         2         3         4         1     4      180.000000       27.893333         2
         2         4         1         3     4      180.000000       27.893333         2

[ pairs ]
;       ai        aj funct
         1        11     1
         1        43     1
         2         5     1
         2        10     1
         2        12     1
         2        44     1
         3        11     1
         3        43     1
         4         6     1
         4         9     1
         4        13     1
         4        29     1
         4        30     1
         5         8     1
         5        12     1
         5        26     1
         5        28     1
         6         9     1
         6        11     1
         6        27     1
         6        44     1
         7        10     1
         7        28     1
         7        43     1
         8        11     1
         8        25     1
         9        12     1
         9        26     1
         9        43     1
        10        13     1
        10        25     1
        10        27     1
        10        29     1
        10        30     1
        10        44     1
        11        14     1
        11        28     1
        11        31     1
        11        32     1
        11        44     1
        12        15     1
        12        33     1
        12        34     1
        12        43     1
        13        16     1
        14        17     1
        14        24     1
        14        29     1
        14        30     1
        15        18     1
        15        22     1
        15        31     1
        15        32     1
        15        35     1
        15        42     1
        16        19     1
        16        20     1
        16        23     1
        16        33     1
        16        34     1
        17        21     1
        17        22     1
        17        36     1
        17        37     1
        17        38     1
        17        42     1
        18        23     1
        18        24     1
        19        21     1
        19        22     1
        19        35     1
        20        35     1
        20        36     1
        20        37     1
        20        38     1
        20        39     1
        20        40     1
        20        41     1
        20        42     1
        21        23     1
        21        24     1
        23        42     1
        24        35     1
        24        39     1
        24        40     1
        24        41     1
        25        26     1
        25        43     1
        26        27     1
        27        28     1
        29        31     1
        29        32     1
        30        31     1
        30        32     1
        31        33     1
        31        34     1
        32        33     1
        32        34     1
