; ITP file created by ByteFF-ML, 2026-02-21 08:21:06.638980

[ atomtypes ]
;name           bonded.type        at.num        mass        charge   ptype           sigma         epsilon
 o0bf                                   8      0.0000       0.00000       A     3.04351e-01     6.11346e-01
 c1bf                                   6      0.0000       0.00000       A     3.31270e-01     4.08495e-01
 o2bf                                   8      0.0000       0.00000       A     3.04351e-01     6.11346e-01
 c3bf                                   6      0.0000       0.00000       A     3.31580e-01     4.10578e-01
 c4bf                                   6      0.0000       0.00000       A     3.31576e-01     4.10729e-01
 c5bf                                   6      0.0000       0.00000       A     3.31438e-01     4.12866e-01
 c6bf                                   6      0.0000       0.00000       A     3.31507e-01     4.12884e-01
 c7bf                                   6      0.0000       0.00000       A     3.31498e-01     4.12322e-01
 c8bf                                   6      0.0000       0.00000       A     3.31448e-01     4.12729e-01
 c9bf                                   6      0.0000       0.00000       A     3.31466e-01     4.11365e-01
 c10bf                                  6      0.0000       0.00000       A     3.31209e-01     4.12534e-01
 c11bf                                  6      0.0000       0.00000       A     3.39740e-01     4.50819e-01
 c12bf                                  6      0.0000       0.00000       A     3.39825e-01     4.50762e-01
 c13bf                                  6      0.0000       0.00000       A     3.39714e-01     4.51040e-01
 o14bf                                  8      0.0000       0.00000       A     3.15822e-01     3.05272e-01
 c15bf                                  6      0.0000       0.00000       A     3.31432e-01     4.12981e-01
 c16bf                                  6      0.0000       0.00000       A     3.31554e-01     4.12571e-01
 c17bf                                  6      0.0000       0.00000       A     3.31461e-01     4.12386e-01
 c18bf                                  6      0.0000       0.00000       A     3.39791e-01     4.50449e-01
 c19bf                                  6      0.0000       0.00000       A     3.31555e-01     4.13380e-01
 cl20bf                                17      0.0000       0.00000       A     3.46762e-01     1.10618e+00
 c21bf                                  6      0.0000       0.00000       A     3.31461e-01     4.12384e-01
 c22bf                                  6      0.0000       0.00000       A     3.39791e-01     4.50449e-01
 c23bf                                  6      0.0000       0.00000       A     3.31554e-01     4.12571e-01
 h24bf                                  1      0.0000       0.00000       A     2.62418e-01     6.71849e-02
 cl25bf                                17      0.0000       0.00000       A     3.46744e-01     1.10459e+00
 h26bf                                  1      0.0000       0.00000       A     2.62494e-01     6.72839e-02
 h27bf                                  1      0.0000       0.00000       A     2.62513e-01     6.69072e-02
 h28bf                                  1      0.0000       0.00000       A     2.59715e-01     8.74790e-02
 h29bf                                  1      0.0000       0.00000       A     2.59715e-01     8.74790e-02
 h30bf                                  1      0.0000       0.00000       A     2.60066e-01     8.68629e-02
 h31bf                                  1      0.0000       0.00000       A     2.60066e-01     8.68629e-02
 h32bf                                  1      0.0000       0.00000       A     2.42089e-01     8.76721e-02
 h33bf                                  1      0.0000       0.00000       A     2.42089e-01     8.76721e-02
 h34bf                                  1      0.0000       0.00000       A     2.62480e-01     6.69854e-02
 h35bf                                  1      0.0000       0.00000       A     2.60015e-01     8.71198e-02
 h36bf                                  1      0.0000       0.00000       A     2.60015e-01     8.71198e-02
 h37bf                                  1      0.0000       0.00000       A     2.60015e-01     8.71198e-02
 h38bf                                  1      0.0000       0.00000       A     2.60015e-01     8.71198e-02
 h39bf                                  1      0.0000       0.00000       A     2.60015e-01     8.71198e-02
 h40bf                                  1      0.0000       0.00000       A     2.60015e-01     8.71198e-02
 h41bf                                  1      0.0000       0.00000       A     2.62480e-01     6.69854e-02
 n42bf                                  7      0.0000       0.00000       A     3.20447e-01     8.58937e-01
 h43bf                                  1      0.0000       0.00000       A     1.10720e-01     4.23341e-02

[ moleculetype ]
;name             nrexcl
 53                    3

[ atoms ]
;       nr            type      resi   res      atom      cgnr      charge          mass ; qtot
         1            o0bf         1   UNL        o0         1    -0.72437       15.9990 ; qtot   -0.724
         2            c1bf         1   UNL        c1         2     0.71536       12.0110 ; qtot   -0.009
         3            o2bf         1   UNL        o2         3    -0.72437       15.9990 ; qtot   -0.733
         4            c3bf         1   UNL        c3         4    -0.12945       12.0110 ; qtot   -0.863
         5            c4bf         1   UNL        c4         5    -0.05369       12.0110 ; qtot   -0.917
         6            c5bf         1   UNL        c5         6    -0.13134       12.0110 ; qtot   -1.048
         7            c6bf         1   UNL        c6         7     0.14368       12.0110 ; qtot   -0.904
         8            c7bf         1   UNL        c7         8    -0.13661       12.0110 ; qtot   -1.041
         9            c8bf         1   UNL        c8         9    -0.05204       12.0110 ; qtot   -1.093
        10            c9bf         1   UNL        c9        10    -0.11013       12.0110 ; qtot   -1.203
        11           c10bf         1   UNL       c10        11    -0.19364       12.0110 ; qtot   -1.397
        12           c11bf         1   UNL       c11        12    -0.00891       12.0110 ; qtot   -1.406
        13           c12bf         1   UNL       c12        13    -0.08976       12.0110 ; qtot   -1.495
        14           c13bf         1   UNL       c13        14     0.16317       12.0110 ; qtot   -1.332
        15           o14bf         1   UNL       o14        15    -0.35197       15.9990 ; qtot   -1.684
        16           c15bf         1   UNL       c15        16     0.14773       12.0110 ; qtot   -1.536
        17           c16bf         1   UNL       c16        17    -0.16892       12.0110 ; qtot   -1.705
        18           c17bf         1   UNL       c17        18    -0.02666       12.0110 ; qtot   -1.732
        19           c18bf         1   UNL       c18        19    -0.04881       12.0110 ; qtot   -1.781
        20           c19bf         1   UNL       c19        20     0.09092       12.0110 ; qtot   -1.690
        21          cl20bf         1   UNL      cl20        21    -0.22555       35.4530 ; qtot   -1.915
        22           c21bf         1   UNL       c21        22    -0.02666       12.0110 ; qtot   -1.942
        23           c22bf         1   UNL       c22        23    -0.04881       12.0110 ; qtot   -1.991
        24           c23bf         1   UNL       c23        24    -0.16892       12.0110 ; qtot   -2.160
        25           h24bf         1   UNL       h24        25     0.13370        1.0080 ; qtot   -2.026
        26          cl25bf         1   UNL      cl25        26    -0.21734       35.4530 ; qtot   -2.243
        27           h26bf         1   UNL       h26        27     0.13079        1.0080 ; qtot   -2.113
        28           h27bf         1   UNL       h27        28     0.12486        1.0080 ; qtot   -1.988
        29           h28bf         1   UNL       h28        29     0.04567        1.0080 ; qtot   -1.942
        30           h29bf         1   UNL       h29        30     0.04567        1.0080 ; qtot   -1.896
        31           h30bf         1   UNL       h30        31     0.05519        1.0080 ; qtot   -1.841
        32           h31bf         1   UNL       h31        32     0.05519        1.0080 ; qtot   -1.786
        33           h32bf         1   UNL       h32        33     0.04441        1.0080 ; qtot   -1.742
        34           h33bf         1   UNL       h33        34     0.04441        1.0080 ; qtot   -1.697
        35           h34bf         1   UNL       h34        35     0.12602        1.0080 ; qtot   -1.571
        36           h35bf         1   UNL       h35        36     0.05173        1.0080 ; qtot   -1.519
        37           h36bf         1   UNL       h36        37     0.05173        1.0080 ; qtot   -1.468
        38           h37bf         1   UNL       h37        38     0.05173        1.0080 ; qtot   -1.416
        39           h38bf         1   UNL       h38        39     0.05173        1.0080 ; qtot   -1.364
        40           h39bf         1   UNL       h39        40     0.05173        1.0080 ; qtot   -1.313
        41           h40bf         1   UNL       h40        41     0.05173        1.0080 ; qtot   -1.261
        42           h41bf         1   UNL       h41        42     0.12602        1.0080 ; qtot   -1.135
        43           n42bf         1   UNL       n42        43    -0.22960       14.0070 ; qtot   -1.364
        44           h43bf         1   UNL       h43        44     0.36438        1.0080 ; qtot   -1.000

[ bonds ]
;       ai        aj funct               r               k
         1         2     1        0.126246   477087.239648
         2         3     1        0.126246   477087.239648
         2         4     1        0.153400   125645.617041
         4        11     1        0.138965   327323.865771
         4        43     1        0.138597   263064.250098
         5         6     1        0.140147   306842.823145
         5        10     1        0.143152   233027.604199
         5        43     1        0.136829   300573.258496
         6         7     1        0.139100   314543.104346
         6        25     1        0.108490   322628.970361
         7         8     1        0.141041   274427.548730
         7        26     1        0.176153   145201.641724
         8         9     1        0.139126   327088.541309
         8        27     1        0.108439   324995.341064
         9        10     1        0.140813   299316.270898
         9        28     1        0.108553   320725.612988
        10        11     1        0.144170   231645.408154
        11        12     1        0.150445   207387.031226
        12        13     1        0.154309   174651.010718
        12        29     1        0.109425   295733.235693
        12        30     1        0.109425   295733.235693
        13        14     1        0.152499   192439.969580
        13        31     1        0.109516   297606.203906
        13        32     1        0.109516   297606.203906
        14        15     1        0.143236   188521.555518
        14        33     1        0.109678   290005.185449
        14        34     1        0.109678   290005.185449
        15        16     1        0.136766   267570.426270
        16        17     1        0.140055   290275.010547
        16        24     1        0.140055   290275.036084
        17        18     1        0.139982   300993.905762
        17        35     1        0.108463   321222.871582
        18        19     1        0.150871   204488.199023
        18        20     1        0.140338   274458.806152
        19        36     1        0.109363   302731.450684
        19        37     1        0.109363   302731.450684
        19        38     1        0.109363   302731.450684
        20        21     1        0.176898   133058.886670
        20        22     1        0.140338   274458.780615
        22        23     1        0.150871   204488.199023
        22        24     1        0.139982   300993.854687
        23        39     1        0.109363   302731.450684
        23        40     1        0.109363   302731.450684
        23        41     1        0.109363   302731.450684
        24        42     1        0.108463   321222.871582
        43        44     1        0.101583   409649.760547

[ angles ]
;       ai        aj        ak funct           theta             cth
         1         2         3     1      129.890915      711.082981
         1         2         4     1      114.963943      332.710740
         2         4        11     1      135.663651      350.727714
         2         4        43     1      115.541298      378.979928
         3         2         4     1      114.963943      332.710740
         4        11        10     1      106.549576      403.981525
         4        11        12     1      127.327011      428.528720
         4        43         5     1      110.683922      410.130382
         4        43        44     1      117.836365      382.310510
         5         6         7     1      116.704849      736.804979
         5         6        25     1      122.175316      437.495629
         5        10         9     1      118.463379      743.857499
         5        10        11     1      107.683372      272.216041
         5        43        44     1      131.509399      305.326691
         6         5        10     1      122.342186      638.924303
         6         5        43     1      130.813507      468.097864
         6         7         8     1      122.611526      563.887083
         6         7        26     1      118.815590      329.476785
         7         6        25     1      121.063583      425.860603
         7         8         9     1      119.976273      572.321671
         7         8        27     1      119.356323      436.006879
         8         7        26     1      118.528000      395.983015
         8         9        10     1      119.715477      730.049009
         8         9        28     1      119.857994      430.390886
         9         8        27     1      120.839455      427.191852
         9        10        11     1      134.274506      414.503899
        10         5        43     1      106.980209      172.716026
        10         9        28     1      120.469101      432.621425
        10        11        12     1      125.805313      460.395266
        11         4        43     1      108.737427      286.527069
        11        12        13     1      112.795059      547.868165
        11        12        29     1      109.126892      490.517563
        11        12        30     1      109.126892      490.517563
        12        13        14     1      112.616066      592.567044
        12        13        31     1      109.492508      484.680227
        12        13        32     1      109.492508      484.680227
        13        12        29     1      108.938232      484.895664
        13        12        30     1      108.938232      484.895664
        13        14        15     1      109.552856      621.752640
        13        14        33     1      110.734940      494.618216
        13        14        34     1      110.734940      494.618152
        14        13        31     1      108.792709      511.357823
        14        13        32     1      108.792709      511.357823
        14        15        16     1      118.844559      525.993364
        15        14        33     1      108.915588      459.732418
        15        14        34     1      108.915588      459.732418
        15        16        17     1      120.182823      539.222640
        15        16        24     1      120.182823      539.222640
        16        17        18     1      121.024536      726.137171
        16        17        35     1      119.719345      439.110787
        16        24        22     1      121.024536      726.137171
        16        24        42     1      119.719345      439.110787
        17        16        24     1      119.664146      578.709140
        17        18        19     1      120.321632      419.261047
        17        18        20     1      117.928101      622.323842
        18        17        35     1      119.245934      407.396315
        18        19        36     1      111.015518      475.802219
        18        19        37     1      111.015518      475.802219
        18        19        38     1      111.015518      475.802219
        18        20        21     1      118.560402      387.794126
        18        20        22     1      122.675980      600.905996
        19        18        20     1      121.863098      370.480189
        20        22        23     1      121.863098      370.480157
        20        22        24     1      117.928101      622.323842
        21        20        22     1      118.560402      387.794189
        22        23        39     1      111.015518      475.802219
        22        23        40     1      111.015518      475.802219
        22        23        41     1      111.015518      475.802219
        22        24        42     1      119.245934      407.396347
        23        22        24     1      120.321640      419.261079
        29        12        30     1      106.761887      356.396313
        31        13        32     1      107.017380      359.666787
        33        14        34     1      107.963120      344.594179
        36        19        37     1      107.895142      356.831338
        36        19        38     1      107.895142      356.831338
        37        19        38     1      107.895142      356.831338
        39        23        40     1      107.895142      356.831306
        39        23        41     1      107.895142      356.831306
        40        23        41     1      107.895142      356.831306

[ dihedrals ] ; propers for gromacs 4.5 or higher, use funct 9
;       ai        aj        ak        al funct           phase               k        pn
         1         2         4        11     9        0.000000       -5.848196         1
         1         2         4        11     9      180.000000        2.034170         2
         1         2         4        11     9        0.000000       -0.165345         3
         1         2         4        11     9      180.000000        0.106470         4
         1         2         4        43     9        0.000000        6.561801         1
         1         2         4        43     9      180.000000        2.944530         2
         1         2         4        43     9        0.000000        0.865534         3
         1         2         4        43     9      180.000000        0.545427         4
         2         4        11        10     9        0.000000        0.557705         1
         2         4        11        10     9      180.000000       14.501484         2
         2         4        11        10     9        0.000000       -0.833903         3
         2         4        11        10     9      180.000000       -0.816754         4
         2         4        11        12     9        0.000000        0.171018         1
         2         4        11        12     9      180.000000       12.352449         2
         2         4        11        12     9        0.000000        0.301653         3
         2         4        11        12     9      180.000000       -0.783839         4
         2         4        43         5     9        0.000000       -0.492799         1
         2         4        43         5     9      180.000000        7.305881         2
         2         4        43         5     9        0.000000        0.563584         3
         2         4        43         5     9      180.000000       -0.241926         4
         2         4        43        44     9        0.000000        0.009235         1
         2         4        43        44     9      180.000000        3.220562         2
         2         4        43        44     9        0.000000        0.288310         3
         2         4        43        44     9      180.000000        0.040668         4
         3         2         4        11     9        0.000000       -5.848196         1
         3         2         4        11     9      180.000000        2.034170         2
         3         2         4        11     9        0.000000       -0.165345         3
         3         2         4        11     9      180.000000        0.106470         4
         3         2         4        43     9        0.000000        6.561801         1
         3         2         4        43     9      180.000000        2.944530         2
         3         2         4        43     9        0.000000        0.865534         3
         3         2         4        43     9      180.000000        0.545427         4
         4        11        10         5     9        0.000000       -0.005757         1
         4        11        10         5     9      180.000000       25.004060         2
         4        11        10         5     9        0.000000       -8.058154         3
         4        11        10         5     9      180.000000       -0.277397         4
         4        11        10         9     9        0.000000       -0.134824         1
         4        11        10         9     9      180.000000        4.336861         2
         4        11        10         9     9        0.000000       -0.634694         3
         4        11        10         9     9      180.000000        0.293056         4
         4        11        12        13     9        0.000000       -0.762663         1
         4        11        12        13     9      180.000000       -0.478729         2
         4        11        12        13     9        0.000000        0.120672         3
         4        11        12        13     9      180.000000       -0.050471         4
         4        11        12        29     9        0.000000        0.040229         1
         4        11        12        29     9      180.000000        0.070747         2
         4        11        12        29     9        0.000000       -0.344602         3
         4        11        12        29     9      180.000000        0.138807         4
         4        11        12        30     9        0.000000        0.040229         1
         4        11        12        30     9      180.000000        0.070747         2
         4        11        12        30     9        0.000000       -0.344602         3
         4        11        12        30     9      180.000000        0.138807         4
         4        43         5         6     9        0.000000        0.481767         1
         4        43         5         6     9      180.000000        4.875508         2
         4        43         5         6     9        0.000000        0.393325         3
         4        43         5         6     9      180.000000        0.108849         4
         4        43         5        10     9        0.000000       -0.116492         1
         4        43         5        10     9      180.000000       18.480288         2
         4        43         5        10     9        0.000000       -4.264671         3
         4        43         5        10     9      180.000000       -0.914410         4
         5         6         7         8     9        0.000000       -0.160467         1
         5         6         7         8     9      180.000000       20.501110         2
         5         6         7         8     9        0.000000       -1.587736         3
         5         6         7         8     9      180.000000       -0.562815         4
         5         6         7        26     9        0.000000        0.154312         1
         5         6         7        26     9      180.000000       22.818137         2
         5         6         7        26     9        0.000000        0.283413         3
         5         6         7        26     9      180.000000       -1.138635         4
         5        10         9         8     9        0.000000        0.101510         1
         5        10         9         8     9      180.000000       19.230692         2
         5        10         9         8     9        0.000000       -1.721418         3
         5        10         9         8     9      180.000000       -0.430813         4
         5        10         9        28     9        0.000000        0.332825         1
         5        10         9        28     9      180.000000       13.217344         2
         5        10         9        28     9        0.000000       -0.217360         3
         5        10         9        28     9      180.000000        0.011933         4
         5        10        11        12     9        0.000000        1.114650         1
         5        10        11        12     9      180.000000       11.332515         2
         5        10        11        12     9        0.000000        0.732357         3
         5        10        11        12     9      180.000000       -0.340756         4
         5        43         4        11     9        0.000000        0.027398         1
         5        43         4        11     9      180.000000       20.103846         2
         5        43         4        11     9        0.000000       -4.906659         3
         5        43         4        11     9      180.000000       -0.830029         4
         6         5        10         9     9        0.000000        0.077237         1
         6         5        10         9     9      180.000000       10.830667         2
         6         5        10         9     9        0.000000       -1.383645         3
         6         5        10         9     9      180.000000       -0.060666         4
         6         5        10        11     9        0.000000        0.042992         1
         6         5        10        11     9      180.000000       11.170279         2
         6         5        10        11     9        0.000000       -2.523546         3
         6         5        10        11     9      180.000000        0.012653         4
         6         5        43        44     9        0.000000        0.006954         1
         6         5        43        44     9      180.000000        0.838684         2
         6         5        43        44     9        0.000000        0.292809         3
         6         5        43        44     9      180.000000       -0.087526         4
         6         7         8         9     9        0.000000       -0.121980         1
         6         7         8         9     9      180.000000       16.372665         2
         6         7         8         9     9        0.000000       -1.274352         3
         6         7         8         9     9      180.000000       -0.274855         4
         6         7         8        27     9        0.000000        0.028813         1
         6         7         8        27     9      180.000000       12.595284         2
         6         7         8        27     9        0.000000       -0.593269         3
         6         7         8        27     9      180.000000        0.126401         4
         7         6         5        10     9        0.000000       -0.132666         1
         7         6         5        10     9      180.000000       16.750313         2
         7         6         5        10     9        0.000000       -1.392594         3
         7         6         5        10     9      180.000000       -0.359765         4
         7         6         5        43     9        0.000000        0.218262         1
         7         6         5        43     9      180.000000       15.179928         2
         7         6         5        43     9        0.000000       -0.123425         3
         7         6         5        43     9      180.000000       -0.444070         4
         7         8         9        10     9        0.000000       -0.114998         1
         7         8         9        10     9      180.000000       20.520500         2
         7         8         9        10     9        0.000000       -1.620294         3
         7         8         9        10     9      180.000000       -0.441096         4
         7         8         9        28     9        0.000000        0.075310         1
         7         8         9        28     9      180.000000       14.874187         2
         7         8         9        28     9        0.000000       -0.492491         3
         7         8         9        28     9      180.000000        0.187617         4
         8         7         6        25     9        0.000000        0.090512         1
         8         7         6        25     9      180.000000       13.948818         2
         8         7         6        25     9        0.000000       -0.464977         3
         8         7         6        25     9      180.000000        0.076064         4
         8         9        10        11     9        0.000000       -0.054129         1
         8         9        10        11     9      180.000000       14.213534         2
         8         9        10        11     9        0.000000       -0.886144         3
         8         9        10        11     9      180.000000       -0.200450         4
         9         8         7        26     9        0.000000        0.336196         1
         9         8         7        26     9      180.000000       17.095146         2
         9         8         7        26     9        0.000000        0.222063         3
         9         8         7        26     9      180.000000       -0.392445         4
         9        10         5        43     9        0.000000        0.045385         1
         9        10         5        43     9      180.000000       10.928161         2
         9        10         5        43     9        0.000000       -2.039883         3
         9        10         5        43     9      180.000000       -0.052464         4
         9        10        11        12     9        0.000000       -0.350347         1
         9        10        11        12     9      180.000000        5.353291         2
         9        10        11        12     9        0.000000        0.210414         3
         9        10        11        12     9      180.000000        0.208433         4
        10         5         6        25     9        0.000000        0.095044         1
        10         5         6        25     9      180.000000       11.561428         2
        10         5         6        25     9        0.000000       -0.141810         3
        10         5         6        25     9      180.000000        0.068521         4
        10         5        43        44     9        0.000000        0.429535         1
        10         5        43        44     9      180.000000        1.664323         2
        10         5        43        44     9        0.000000        0.513412         3
        10         5        43        44     9      180.000000        0.129720         4
        10         9         8        27     9        0.000000        0.001140         1
        10         9         8        27     9      180.000000       16.036594         2
        10         9         8        27     9        0.000000       -0.559589         3
        10         9         8        27     9      180.000000       -0.048861         4
        10        11         4        43     9        0.000000       -0.297732         1
        10        11         4        43     9      180.000000       32.269068         2
        10        11         4        43     9        0.000000       -6.126340         3
        10        11         4        43     9      180.000000       -0.285753         4
        10        11        12        13     9        0.000000       -0.773124         1
        10        11        12        13     9      180.000000       -0.111719         2
        10        11        12        13     9        0.000000        0.235807         3
        10        11        12        13     9      180.000000        0.055586         4
        10        11        12        29     9        0.000000        0.030609         1
        10        11        12        29     9      180.000000        0.083429         2
        10        11        12        29     9        0.000000        0.282337         3
        10        11        12        29     9      180.000000        0.084165         4
        10        11        12        30     9        0.000000        0.030609         1
        10        11        12        30     9      180.000000        0.083429         2
        10        11        12        30     9        0.000000        0.282337         3
        10        11        12        30     9      180.000000        0.084165         4
        11         4        43        44     9        0.000000        2.073171         1
        11         4        43        44     9      180.000000        2.072400         2
        11         4        43        44     9        0.000000        0.984644         3
        11         4        43        44     9      180.000000        0.074063         4
        11        10         5        43     9        0.000000       -0.151881         1
        11        10         5        43     9      180.000000       20.136394         2
        11        10         5        43     9        0.000000       -6.647987         3
        11        10         5        43     9      180.000000       -0.354606         4
        11        10         9        28     9        0.000000       -0.049417         1
        11        10         9        28     9      180.000000       10.718549         2
        11        10         9        28     9        0.000000       -0.121471         3
        11        10         9        28     9      180.000000        0.074310         4
        11        12        13        14     9        0.000000       -1.037924         1
        11        12        13        14     9      180.000000       -0.195500         2
        11        12        13        14     9        0.000000        0.433131         3
        11        12        13        14     9      180.000000       -0.016638         4
        11        12        13        31     9        0.000000        0.174405         1
        11        12        13        31     9      180.000000        0.000426         2
        11        12        13        31     9        0.000000        0.595883         3
        11        12        13        31     9      180.000000        0.017036         4
        11        12        13        32     9        0.000000        0.174405         1
        11        12        13        32     9      180.000000        0.000426         2
        11        12        13        32     9        0.000000        0.595883         3
        11        12        13        32     9      180.000000        0.017036         4
        12        11         4        43     9        0.000000        0.565960         1
        12        11         4        43     9      180.000000       19.541854         2
        12        11         4        43     9        0.000000       -0.025984         3
        12        11         4        43     9      180.000000       -1.399833         4
        12        13        14        15     9        0.000000       -1.421750         1
        12        13        14        15     9      180.000000       -0.348669         2
        12        13        14        15     9        0.000000        0.470884         3
        12        13        14        15     9      180.000000        0.017942         4
        12        13        14        33     9        0.000000        0.052659         1
        12        13        14        33     9      180.000000        0.052844         2
        12        13        14        33     9        0.000000        0.650860         3
        12        13        14        33     9      180.000000        0.042224         4
        12        13        14        34     9        0.000000        0.052659         1
        12        13        14        34     9      180.000000        0.052843         2
        12        13        14        34     9        0.000000        0.650860         3
        12        13        14        34     9      180.000000        0.042224         4
        13        14        15        16     9        0.000000        0.351537         1
        13        14        15        16     9      180.000000        0.157599         2
        13        14        15        16     9        0.000000        0.685578         3
        13        14        15        16     9      180.000000        0.026758         4
        14        13        12        29     9        0.000000       -0.117826         1
        14        13        12        29     9      180.000000        0.051843         2
        14        13        12        29     9        0.000000        0.500191         3
        14        13        12        29     9      180.000000        0.024620         4
        14        13        12        30     9        0.000000       -0.117826         1
        14        13        12        30     9      180.000000        0.051843         2
        14        13        12        30     9        0.000000        0.500191         3
        14        13        12        30     9      180.000000        0.024620         4
        14        15        16        17     9        0.000000       -0.137734         1
        14        15        16        17     9      180.000000        5.126576         2
        14        15        16        17     9        0.000000        0.103179         3
        14        15        16        17     9      180.000000        0.346239         4
        14        15        16        24     9        0.000000       -0.137734         1
        14        15        16        24     9      180.000000        5.126576         2
        14        15        16        24     9        0.000000        0.103180         3
        14        15        16        24     9      180.000000        0.346240         4
        15        14        13        31     9        0.000000        0.058555         1
        15        14        13        31     9      180.000000        0.166947         2
        15        14        13        31     9        0.000000        0.483446         3
        15        14        13        31     9      180.000000        0.072634         4
        15        14        13        32     9        0.000000        0.058555         1
        15        14        13        32     9      180.000000        0.166947         2
        15        14        13        32     9        0.000000        0.483446         3
        15        14        13        32     9      180.000000        0.072634         4
        15        16        17        18     9        0.000000        0.301612         1
        15        16        17        18     9      180.000000       16.852349         2
        15        16        17        18     9        0.000000        0.363219         3
        15        16        17        18     9      180.000000       -0.324670         4
        15        16        17        35     9        0.000000        0.077569         1
        15        16        17        35     9      180.000000       12.867848         2
        15        16        17        35     9        0.000000       -0.083698         3
        15        16        17        35     9      180.000000        0.318108         4
        15        16        24        22     9        0.000000        0.301612         1
        15        16        24        22     9      180.000000       16.852349         2
        15        16        24        22     9        0.000000        0.363218         3
        15        16        24        22     9      180.000000       -0.324669         4
        15        16        24        42     9        0.000000        0.077569         1
        15        16        24        42     9      180.000000       12.867847         2
        15        16        24        42     9        0.000000       -0.083698         3
        15        16        24        42     9      180.000000        0.318108         4
        16        15        14        33     9        0.000000       -0.180130         1
        16        15        14        33     9      180.000000        0.036843         2
        16        15        14        33     9        0.000000        0.827393         3
        16        15        14        33     9      180.000000       -0.048875         4
        16        15        14        34     9        0.000000       -0.180129         1
        16        15        14        34     9      180.000000        0.036843         2
        16        15        14        34     9        0.000000        0.827393         3
        16        15        14        34     9      180.000000       -0.048875         4
        16        17        18        19     9        0.000000        0.079422         1
        16        17        18        19     9      180.000000       16.350832         2
        16        17        18        19     9        0.000000       -0.049451         3
        16        17        18        19     9      180.000000       -0.286105         4
        16        17        18        20     9        0.000000       -0.118684         1
        16        17        18        20     9      180.000000       18.963111         2
        16        17        18        20     9        0.000000       -1.419004         3
        16        17        18        20     9      180.000000       -0.550490         4
        16        24        22        20     9        0.000000       -0.118683         1
        16        24        22        20     9      180.000000       18.963111         2
        16        24        22        20     9        0.000000       -1.419004         3
        16        24        22        20     9      180.000000       -0.550490         4
        16        24        22        23     9        0.000000        0.079421         1
        16        24        22        23     9      180.000000       16.350834         2
        16        24        22        23     9        0.000000       -0.049451         3
        16        24        22        23     9      180.000000       -0.286105         4
        17        16        24        22     9        0.000000       -0.103052         1
        17        16        24        22     9      180.000000       15.653163         2
        17        16        24        22     9        0.000000       -1.003742         3
        17        16        24        22     9      180.000000       -0.230044         4
        17        16        24        42     9        0.000000        0.054560         1
        17        16        24        42     9      180.000000       12.313194         2
        17        16        24        42     9        0.000000       -0.472029         3
        17        16        24        42     9      180.000000        0.201015         4
        17        18        19        36     9        0.000000       -0.020053         1
        17        18        19        36     9      180.000000        0.002010         2
        17        18        19        36     9        0.000000       -0.133025         3
        17        18        19        36     9      180.000000        0.002394         4
        17        18        19        37     9        0.000000       -0.020053         1
        17        18        19        37     9      180.000000        0.002010         2
        17        18        19        37     9        0.000000       -0.133025         3
        17        18        19        37     9      180.000000        0.002394         4
        17        18        19        38     9        0.000000       -0.020053         1
        17        18        19        38     9      180.000000        0.002010         2
        17        18        19        38     9        0.000000       -0.133025         3
        17        18        19        38     9      180.000000        0.002394         4
        17        18        20        21     9        0.000000        0.212531         1
        17        18        20        21     9      180.000000       18.642595         2
        17        18        20        21     9        0.000000        0.197826         3
        17        18        20        21     9      180.000000       -0.606702         4
        17        18        20        22     9        0.000000       -0.076351         1
        17        18        20        22     9      180.000000       17.006314         2
        17        18        20        22     9        0.000000       -1.141110         3
        17        18        20        22     9      180.000000       -0.339527         4
        18        17        16        24     9        0.000000       -0.103051         1
        18        17        16        24     9      180.000000       15.653161         2
        18        17        16        24     9        0.000000       -1.003742         3
        18        17        16        24     9      180.000000       -0.230044         4
        18        20        22        23     9        0.000000        0.210009         1
        18        20        22        23     9      180.000000       13.888542         2
        18        20        22        23     9        0.000000       -0.204866         3
        18        20        22        23     9      180.000000       -0.185053         4
        18        20        22        24     9        0.000000       -0.076352         1
        18        20        22        24     9      180.000000       17.006314         2
        18        20        22        24     9        0.000000       -1.141110         3
        18        20        22        24     9      180.000000       -0.339527         4
        19        18        17        35     9        0.000000       -0.123001         1
        19        18        17        35     9      180.000000       13.141090         2
        19        18        17        35     9        0.000000       -0.476172         3
        19        18        17        35     9      180.000000        0.276766         4
        19        18        20        21     9        0.000000       -0.154583         1
        19        18        20        21     9      180.000000       16.420763         2
        19        18        20        21     9        0.000000       -0.142787         3
        19        18        20        21     9      180.000000       -0.451462         4
        19        18        20        22     9        0.000000        0.210008         1
        19        18        20        22     9      180.000000       13.888543         2
        19        18        20        22     9        0.000000       -0.204866         3
        19        18        20        22     9      180.000000       -0.185053         4
        20        18        17        35     9        0.000000        0.145215         1
        20        18        17        35     9      180.000000       13.905366         2
        20        18        17        35     9        0.000000       -0.387717         3
        20        18        17        35     9      180.000000        0.192985         4
        20        18        19        36     9        0.000000       -0.013438         1
        20        18        19        36     9      180.000000       -0.011171         2
        20        18        19        36     9        0.000000        0.211639         3
        20        18        19        36     9      180.000000        0.022789         4
        20        18        19        37     9        0.000000       -0.013438         1
        20        18        19        37     9      180.000000       -0.011171         2
        20        18        19        37     9        0.000000        0.211639         3
        20        18        19        37     9      180.000000        0.022789         4
        20        18        19        38     9        0.000000       -0.013438         1
        20        18        19        38     9      180.000000       -0.011171         2
        20        18        19        38     9        0.000000        0.211639         3
        20        18        19        38     9      180.000000        0.022789         4
        20        22        23        39     9        0.000000       -0.013439         1
        20        22        23        39     9      180.000000       -0.011173         2
        20        22        23        39     9        0.000000        0.211639         3
        20        22        23        39     9      180.000000        0.022789         4
        20        22        23        40     9        0.000000       -0.013439         1
        20        22        23        40     9      180.000000       -0.011173         2
        20        22        23        40     9        0.000000        0.211639         3
        20        22        23        40     9      180.000000        0.022789         4
        20        22        23        41     9        0.000000       -0.013439         1
        20        22        23        41     9      180.000000       -0.011173         2
        20        22        23        41     9        0.000000        0.211639         3
        20        22        23        41     9      180.000000        0.022789         4
        20        22        24        42     9        0.000000        0.145215         1
        20        22        24        42     9      180.000000       13.905366         2
        20        22        24        42     9        0.000000       -0.387717         3
        20        22        24        42     9      180.000000        0.192985         4
        21        20        22        23     9        0.000000       -0.154582         1
        21        20        22        23     9      180.000000       16.420766         2
        21        20        22        23     9        0.000000       -0.142788         3
        21        20        22        23     9      180.000000       -0.451462         4
        21        20        22        24     9        0.000000        0.212531         1
        21        20        22        24     9      180.000000       18.642597         2
        21        20        22        24     9        0.000000        0.197826         3
        21        20        22        24     9      180.000000       -0.606702         4
        23        22        24        42     9        0.000000       -0.123001         1
        23        22        24        42     9      180.000000       13.141090         2
        23        22        24        42     9        0.000000       -0.476172         3
        23        22        24        42     9      180.000000        0.276766         4
        24        16        17        35     9        0.000000        0.054561         1
        24        16        17        35     9      180.000000       12.313196         2
        24        16        17        35     9        0.000000       -0.472030         3
        24        16        17        35     9      180.000000        0.201016         4
        24        22        23        39     9        0.000000       -0.020052         1
        24        22        23        39     9      180.000000        0.002010         2
        24        22        23        39     9        0.000000       -0.133024         3
        24        22        23        39     9      180.000000        0.002394         4
        24        22        23        40     9        0.000000       -0.020052         1
        24        22        23        40     9      180.000000        0.002010         2
        24        22        23        40     9        0.000000       -0.133024         3
        24        22        23        40     9      180.000000        0.002394         4
        24        22        23        41     9        0.000000       -0.020052         1
        24        22        23        41     9      180.000000        0.002010         2
        24        22        23        41     9        0.000000       -0.133024         3
        24        22        23        41     9      180.000000        0.002394         4
        25         6         5        43     9        0.000000       -0.155715         1
        25         6         5        43     9      180.000000       11.338257         2
        25         6         5        43     9        0.000000       -0.072261         3
        25         6         5        43     9      180.000000        0.089184         4
        25         6         7        26     9        0.000000        0.211055         1
        25         6         7        26     9      180.000000       14.006270         2
        25         6         7        26     9        0.000000        0.040566         3
        25         6         7        26     9      180.000000        0.236116         4
        26         7         8        27     9        0.000000        0.110453         1
        26         7         8        27     9      180.000000       12.695711         2
        26         7         8        27     9        0.000000       -0.098837         3
        26         7         8        27     9      180.000000        0.209888         4
        27         8         9        28     9        0.000000       -0.165151         1
        27         8         9        28     9      180.000000       12.440808         2
        27         8         9        28     9        0.000000       -0.756633         3
        27         8         9        28     9      180.000000        0.284675         4
        29        12        13        31     9        0.000000        0.021539         1
        29        12        13        31     9      180.000000        0.036431         2
        29        12        13        31     9        0.000000        0.611780         3
        29        12        13        31     9      180.000000       -0.014647         4
        29        12        13        32     9        0.000000        0.021539         1
        29        12        13        32     9      180.000000        0.036431         2
        29        12        13        32     9        0.000000        0.611780         3
        29        12        13        32     9      180.000000       -0.014647         4
        30        12        13        31     9        0.000000        0.021539         1
        30        12        13        31     9      180.000000        0.036431         2
        30        12        13        31     9        0.000000        0.611780         3
        30        12        13        31     9      180.000000       -0.014647         4
        30        12        13        32     9        0.000000        0.021539         1
        30        12        13        32     9      180.000000        0.036431         2
        30        12        13        32     9        0.000000        0.611780         3
        30        12        13        32     9      180.000000       -0.014647         4
        31        13        14        33     9        0.000000       -0.001071         1
        31        13        14        33     9      180.000000       -0.020826         2
        31        13        14        33     9        0.000000        0.671101         3
        31        13        14        33     9      180.000000       -0.051736         4
        31        13        14        34     9        0.000000       -0.001071         1
        31        13        14        34     9      180.000000       -0.020825         2
        31        13        14        34     9        0.000000        0.671101         3
        31        13        14        34     9      180.000000       -0.051737         4
        32        13        14        33     9        0.000000       -0.001071         1
        32        13        14        33     9      180.000000       -0.020826         2
        32        13        14        33     9        0.000000        0.671101         3
        32        13        14        33     9      180.000000       -0.051736         4
        32        13        14        34     9        0.000000       -0.001071         1
        32        13        14        34     9      180.000000       -0.020825         2
        32        13        14        34     9        0.000000        0.671101         3
        32        13        14        34     9      180.000000       -0.051737         4

[ dihedrals ] ; impropers
;       ai        aj        ak        al funct           phase               k        pn
         2         1         3         4     4      180.000000       27.893333         2
         2         3         4         1     4      180.000000       27.893333         2
         2         4         1         3     4      180.000000       27.893333         2

[ pairs ]
;       ai        aj funct
         1        11     1
         1        43     1
         2         5     1
         2        10     1
         2        12     1
         2        44     1
         3        11     1
         3        43     1
         4         6     1
         4         9     1
         4        13     1
         4        29     1
         4        30     1
         5         8     1
         5        12     1
         5        26     1
         5        28     1
         6         9     1
         6        11     1
         6        27     1
         6        44     1
         7        10     1
         7        28     1
         7        43     1
         8        11     1
         8        25     1
         9        12     1
         9        26     1
         9        43     1
        10        13     1
        10        25     1
        10        27     1
        10        29     1
        10        30     1
        10        44     1
        11        14     1
        11        28     1
        11        31     1
        11        32     1
        11        44     1
        12        15     1
        12        33     1
        12        34     1
        12        43     1
        13        16     1
        14        17     1
        14        24     1
        14        29     1
        14        30     1
        15        18     1
        15        22     1
        15        31     1
        15        32     1
        15        35     1
        15        42     1
        16        19     1
        16        20     1
        16        23     1
        16        33     1
        16        34     1
        17        21     1
        17        22     1
        17        36     1
        17        37     1
        17        38     1
        17        42     1
        18        23     1
        18        24     1
        19        21     1
        19        22     1
        19        35     1
        20        35     1
        20        36     1
        20        37     1
        20        38     1
        20        39     1
        20        40     1
        20        41     1
        20        42     1
        21        23     1
        21        24     1
        23        42     1
        24        35     1
        24        39     1
        24        40     1
        24        41     1
        25        26     1
        25        43     1
        26        27     1
        27        28     1
        29        31     1
        29        32     1
        30        31     1
        30        32     1
        31        33     1
        31        34     1
        32        33     1
        32        34     1
