; ITP file created by ByteFF-ML, 2026-02-21 08:19:02.041317

[ atomtypes ]
;name           bonded.type        at.num        mass        charge   ptype           sigma         epsilon
 o0bf                                   8      0.0000       0.00000       A     3.04718e-01     6.11713e-01
 c1bf                                   6      0.0000       0.00000       A     3.31077e-01     4.09176e-01
 o2bf                                   8      0.0000       0.00000       A     3.04718e-01     6.11713e-01
 c3bf                                   6      0.0000       0.00000       A     3.31550e-01     4.13337e-01
 c4bf                                   6      0.0000       0.00000       A     3.31460e-01     4.11495e-01
 c5bf                                   6      0.0000       0.00000       A     3.31423e-01     4.12410e-01
 c6bf                                   6      0.0000       0.00000       A     3.31471e-01     4.12914e-01
 c7bf                                   6      0.0000       0.00000       A     3.31507e-01     4.12945e-01
 c8bf                                   6      0.0000       0.00000       A     3.31450e-01     4.12231e-01
 c9bf                                   6      0.0000       0.00000       A     3.31403e-01     4.11614e-01
 c10bf                                  6      0.0000       0.00000       A     3.31236e-01     4.14884e-01
 c11bf                                  6      0.0000       0.00000       A     3.39712e-01     4.51876e-01
 c12bf                                  6      0.0000       0.00000       A     3.39825e-01     4.50762e-01
 c13bf                                  6      0.0000       0.00000       A     3.39714e-01     4.51040e-01
 o14bf                                  8      0.0000       0.00000       A     3.15822e-01     3.05272e-01
 c15bf                                  6      0.0000       0.00000       A     3.31432e-01     4.12981e-01
 c16bf                                  6      0.0000       0.00000       A     3.31554e-01     4.12571e-01
 c17bf                                  6      0.0000       0.00000       A     3.31461e-01     4.12386e-01
 c18bf                                  6      0.0000       0.00000       A     3.39791e-01     4.50449e-01
 c19bf                                  6      0.0000       0.00000       A     3.31555e-01     4.13380e-01
 cl20bf                                17      0.0000       0.00000       A     3.46762e-01     1.10618e+00
 c21bf                                  6      0.0000       0.00000       A     3.31461e-01     4.12384e-01
 c22bf                                  6      0.0000       0.00000       A     3.39791e-01     4.50449e-01
 c23bf                                  6      0.0000       0.00000       A     3.31554e-01     4.12571e-01
 h24bf                                  1      0.0000       0.00000       A     2.62526e-01     6.73270e-02
 h25bf                                  1      0.0000       0.00000       A     2.62453e-01     6.74531e-02
 h26bf                                  1      0.0000       0.00000       A     2.62437e-01     6.74722e-02
 h27bf                                  1      0.0000       0.00000       A     2.62476e-01     6.69056e-02
 h28bf                                  1      0.0000       0.00000       A     2.59715e-01     8.74790e-02
 h29bf                                  1      0.0000       0.00000       A     2.59715e-01     8.74790e-02
 h30bf                                  1      0.0000       0.00000       A     2.60066e-01     8.68629e-02
 h31bf                                  1      0.0000       0.00000       A     2.60066e-01     8.68629e-02
 h32bf                                  1      0.0000       0.00000       A     2.42089e-01     8.76721e-02
 h33bf                                  1      0.0000       0.00000       A     2.42089e-01     8.76721e-02
 h34bf                                  1      0.0000       0.00000       A     2.62480e-01     6.69854e-02
 h35bf                                  1      0.0000       0.00000       A     2.60015e-01     8.71198e-02
 h36bf                                  1      0.0000       0.00000       A     2.60015e-01     8.71198e-02
 h37bf                                  1      0.0000       0.00000       A     2.60015e-01     8.71198e-02
 h38bf                                  1      0.0000       0.00000       A     2.60015e-01     8.71198e-02
 h39bf                                  1      0.0000       0.00000       A     2.60015e-01     8.71198e-02
 h40bf                                  1      0.0000       0.00000       A     2.60015e-01     8.71198e-02
 h41bf                                  1      0.0000       0.00000       A     2.62480e-01     6.69854e-02
 c42bf                                  6      0.0000       0.00000       A     3.39879e-01     4.50883e-01
 h43bf                                  1      0.0000       0.00000       A     2.41962e-01     8.74215e-02
 h44bf                                  1      0.0000       0.00000       A     2.41962e-01     8.74215e-02
 h45bf                                  1      0.0000       0.00000       A     2.41962e-01     8.74215e-02
 n46bf                                  7      0.0000       0.00000       A     3.20778e-01     8.58454e-01

[ moleculetype ]
;name             nrexcl
 56                    3

[ atoms ]
;       nr            type      resi   res      atom      cgnr      charge          mass ; qtot
         1            o0bf         1   UNL        o0         1    -0.72896       15.9990 ; qtot   -0.729
         2            c1bf         1   UNL        c1         2     0.70860       12.0110 ; qtot   -0.020
         3            o2bf         1   UNL        o2         3    -0.72896       15.9990 ; qtot   -0.749
         4            c3bf         1   UNL        c3         4    -0.08646       12.0110 ; qtot   -0.836
         5            c4bf         1   UNL        c4         5    -0.06807       12.0110 ; qtot   -0.904
         6            c5bf         1   UNL        c5         6    -0.13622       12.0110 ; qtot   -1.040
         7            c6bf         1   UNL        c6         7    -0.09412       12.0110 ; qtot   -1.134
         8            c7bf         1   UNL        c7         8    -0.14488       12.0110 ; qtot   -1.279
         9            c8bf         1   UNL        c8         9    -0.07048       12.0110 ; qtot   -1.350
        10            c9bf         1   UNL        c9        10    -0.10350       12.0110 ; qtot   -1.453
        11           c10bf         1   UNL       c10        11    -0.18890       12.0110 ; qtot   -1.642
        12           c11bf         1   UNL       c11        12    -0.00995       12.0110 ; qtot   -1.652
        13           c12bf         1   UNL       c12        13    -0.09011       12.0110 ; qtot   -1.742
        14           c13bf         1   UNL       c13        14     0.16317       12.0110 ; qtot   -1.579
        15           o14bf         1   UNL       o14        15    -0.35197       15.9990 ; qtot   -1.931
        16           c15bf         1   UNL       c15        16     0.14773       12.0110 ; qtot   -1.783
        17           c16bf         1   UNL       c16        17    -0.16892       12.0110 ; qtot   -1.952
        18           c17bf         1   UNL       c17        18    -0.02666       12.0110 ; qtot   -1.979
        19           c18bf         1   UNL       c18        19    -0.04881       12.0110 ; qtot   -2.027
        20           c19bf         1   UNL       c19        20     0.09092       12.0110 ; qtot   -1.937
        21          cl20bf         1   UNL      cl20        21    -0.22555       35.4530 ; qtot   -2.162
        22           c21bf         1   UNL       c21        22    -0.02666       12.0110 ; qtot   -2.189
        23           c22bf         1   UNL       c22        23    -0.04881       12.0110 ; qtot   -2.238
        24           c23bf         1   UNL       c23        24    -0.16892       12.0110 ; qtot   -2.406
        25           h24bf         1   UNL       h24        25     0.11519        1.0080 ; qtot   -2.291
        26           h25bf         1   UNL       h25        26     0.11239        1.0080 ; qtot   -2.179
        27           h26bf         1   UNL       h26        27     0.11224        1.0080 ; qtot   -2.067
        28           h27bf         1   UNL       h27        28     0.11944        1.0080 ; qtot   -1.947
        29           h28bf         1   UNL       h28        29     0.04466        1.0080 ; qtot   -1.903
        30           h29bf         1   UNL       h29        30     0.04466        1.0080 ; qtot   -1.858
        31           h30bf         1   UNL       h30        31     0.05519        1.0080 ; qtot   -1.803
        32           h31bf         1   UNL       h31        32     0.05519        1.0080 ; qtot   -1.748
        33           h32bf         1   UNL       h32        33     0.04441        1.0080 ; qtot   -1.703
        34           h33bf         1   UNL       h33        34     0.04441        1.0080 ; qtot   -1.659
        35           h34bf         1   UNL       h34        35     0.12602        1.0080 ; qtot   -1.533
        36           h35bf         1   UNL       h35        36     0.05173        1.0080 ; qtot   -1.481
        37           h36bf         1   UNL       h36        37     0.05173        1.0080 ; qtot   -1.429
        38           h37bf         1   UNL       h37        38     0.05173        1.0080 ; qtot   -1.377
        39           h38bf         1   UNL       h38        39     0.05173        1.0080 ; qtot   -1.326
        40           h39bf         1   UNL       h39        40     0.05173        1.0080 ; qtot   -1.274
        41           h40bf         1   UNL       h40        41     0.05173        1.0080 ; qtot   -1.222
        42           h41bf         1   UNL       h41        42     0.12602        1.0080 ; qtot   -1.096
        43           c42bf         1   UNL       c42        43     0.05289       12.0110 ; qtot   -1.043
        44           h43bf         1   UNL       h43        44     0.04517        1.0080 ; qtot   -0.998
        45           h44bf         1   UNL       h44        45     0.04517        1.0080 ; qtot   -0.953
        46           h45bf         1   UNL       h45        46     0.04517        1.0080 ; qtot   -0.908
        47           n46bf         1   UNL       n46        47    -0.09211       14.0070 ; qtot   -1.000

[ bonds ]
;       ai        aj funct               r               k
         1         2     1        0.126270   477551.810742
         2         3     1        0.126270   477551.810742
         2         4     1        0.153497   124554.901563
         4        11     1        0.138900   330774.414453
         4        47     1        0.140235   227394.730762
         5         6     1        0.140276   303404.481201
         5        10     1        0.143026   235167.792725
         5        47     1        0.137636   273720.221875
         6         7     1        0.139440   322906.482129
         6        25     1        0.108587   318844.626123
         7         8     1        0.141221   281261.100439
         7        26     1        0.108605   319818.943457
         8         9     1        0.139187   326620.165186
         8        27     1        0.108624   318958.700391
         9        10     1        0.140917   298352.168408
         9        28     1        0.108575   319785.540918
        10        11     1        0.143947   235043.554688
        11        12     1        0.150512   207163.836890
        12        13     1        0.154303   174786.906445
        12        29     1        0.109436   295477.507080
        12        30     1        0.109436   295477.507080
        13        14     1        0.152499   192439.969580
        13        31     1        0.109516   297606.203906
        13        32     1        0.109516   297606.203906
        14        15     1        0.143236   188521.581055
        14        33     1        0.109678   290005.185449
        14        34     1        0.109678   290005.185449
        15        16     1        0.136766   267570.426270
        16        17     1        0.140055   290275.010547
        16        24     1        0.140055   290275.010547
        17        18     1        0.139982   300993.905762
        17        35     1        0.108463   321222.871582
        18        19     1        0.150871   204488.199023
        18        20     1        0.140338   274458.806152
        19        36     1        0.109363   302731.476221
        19        37     1        0.109363   302731.450684
        19        38     1        0.109363   302731.450684
        20        21     1        0.176898   133058.886670
        20        22     1        0.140338   274458.780615
        22        23     1        0.150871   204488.199023
        22        24     1        0.139982   300993.905762
        23        39     1        0.109363   302731.476221
        23        40     1        0.109363   302731.476221
        23        41     1        0.109363   302731.476221
        24        42     1        0.108463   321222.871582
        43        44     1        0.109324   299252.811182
        43        45     1        0.109324   299252.811182
        43        46     1        0.109324   299252.811182
        43        47     1        0.145520   215279.108887

[ angles ]
;       ai        aj        ak funct           theta             cth
         1         2         3     1      129.203857      712.858066
         1         2         4     1      115.498802      369.154238
         2         4        11     1      129.874374      412.862278
         2         4        47     1      122.396286      461.604129
         3         2         4     1      115.498802      369.154238
         4        11        10     1      106.956276      400.309161
         4        11        12     1      127.514793      413.655780
         4        47         5     1      109.060326      408.798590
         4        47        43     1      126.932579      423.673605
         5         6         7     1      117.730835      785.004358
         5         6        25     1      121.548080      432.980859
         5        10         9     1      118.782310      739.666157
         5        10        11     1      107.306015      289.531063
         5        47        43     1      123.622643      526.242383
         6         5        10     1      121.875870      643.095918
         6         5        47     1      130.131470      442.344871
         6         7         8     1      121.203529      623.387781
         6         7        26     1      119.398682      436.831728
         7         6        25     1      120.757263      440.721987
         7         8         9     1      120.992844      642.083755
         7         8        27     1      119.281410      445.778782
         8         7        26     1      119.418777      440.153435
         8         9        10     1      119.276939      727.997677
         8         9        28     1      120.577248      430.281906
         9         8        27     1      119.784264      439.732488
         9        10        11     1      134.136627      412.854266
        10         5        47     1      107.956093      191.725483
        10         9        28     1      120.241898      434.595379
        10        11        12     1      125.421432      462.970109
        11         4        47     1      108.783630      290.785510
        11        12        13     1      112.811356      543.535603
        11        12        29     1      109.189331      492.116856
        11        12        30     1      109.189331      492.116856
        12        13        14     1      112.623825      593.419984
        12        13        31     1      109.500244      484.409533
        12        13        32     1      109.500244      484.409533
        13        12        29     1      108.926468      484.579738
        13        12        30     1      108.926468      484.579738
        13        14        15     1      109.552856      621.752640
        13        14        33     1      110.734940      494.618216
        13        14        34     1      110.734940      494.618216
        14        13        31     1      108.792709      511.357823
        14        13        32     1      108.792709      511.357823
        14        15        16     1      118.844559      525.993364
        15        14        33     1      108.915588      459.732418
        15        14        34     1      108.915588      459.732418
        15        16        17     1      120.182823      539.222640
        15        16        24     1      120.182823      539.222704
        16        17        18     1      121.024536      726.137171
        16        17        35     1      119.719345      439.110851
        16        24        22     1      121.024536      726.137171
        16        24        42     1      119.719345      439.110787
        17        16        24     1      119.664146      578.709076
        17        18        19     1      120.321632      419.261047
        17        18        20     1      117.928101      622.323842
        18        17        35     1      119.245934      407.396315
        18        19        36     1      111.015518      475.802219
        18        19        37     1      111.015518      475.802219
        18        19        38     1      111.015518      475.802219
        18        20        21     1      118.560402      387.794126
        18        20        22     1      122.675980      600.905996
        19        18        20     1      121.863098      370.480189
        20        22        23     1      121.863098      370.480189
        20        22        24     1      117.928101      622.323842
        21        20        22     1      118.560402      387.794189
        22        23        39     1      111.015518      475.802219
        22        23        40     1      111.015518      475.802219
        22        23        41     1      111.015518      475.802219
        22        24        42     1      119.245934      407.396347
        23        22        24     1      120.321640      419.261047
        29        12        30     1      106.742416      356.644375
        31        13        32     1      107.017380      359.666787
        33        14        34     1      107.963120      344.594179
        36        19        37     1      107.895142      356.831338
        36        19        38     1      107.895142      356.831338
        37        19        38     1      107.895142      356.831338
        39        23        40     1      107.895142      356.831306
        39        23        41     1      107.895142      356.831306
        40        23        41     1      107.895142      356.831306
        44        43        45     1      109.238647      342.913550
        44        43        46     1      109.238647      342.913550
        44        43        47     1      109.631004      477.798391
        45        43        46     1      109.238647      342.913550
        45        43        47     1      109.631004      477.798391
        46        43        47     1      109.631004      477.798391

[ dihedrals ] ; propers for gromacs 4.5 or higher, use funct 9
;       ai        aj        ak        al funct           phase               k        pn
         1         2         4        11     9        0.000000       -1.899172         1
         1         2         4        11     9      180.000000        2.515447         2
         1         2         4        11     9        0.000000        0.062973         3
         1         2         4        11     9      180.000000       -0.069380         4
         1         2         4        47     9        0.000000        0.601864         1
         1         2         4        47     9      180.000000        4.944490         2
         1         2         4        47     9        0.000000        0.084036         3
         1         2         4        47     9      180.000000        0.156003         4
         2         4        11        10     9        0.000000        0.030792         1
         2         4        11        10     9      180.000000       15.597649         2
         2         4        11        10     9        0.000000       -1.177474         3
         2         4        11        10     9      180.000000       -0.669156         4
         2         4        11        12     9        0.000000        0.404696         1
         2         4        11        12     9      180.000000       12.606701         2
         2         4        11        12     9        0.000000        0.272377         3
         2         4        11        12     9      180.000000       -0.571557         4
         2         4        47         5     9        0.000000        0.096167         1
         2         4        47         5     9      180.000000        6.210409         2
         2         4        47         5     9        0.000000        0.393162         3
         2         4        47         5     9      180.000000        0.061865         4
         2         4        47        43     9        0.000000        0.869119         1
         2         4        47        43     9      180.000000        3.754949         2
         2         4        47        43     9        0.000000        0.277902         3
         2         4        47        43     9      180.000000       -0.058719         4
         3         2         4        11     9        0.000000       -1.899172         1
         3         2         4        11     9      180.000000        2.515447         2
         3         2         4        11     9        0.000000        0.062973         3
         3         2         4        11     9      180.000000       -0.069380         4
         3         2         4        47     9        0.000000        0.601864         1
         3         2         4        47     9      180.000000        4.944490         2
         3         2         4        47     9        0.000000        0.084036         3
         3         2         4        47     9      180.000000        0.156003         4
         4        11        10         5     9        0.000000        0.048746         1
         4        11        10         5     9      180.000000       23.621740         2
         4        11        10         5     9        0.000000       -8.020706         3
         4        11        10         5     9      180.000000       -0.032977         4
         4        11        10         9     9        0.000000       -0.349174         1
         4        11        10         9     9      180.000000        3.978311         2
         4        11        10         9     9        0.000000       -0.674813         3
         4        11        10         9     9      180.000000        0.414232         4
         4        11        12        13     9        0.000000       -1.537750         1
         4        11        12        13     9      180.000000        0.191031         2
         4        11        12        13     9        0.000000        0.005272         3
         4        11        12        13     9      180.000000       -0.064745         4
         4        11        12        29     9        0.000000        0.141067         1
         4        11        12        29     9      180.000000       -0.029458         2
         4        11        12        29     9        0.000000       -0.513582         3
         4        11        12        29     9      180.000000        0.182607         4
         4        11        12        30     9        0.000000        0.141067         1
         4        11        12        30     9      180.000000       -0.029458         2
         4        11        12        30     9        0.000000       -0.513582         3
         4        11        12        30     9      180.000000        0.182607         4
         4        47         5         6     9        0.000000        0.240250         1
         4        47         5         6     9      180.000000        3.459950         2
         4        47         5         6     9        0.000000        0.210236         3
         4        47         5         6     9      180.000000        0.238620         4
         4        47         5        10     9        0.000000       -0.177069         1
         4        47         5        10     9      180.000000       17.362846         2
         4        47         5        10     9        0.000000       -5.024220         3
         4        47         5        10     9      180.000000       -0.229898         4
         4        47        43        44     9        0.000000       -0.022129         1
         4        47        43        44     9      180.000000        0.035679         2
         4        47        43        44     9        0.000000       -0.211777         3
         4        47        43        44     9      180.000000        0.103633         4
         4        47        43        45     9        0.000000       -0.022129         1
         4        47        43        45     9      180.000000        0.035679         2
         4        47        43        45     9        0.000000       -0.211777         3
         4        47        43        45     9      180.000000        0.103633         4
         4        47        43        46     9        0.000000       -0.022129         1
         4        47        43        46     9      180.000000        0.035679         2
         4        47        43        46     9        0.000000       -0.211777         3
         4        47        43        46     9      180.000000        0.103633         4
         5         6         7         8     9        0.000000       -0.135056         1
         5         6         7         8     9      180.000000       21.336341         2
         5         6         7         8     9        0.000000       -1.849371         3
         5         6         7         8     9      180.000000       -0.508724         4
         5         6         7        26     9        0.000000       -0.047897         1
         5         6         7        26     9      180.000000       15.930828         2
         5         6         7        26     9        0.000000       -0.707174         3
         5         6         7        26     9      180.000000       -0.056028         4
         5        10         9         8     9        0.000000        0.042487         1
         5        10         9         8     9      180.000000       18.980367         2
         5        10         9         8     9        0.000000       -1.744873         3
         5        10         9         8     9      180.000000       -0.443677         4
         5        10         9        28     9        0.000000        0.465618         1
         5        10         9        28     9      180.000000       12.758665         2
         5        10         9        28     9        0.000000       -0.225918         3
         5        10         9        28     9      180.000000        0.008568         4
         5        10        11        12     9        0.000000        0.988850         1
         5        10        11        12     9      180.000000       11.418204         2
         5        10        11        12     9        0.000000        0.783225         3
         5        10        11        12     9      180.000000       -0.405753         4
         5        47         4        11     9        0.000000        0.256854         1
         5        47         4        11     9      180.000000       22.672656         2
         5        47         4        11     9        0.000000       -5.990867         3
         5        47         4        11     9      180.000000       -0.659461         4
         5        47        43        44     9        0.000000       -0.116573         1
         5        47        43        44     9      180.000000       -0.013500         2
         5        47        43        44     9        0.000000        1.067165         3
         5        47        43        44     9      180.000000        0.024343         4
         5        47        43        45     9        0.000000       -0.116573         1
         5        47        43        45     9      180.000000       -0.013500         2
         5        47        43        45     9        0.000000        1.067165         3
         5        47        43        45     9      180.000000        0.024343         4
         5        47        43        46     9        0.000000       -0.116573         1
         5        47        43        46     9      180.000000       -0.013500         2
         5        47        43        46     9        0.000000        1.067165         3
         5        47        43        46     9      180.000000        0.024343         4
         6         5        10         9     9        0.000000       -0.030330         1
         6         5        10         9     9      180.000000       10.004609         2
         6         5        10         9     9        0.000000       -1.390508         3
         6         5        10         9     9      180.000000       -0.012540         4
         6         5        10        11     9        0.000000        0.038716         1
         6         5        10        11     9      180.000000       10.203705         2
         6         5        10        11     9        0.000000       -2.404623         3
         6         5        10        11     9      180.000000        0.138852         4
         6         5        47        43     9        0.000000        0.072200         1
         6         5        47        43     9      180.000000        2.546192         2
         6         5        47        43     9        0.000000        0.170091         3
         6         5        47        43     9      180.000000        0.218715         4
         6         7         8         9     9        0.000000        0.046797         1
         6         7         8         9     9      180.000000       17.190836         2
         6         7         8         9     9        0.000000       -1.418503         3
         6         7         8         9     9      180.000000       -0.309045         4
         6         7         8        27     9        0.000000        0.023036         1
         6         7         8        27     9      180.000000       13.523852         2
         6         7         8        27     9        0.000000       -0.733308         3
         6         7         8        27     9      180.000000        0.151712         4
         7         6         5        10     9        0.000000       -0.065692         1
         7         6         5        10     9      180.000000       17.604667         2
         7         6         5        10     9        0.000000       -1.575035         3
         7         6         5        10     9      180.000000       -0.341768         4
         7         6         5        47     9        0.000000        0.329174         1
         7         6         5        47     9      180.000000       15.731442         2
         7         6         5        47     9        0.000000       -0.412813         3
         7         6         5        47     9      180.000000       -0.324084         4
         7         8         9        10     9        0.000000       -0.147030         1
         7         8         9        10     9      180.000000       21.527863         2
         7         8         9        10     9        0.000000       -1.765682         3
         7         8         9        10     9      180.000000       -0.538179         4
         7         8         9        28     9        0.000000        0.043043         1
         7         8         9        28     9      180.000000       15.325623         2
         7         8         9        28     9        0.000000       -0.610246         3
         7         8         9        28     9      180.000000        0.126123         4
         8         7         6        25     9        0.000000        0.084215         1
         8         7         6        25     9      180.000000       14.898501         2
         8         7         6        25     9        0.000000       -0.534251         3
         8         7         6        25     9      180.000000        0.122801         4
         8         9        10        11     9        0.000000       -0.151571         1
         8         9        10        11     9      180.000000       14.183614         2
         8         9        10        11     9        0.000000       -0.941205         3
         8         9        10        11     9      180.000000       -0.251411         4
         9         8         7        26     9        0.000000        0.060947         1
         9         8         7        26     9      180.000000       13.410799         2
         9         8         7        26     9        0.000000       -0.754682         3
         9         8         7        26     9      180.000000        0.158977         4
         9        10         5        47     9        0.000000        0.197392         1
         9        10         5        47     9      180.000000       10.087926         2
         9        10         5        47     9        0.000000       -2.294191         3
         9        10         5        47     9      180.000000        0.134475         4
         9        10        11        12     9        0.000000       -0.465582         1
         9        10        11        12     9      180.000000        5.692598         2
         9        10        11        12     9        0.000000        0.192310         3
         9        10        11        12     9      180.000000        0.171095         4
        10         5         6        25     9        0.000000        0.114819         1
        10         5         6        25     9      180.000000       12.050192         2
        10         5         6        25     9        0.000000       -0.224669         3
        10         5         6        25     9      180.000000       -0.014640         4
        10         5        47        43     9        0.000000        0.652505         1
        10         5        47        43     9      180.000000        2.874677         2
        10         5        47        43     9        0.000000        0.930592         3
        10         5        47        43     9      180.000000        0.193218         4
        10         9         8        27     9        0.000000        0.052207         1
        10         9         8        27     9      180.000000       16.353372         2
        10         9         8        27     9        0.000000       -0.559320         3
        10         9         8        27     9      180.000000       -0.088107         4
        10        11         4        47     9        0.000000        0.084869         1
        10        11         4        47     9      180.000000       32.543062         2
        10        11         4        47     9        0.000000       -7.005614         3
        10        11         4        47     9      180.000000       -0.263795         4
        10        11        12        13     9        0.000000       -0.553955         1
        10        11        12        13     9      180.000000       -0.017253         2
        10        11        12        13     9        0.000000        0.323631         3
        10        11        12        13     9      180.000000        0.037564         4
        10        11        12        29     9        0.000000        0.026646         1
        10        11        12        29     9      180.000000        0.019271         2
        10        11        12        29     9        0.000000        0.342867         3
        10        11        12        29     9      180.000000        0.119892         4
        10        11        12        30     9        0.000000        0.026646         1
        10        11        12        30     9      180.000000        0.019271         2
        10        11        12        30     9        0.000000        0.342867         3
        10        11        12        30     9      180.000000        0.119892         4
        11         4        47        43     9        0.000000        1.875565         1
        11         4        47        43     9      180.000000        3.002994         2
        11         4        47        43     9        0.000000        0.800671         3
        11         4        47        43     9      180.000000        0.309840         4
        11        10         5        47     9        0.000000        0.133744         1
        11        10         5        47     9      180.000000       20.543511         2
        11        10         5        47     9        0.000000       -7.173434         3
        11        10         5        47     9      180.000000       -0.294648         4
        11        10         9        28     9        0.000000       -0.119786         1
        11        10         9        28     9      180.000000       10.200453         2
        11        10         9        28     9        0.000000       -0.117798         3
        11        10         9        28     9      180.000000        0.072771         4
        11        12        13        14     9        0.000000       -0.935806         1
        11        12        13        14     9      180.000000       -0.148797         2
        11        12        13        14     9        0.000000        0.444950         3
        11        12        13        14     9      180.000000       -0.021333         4
        11        12        13        31     9        0.000000        0.184049         1
        11        12        13        31     9      180.000000        0.027152         2
        11        12        13        31     9        0.000000        0.603032         3
        11        12        13        31     9      180.000000        0.010396         4
        11        12        13        32     9        0.000000        0.184049         1
        11        12        13        32     9      180.000000        0.027152         2
        11        12        13        32     9        0.000000        0.603032         3
        11        12        13        32     9      180.000000        0.010396         4
        12        11         4        47     9        0.000000        0.864551         1
        12        11         4        47     9      180.000000       18.248465         2
        12        11         4        47     9        0.000000        0.581983         3
        12        11         4        47     9      180.000000       -1.168906         4
        12        13        14        15     9        0.000000       -1.430134         1
        12        13        14        15     9      180.000000       -0.381834         2
        12        13        14        15     9        0.000000        0.472392         3
        12        13        14        15     9      180.000000        0.018792         4
        12        13        14        33     9        0.000000        0.059387         1
        12        13        14        33     9      180.000000        0.050838         2
        12        13        14        33     9        0.000000        0.654038         3
        12        13        14        33     9      180.000000        0.043320         4
        12        13        14        34     9        0.000000        0.059387         1
        12        13        14        34     9      180.000000        0.050838         2
        12        13        14        34     9        0.000000        0.654038         3
        12        13        14        34     9      180.000000        0.043320         4
        13        14        15        16     9        0.000000        0.351537         1
        13        14        15        16     9      180.000000        0.157599         2
        13        14        15        16     9        0.000000        0.685578         3
        13        14        15        16     9      180.000000        0.026758         4
        14        13        12        29     9        0.000000       -0.131409         1
        14        13        12        29     9      180.000000        0.052373         2
        14        13        12        29     9        0.000000        0.497442         3
        14        13        12        29     9      180.000000        0.025924         4
        14        13        12        30     9        0.000000       -0.131409         1
        14        13        12        30     9      180.000000        0.052373         2
        14        13        12        30     9        0.000000        0.497442         3
        14        13        12        30     9      180.000000        0.025924         4
        14        15        16        17     9        0.000000       -0.137734         1
        14        15        16        17     9      180.000000        5.126576         2
        14        15        16        17     9        0.000000        0.103179         3
        14        15        16        17     9      180.000000        0.346239         4
        14        15        16        24     9        0.000000       -0.137733         1
        14        15        16        24     9      180.000000        5.126576         2
        14        15        16        24     9        0.000000        0.103180         3
        14        15        16        24     9      180.000000        0.346239         4
        15        14        13        31     9        0.000000        0.058555         1
        15        14        13        31     9      180.000000        0.166947         2
        15        14        13        31     9        0.000000        0.483446         3
        15        14        13        31     9      180.000000        0.072634         4
        15        14        13        32     9        0.000000        0.058555         1
        15        14        13        32     9      180.000000        0.166947         2
        15        14        13        32     9        0.000000        0.483446         3
        15        14        13        32     9      180.000000        0.072634         4
        15        16        17        18     9        0.000000        0.301612         1
        15        16        17        18     9      180.000000       16.852349         2
        15        16        17        18     9        0.000000        0.363219         3
        15        16        17        18     9      180.000000       -0.324670         4
        15        16        17        35     9        0.000000        0.077569         1
        15        16        17        35     9      180.000000       12.867849         2
        15        16        17        35     9        0.000000       -0.083698         3
        15        16        17        35     9      180.000000        0.318108         4
        15        16        24        22     9        0.000000        0.301612         1
        15        16        24        22     9      180.000000       16.852349         2
        15        16        24        22     9        0.000000        0.363219         3
        15        16        24        22     9      180.000000       -0.324669         4
        15        16        24        42     9        0.000000        0.077569         1
        15        16        24        42     9      180.000000       12.867848         2
        15        16        24        42     9        0.000000       -0.083698         3
        15        16        24        42     9      180.000000        0.318108         4
        16        15        14        33     9        0.000000       -0.180130         1
        16        15        14        33     9      180.000000        0.036843         2
        16        15        14        33     9        0.000000        0.827393         3
        16        15        14        33     9      180.000000       -0.048875         4
        16        15        14        34     9        0.000000       -0.180130         1
        16        15        14        34     9      180.000000        0.036843         2
        16        15        14        34     9        0.000000        0.827393         3
        16        15        14        34     9      180.000000       -0.048875         4
        16        17        18        19     9        0.000000        0.079422         1
        16        17        18        19     9      180.000000       16.350832         2
        16        17        18        19     9        0.000000       -0.049451         3
        16        17        18        19     9      180.000000       -0.286105         4
        16        17        18        20     9        0.000000       -0.118684         1
        16        17        18        20     9      180.000000       18.963111         2
        16        17        18        20     9        0.000000       -1.419004         3
        16        17        18        20     9      180.000000       -0.550490         4
        16        24        22        20     9        0.000000       -0.118683         1
        16        24        22        20     9      180.000000       18.963109         2
        16        24        22        20     9        0.000000       -1.419004         3
        16        24        22        20     9      180.000000       -0.550490         4
        16        24        22        23     9        0.000000        0.079421         1
        16        24        22        23     9      180.000000       16.350832         2
        16        24        22        23     9        0.000000       -0.049452         3
        16        24        22        23     9      180.000000       -0.286105         4
        17        16        24        22     9        0.000000       -0.103053         1
        17        16        24        22     9      180.000000       15.653163         2
        17        16        24        22     9        0.000000       -1.003742         3
        17        16        24        22     9      180.000000       -0.230044         4
        17        16        24        42     9        0.000000        0.054561         1
        17        16        24        42     9      180.000000       12.313195         2
        17        16        24        42     9        0.000000       -0.472030         3
        17        16        24        42     9      180.000000        0.201015         4
        17        18        19        36     9        0.000000       -0.020052         1
        17        18        19        36     9      180.000000        0.002010         2
        17        18        19        36     9        0.000000       -0.133025         3
        17        18        19        36     9      180.000000        0.002394         4
        17        18        19        37     9        0.000000       -0.020053         1
        17        18        19        37     9      180.000000        0.002010         2
        17        18        19        37     9        0.000000       -0.133025         3
        17        18        19        37     9      180.000000        0.002394         4
        17        18        19        38     9        0.000000       -0.020053         1
        17        18        19        38     9      180.000000        0.002010         2
        17        18        19        38     9        0.000000       -0.133025         3
        17        18        19        38     9      180.000000        0.002394         4
        17        18        20        21     9        0.000000        0.212531         1
        17        18        20        21     9      180.000000       18.642595         2
        17        18        20        21     9        0.000000        0.197826         3
        17        18        20        21     9      180.000000       -0.606702         4
        17        18        20        22     9        0.000000       -0.076351         1
        17        18        20        22     9      180.000000       17.006314         2
        17        18        20        22     9        0.000000       -1.141110         3
        17        18        20        22     9      180.000000       -0.339527         4
        18        17        16        24     9        0.000000       -0.103052         1
        18        17        16        24     9      180.000000       15.653163         2
        18        17        16        24     9        0.000000       -1.003742         3
        18        17        16        24     9      180.000000       -0.230044         4
        18        20        22        23     9        0.000000        0.210009         1
        18        20        22        23     9      180.000000       13.888542         2
        18        20        22        23     9        0.000000       -0.204866         3
        18        20        22        23     9      180.000000       -0.185053         4
        18        20        22        24     9        0.000000       -0.076353         1
        18        20        22        24     9      180.000000       17.006314         2
        18        20        22        24     9        0.000000       -1.141109         3
        18        20        22        24     9      180.000000       -0.339527         4
        19        18        17        35     9        0.000000       -0.123001         1
        19        18        17        35     9      180.000000       13.141090         2
        19        18        17        35     9        0.000000       -0.476172         3
        19        18        17        35     9      180.000000        0.276766         4
        19        18        20        21     9        0.000000       -0.154583         1
        19        18        20        21     9      180.000000       16.420763         2
        19        18        20        21     9        0.000000       -0.142787         3
        19        18        20        21     9      180.000000       -0.451462         4
        19        18        20        22     9        0.000000        0.210008         1
        19        18        20        22     9      180.000000       13.888543         2
        19        18        20        22     9        0.000000       -0.204866         3
        19        18        20        22     9      180.000000       -0.185053         4
        20        18        17        35     9        0.000000        0.145216         1
        20        18        17        35     9      180.000000       13.905365         2
        20        18        17        35     9        0.000000       -0.387717         3
        20        18        17        35     9      180.000000        0.192985         4
        20        18        19        36     9        0.000000       -0.013438         1
        20        18        19        36     9      180.000000       -0.011172         2
        20        18        19        36     9        0.000000        0.211639         3
        20        18        19        36     9      180.000000        0.022789         4
        20        18        19        37     9        0.000000       -0.013438         1
        20        18        19        37     9      180.000000       -0.011171         2
        20        18        19        37     9        0.000000        0.211639         3
        20        18        19        37     9      180.000000        0.022789         4
        20        18        19        38     9        0.000000       -0.013438         1
        20        18        19        38     9      180.000000       -0.011171         2
        20        18        19        38     9        0.000000        0.211639         3
        20        18        19        38     9      180.000000        0.022789         4
        20        22        23        39     9        0.000000       -0.013439         1
        20        22        23        39     9      180.000000       -0.011172         2
        20        22        23        39     9        0.000000        0.211639         3
        20        22        23        39     9      180.000000        0.022789         4
        20        22        23        40     9        0.000000       -0.013439         1
        20        22        23        40     9      180.000000       -0.011172         2
        20        22        23        40     9        0.000000        0.211639         3
        20        22        23        40     9      180.000000        0.022789         4
        20        22        23        41     9        0.000000       -0.013439         1
        20        22        23        41     9      180.000000       -0.011172         2
        20        22        23        41     9        0.000000        0.211639         3
        20        22        23        41     9      180.000000        0.022789         4
        20        22        24        42     9        0.000000        0.145216         1
        20        22        24        42     9      180.000000       13.905366         2
        20        22        24        42     9        0.000000       -0.387716         3
        20        22        24        42     9      180.000000        0.192985         4
        21        20        22        23     9        0.000000       -0.154582         1
        21        20        22        23     9      180.000000       16.420763         2
        21        20        22        23     9        0.000000       -0.142788         3
        21        20        22        23     9      180.000000       -0.451462         4
        21        20        22        24     9        0.000000        0.212531         1
        21        20        22        24     9      180.000000       18.642597         2
        21        20        22        24     9        0.000000        0.197826         3
        21        20        22        24     9      180.000000       -0.606703         4
        23        22        24        42     9        0.000000       -0.123002         1
        23        22        24        42     9      180.000000       13.141091         2
        23        22        24        42     9        0.000000       -0.476172         3
        23        22        24        42     9      180.000000        0.276766         4
        24        16        17        35     9        0.000000        0.054560         1
        24        16        17        35     9      180.000000       12.313195         2
        24        16        17        35     9        0.000000       -0.472030         3
        24        16        17        35     9      180.000000        0.201016         4
        24        22        23        39     9        0.000000       -0.020052         1
        24        22        23        39     9      180.000000        0.002010         2
        24        22        23        39     9        0.000000       -0.133025         3
        24        22        23        39     9      180.000000        0.002394         4
        24        22        23        40     9        0.000000       -0.020052         1
        24        22        23        40     9      180.000000        0.002010         2
        24        22        23        40     9        0.000000       -0.133025         3
        24        22        23        40     9      180.000000        0.002394         4
        24        22        23        41     9        0.000000       -0.020052         1
        24        22        23        41     9      180.000000        0.002010         2
        24        22        23        41     9        0.000000       -0.133025         3
        24        22        23        41     9      180.000000        0.002394         4
        25         6         5        47     9        0.000000        0.121567         1
        25         6         5        47     9      180.000000       11.151974         2
        25         6         5        47     9        0.000000       -0.201950         3
        25         6         5        47     9      180.000000        0.146708         4
        25         6         7        26     9        0.000000       -0.082683         1
        25         6         7        26     9      180.000000       12.137275         2
        25         6         7        26     9        0.000000       -0.659478         3
        25         6         7        26     9      180.000000        0.246215         4
        26         7         8        27     9        0.000000       -0.082924         1
        26         7         8        27     9      180.000000       10.886356         2
        26         7         8        27     9        0.000000       -0.496660         3
        26         7         8        27     9      180.000000        0.193024         4
        27         8         9        28     9        0.000000       -0.162651         1
        27         8         9        28     9      180.000000       12.504852         2
        27         8         9        28     9        0.000000       -0.659666         3
        27         8         9        28     9      180.000000        0.275548         4
        29        12        13        31     9        0.000000        0.013511         1
        29        12        13        31     9      180.000000        0.031778         2
        29        12        13        31     9        0.000000        0.615523         3
        29        12        13        31     9      180.000000       -0.015043         4
        29        12        13        32     9        0.000000        0.013511         1
        29        12        13        32     9      180.000000        0.031778         2
        29        12        13        32     9        0.000000        0.615523         3
        29        12        13        32     9      180.000000       -0.015043         4
        30        12        13        31     9        0.000000        0.013511         1
        30        12        13        31     9      180.000000        0.031778         2
        30        12        13        31     9        0.000000        0.615523         3
        30        12        13        31     9      180.000000       -0.015043         4
        30        12        13        32     9        0.000000        0.013511         1
        30        12        13        32     9      180.000000        0.031778         2
        30        12        13        32     9        0.000000        0.615523         3
        30        12        13        32     9      180.000000       -0.015043         4
        31        13        14        33     9        0.000000       -0.001071         1
        31        13        14        33     9      180.000000       -0.020826         2
        31        13        14        33     9        0.000000        0.671101         3
        31        13        14        33     9      180.000000       -0.051736         4
        31        13        14        34     9        0.000000       -0.001071         1
        31        13        14        34     9      180.000000       -0.020826         2
        31        13        14        34     9        0.000000        0.671101         3
        31        13        14        34     9      180.000000       -0.051736         4
        32        13        14        33     9        0.000000       -0.001071         1
        32        13        14        33     9      180.000000       -0.020826         2
        32        13        14        33     9        0.000000        0.671101         3
        32        13        14        33     9      180.000000       -0.051736         4
        32        13        14        34     9        0.000000       -0.001071         1
        32        13        14        34     9      180.000000       -0.020826         2
        32        13        14        34     9        0.000000        0.671101         3
        32        13        14        34     9      180.000000       -0.051736         4

[ dihedrals ] ; impropers
;       ai        aj        ak        al funct           phase               k        pn
         2         1         3         4     4      180.000000       27.893333         2
         2         3         4         1     4      180.000000       27.893333         2
         2         4         1         3     4      180.000000       27.893333         2

[ pairs ]
;       ai        aj funct
         1        11     1
         1        47     1
         2         5     1
         2        10     1
         2        12     1
         2        43     1
         3        11     1
         3        47     1
         4         6     1
         4         9     1
         4        13     1
         4        29     1
         4        30     1
         4        44     1
         4        45     1
         4        46     1
         5         8     1
         5        12     1
         5        26     1
         5        28     1
         5        44     1
         5        45     1
         5        46     1
         6         9     1
         6        11     1
         6        27     1
         6        43     1
         7        10     1
         7        28     1
         7        47     1
         8        11     1
         8        25     1
         9        12     1
         9        26     1
         9        47     1
        10        13     1
        10        25     1
        10        27     1
        10        29     1
        10        30     1
        10        43     1
        11        14     1
        11        28     1
        11        31     1
        11        32     1
        11        43     1
        12        15     1
        12        33     1
        12        34     1
        12        47     1
        13        16     1
        14        17     1
        14        24     1
        14        29     1
        14        30     1
        15        18     1
        15        22     1
        15        31     1
        15        32     1
        15        35     1
        15        42     1
        16        19     1
        16        20     1
        16        23     1
        16        33     1
        16        34     1
        17        21     1
        17        22     1
        17        36     1
        17        37     1
        17        38     1
        17        42     1
        18        23     1
        18        24     1
        19        21     1
        19        22     1
        19        35     1
        20        35     1
        20        36     1
        20        37     1
        20        38     1
        20        39     1
        20        40     1
        20        41     1
        20        42     1
        21        23     1
        21        24     1
        23        42     1
        24        35     1
        24        39     1
        24        40     1
        24        41     1
        25        26     1
        25        47     1
        26        27     1
        27        28     1
        29        31     1
        29        32     1
        30        31     1
        30        32     1
        31        33     1
        31        34     1
        32        33     1
        32        34     1
