; ITP file created by ByteFF-ML, 2026-02-21 08:20:14.245347

[ atomtypes ]
;name           bonded.type        at.num        mass        charge   ptype           sigma         epsilon
 o0bf                                   8      0.0000       0.00000       A     3.04718e-01     6.11713e-01
 c1bf                                   6      0.0000       0.00000       A     3.31077e-01     4.09176e-01
 o2bf                                   8      0.0000       0.00000       A     3.04718e-01     6.11713e-01
 c3bf                                   6      0.0000       0.00000       A     3.31550e-01     4.13337e-01
 c4bf                                   6      0.0000       0.00000       A     3.31460e-01     4.11495e-01
 c5bf                                   6      0.0000       0.00000       A     3.31423e-01     4.12410e-01
 c6bf                                   6      0.0000       0.00000       A     3.31471e-01     4.12914e-01
 c7bf                                   6      0.0000       0.00000       A     3.31507e-01     4.12945e-01
 c8bf                                   6      0.0000       0.00000       A     3.31450e-01     4.12231e-01
 c9bf                                   6      0.0000       0.00000       A     3.31403e-01     4.11614e-01
 c10bf                                  6      0.0000       0.00000       A     3.31236e-01     4.14884e-01
 c11bf                                  6      0.0000       0.00000       A     3.39712e-01     4.51876e-01
 c12bf                                  6      0.0000       0.00000       A     3.39821e-01     4.50732e-01
 c13bf                                  6      0.0000       0.00000       A     3.39754e-01     4.50898e-01
 o14bf                                  8      0.0000       0.00000       A     3.15651e-01     3.02535e-01
 c15bf                                  6      0.0000       0.00000       A     3.31537e-01     4.12716e-01
 c16bf                                  6      0.0000       0.00000       A     3.31524e-01     4.13117e-01
 c17bf                                  6      0.0000       0.00000       A     3.31486e-01     4.13091e-01
 c18bf                                  6      0.0000       0.00000       A     3.31594e-01     4.13024e-01
 h19bf                                  1      0.0000       0.00000       A     2.62526e-01     6.73270e-02
 h20bf                                  1      0.0000       0.00000       A     2.62453e-01     6.74531e-02
 h21bf                                  1      0.0000       0.00000       A     2.62437e-01     6.74722e-02
 h22bf                                  1      0.0000       0.00000       A     2.62476e-01     6.69056e-02
 h23bf                                  1      0.0000       0.00000       A     2.59715e-01     8.74790e-02
 h24bf                                  1      0.0000       0.00000       A     2.59715e-01     8.74790e-02
 h25bf                                  1      0.0000       0.00000       A     2.60066e-01     8.68629e-02
 h26bf                                  1      0.0000       0.00000       A     2.60066e-01     8.68629e-02
 h27bf                                  1      0.0000       0.00000       A     2.42108e-01     8.76817e-02
 h28bf                                  1      0.0000       0.00000       A     2.42108e-01     8.76817e-02
 h29bf                                  1      0.0000       0.00000       A     2.62519e-01     6.71818e-02
 c30bf                                  6      0.0000       0.00000       A     3.31438e-01     4.12965e-01
 c31bf                                  6      0.0000       0.00000       A     3.31417e-01     4.12957e-01
 c32bf                                  6      0.0000       0.00000       A     3.31506e-01     4.12777e-01
 c33bf                                  6      0.0000       0.00000       A     3.31499e-01     4.12734e-01
 c34bf                                  6      0.0000       0.00000       A     3.31524e-01     4.13114e-01
 c35bf                                  6      0.0000       0.00000       A     3.31510e-01     4.13502e-01
 h36bf                                  1      0.0000       0.00000       A     2.62478e-01     6.75951e-02
 h37bf                                  1      0.0000       0.00000       A     2.62489e-01     6.75504e-02
 h38bf                                  1      0.0000       0.00000       A     2.62489e-01     6.75504e-02
 h39bf                                  1      0.0000       0.00000       A     2.62512e-01     6.75552e-02
 h40bf                                  1      0.0000       0.00000       A     2.62575e-01     6.75281e-02
 h41bf                                  1      0.0000       0.00000       A     2.62512e-01     6.75552e-02
 c42bf                                  6      0.0000       0.00000       A     3.39879e-01     4.50883e-01
 h43bf                                  1      0.0000       0.00000       A     2.41962e-01     8.74215e-02
 h44bf                                  1      0.0000       0.00000       A     2.41962e-01     8.74215e-02
 h45bf                                  1      0.0000       0.00000       A     2.41962e-01     8.74215e-02
 n46bf                                  7      0.0000       0.00000       A     3.20778e-01     8.58454e-01

[ moleculetype ]
;name             nrexcl
 57                    3

[ atoms ]
;       nr            type      resi   res      atom      cgnr      charge          mass ; qtot
         1            o0bf         1   UNL        o0         1    -0.72896       15.9990 ; qtot   -0.729
         2            c1bf         1   UNL        c1         2     0.70860       12.0110 ; qtot   -0.020
         3            o2bf         1   UNL        o2         3    -0.72896       15.9990 ; qtot   -0.749
         4            c3bf         1   UNL        c3         4    -0.08646       12.0110 ; qtot   -0.836
         5            c4bf         1   UNL        c4         5    -0.06807       12.0110 ; qtot   -0.904
         6            c5bf         1   UNL        c5         6    -0.13622       12.0110 ; qtot   -1.040
         7            c6bf         1   UNL        c6         7    -0.09412       12.0110 ; qtot   -1.134
         8            c7bf         1   UNL        c7         8    -0.14488       12.0110 ; qtot   -1.279
         9            c8bf         1   UNL        c8         9    -0.07048       12.0110 ; qtot   -1.350
        10            c9bf         1   UNL        c9        10    -0.10350       12.0110 ; qtot   -1.453
        11           c10bf         1   UNL       c10        11    -0.18890       12.0110 ; qtot   -1.642
        12           c11bf         1   UNL       c11        12    -0.00995       12.0110 ; qtot   -1.652
        13           c12bf         1   UNL       c12        13    -0.09012       12.0110 ; qtot   -1.742
        14           c13bf         1   UNL       c13        14     0.16333       12.0110 ; qtot   -1.579
        15           o14bf         1   UNL       o14        15    -0.35661       15.9990 ; qtot   -1.935
        16           c15bf         1   UNL       c15        16     0.15056       12.0110 ; qtot   -1.785
        17           c16bf         1   UNL       c16        17    -0.12634       12.0110 ; qtot   -1.911
        18           c17bf         1   UNL       c17        18    -0.07425       12.0110 ; qtot   -1.985
        19           c18bf         1   UNL       c18        19    -0.20031       12.0110 ; qtot   -2.186
        20           h19bf         1   UNL       h19        20     0.11519        1.0080 ; qtot   -2.070
        21           h20bf         1   UNL       h20        21     0.11239        1.0080 ; qtot   -1.958
        22           h21bf         1   UNL       h21        22     0.11224        1.0080 ; qtot   -1.846
        23           h22bf         1   UNL       h22        23     0.11944        1.0080 ; qtot   -1.726
        24           h23bf         1   UNL       h23        24     0.04466        1.0080 ; qtot   -1.682
        25           h24bf         1   UNL       h24        25     0.04466        1.0080 ; qtot   -1.637
        26           h25bf         1   UNL       h25        26     0.05535        1.0080 ; qtot   -1.582
        27           h26bf         1   UNL       h26        27     0.05535        1.0080 ; qtot   -1.526
        28           h27bf         1   UNL       h27        28     0.04594        1.0080 ; qtot   -1.480
        29           h28bf         1   UNL       h28        29     0.04594        1.0080 ; qtot   -1.434
        30           h29bf         1   UNL       h29        30     0.12425        1.0080 ; qtot   -1.310
        31           c30bf         1   UNL       c30        31    -0.01913       12.0110 ; qtot   -1.329
        32           c31bf         1   UNL       c31        32    -0.05616       12.0110 ; qtot   -1.386
        33           c32bf         1   UNL       c32        33    -0.08309       12.0110 ; qtot   -1.469
        34           c33bf         1   UNL       c33        34    -0.11798       12.0110 ; qtot   -1.587
        35           c34bf         1   UNL       c34        35    -0.10337       12.0110 ; qtot   -1.690
        36           c35bf         1   UNL       c35        36    -0.10785       12.0110 ; qtot   -1.798
        37           h36bf         1   UNL       h36        37     0.12259        1.0080 ; qtot   -1.675
        38           h37bf         1   UNL       h37        38     0.11645        1.0080 ; qtot   -1.559
        39           h38bf         1   UNL       h38        39     0.11510        1.0080 ; qtot   -1.444
        40           h39bf         1   UNL       h39        40     0.11419        1.0080 ; qtot   -1.329
        41           h40bf         1   UNL       h40        41     0.11744        1.0080 ; qtot   -1.212
        42           h41bf         1   UNL       h41        42     0.11579        1.0080 ; qtot   -1.096
        43           c42bf         1   UNL       c42        43     0.05289       12.0110 ; qtot   -1.043
        44           h43bf         1   UNL       h43        44     0.04517        1.0080 ; qtot   -0.998
        45           h44bf         1   UNL       h44        45     0.04517        1.0080 ; qtot   -0.953
        46           h45bf         1   UNL       h45        46     0.04517        1.0080 ; qtot   -0.908
        47           n46bf         1   UNL       n46        47    -0.09215       14.0070 ; qtot   -1.000

[ bonds ]
;       ai        aj funct               r               k
         1         2     1        0.126270   477551.810742
         2         3     1        0.126270   477551.810742
         2         4     1        0.153497   124554.901563
         4        11     1        0.138900   330774.414453
         4        47     1        0.140235   227394.730762
         5         6     1        0.140276   303404.481201
         5        10     1        0.143026   235167.792725
         5        47     1        0.137636   273720.221875
         6         7     1        0.139440   322906.482129
         6        20     1        0.108587   318844.626123
         7         8     1        0.141221   281261.100439
         7        21     1        0.108605   319818.943457
         8         9     1        0.139187   326620.165186
         8        22     1        0.108624   318958.700391
         9        10     1        0.140917   298352.168408
         9        23     1        0.108575   319785.540918
        10        11     1        0.143947   235043.554688
        11        12     1        0.150512   207163.836890
        12        13     1        0.154302   174789.460156
        12        24     1        0.109436   295477.507080
        12        25     1        0.109436   295477.507080
        13        14     1        0.152479   192757.549072
        13        26     1        0.109515   297660.291504
        13        27     1        0.109515   297660.291504
        14        15     1        0.143585   183492.711328
        14        28     1        0.109622   291623.420996
        14        29     1        0.109622   291623.420996
        15        16     1        0.136880   263000.049805
        16        19     1        0.138388   327644.535254
        16        32     1        0.143216   239978.830908
        17        18     1        0.137744   360046.938965
        17        31     1        0.142250   272881.225684
        17        42     1        0.108642   317826.027441
        18        19     1        0.141680   278367.005371
        18        41     1        0.108615   319669.193848
        19        30     1        0.108351   324498.669824
        31        32     1        0.143188   247084.684814
        31        36     1        0.142264   273009.983789
        32        33     1        0.141965   274220.391699
        33        34     1        0.138176   348945.548926
        33        37     1        0.108502   321068.755127
        34        35     1        0.141767   274309.822656
        34        38     1        0.108610   320314.874121
        35        36     1        0.138000   354661.622266
        35        39     1        0.108630   319777.241357
        36        40     1        0.108689   316406.981348
        43        44     1        0.109324   299252.811182
        43        45     1        0.109324   299252.811182
        43        46     1        0.109324   299252.836719
        43        47     1        0.145520   215279.108887

[ angles ]
;       ai        aj        ak funct           theta             cth
         1         2         3     1      129.203857      712.858066
         1         2         4     1      115.498802      369.154238
         2         4        11     1      129.874374      412.862278
         2         4        47     1      122.396286      461.604129
         3         2         4     1      115.498802      369.154238
         4        11        10     1      106.956276      400.309161
         4        11        12     1      127.514793      413.655780
         4        47         5     1      109.060326      408.798590
         4        47        43     1      126.932579      423.673605
         5         6         7     1      117.730835      785.004358
         5         6        20     1      121.548080      432.980828
         5        10         9     1      118.782310      739.666157
         5        10        11     1      107.306015      289.531063
         5        47        43     1      123.622643      526.242383
         6         5        10     1      121.875870      643.095918
         6         5        47     1      130.131470      442.344871
         6         7         8     1      121.203529      623.387781
         6         7        21     1      119.398682      436.831728
         7         6        20     1      120.757263      440.721987
         7         8         9     1      120.992844      642.083755
         7         8        22     1      119.281410      445.778782
         8         7        21     1      119.418777      440.153467
         8         9        10     1      119.276939      727.997677
         8         9        23     1      120.577248      430.281842
         9         8        22     1      119.784264      439.732488
         9        10        11     1      134.136627      412.854266
        10         5        47     1      107.956093      191.725483
        10         9        23     1      120.241898      434.595316
        10        11        12     1      125.421432      462.970109
        11         4        47     1      108.783630      290.785510
        11        12        13     1      112.811707      543.670119
        11        12        24     1      109.189331      492.116793
        11        12        25     1      109.189331      492.116856
        12        13        14     1      112.604324      592.419057
        12        13        26     1      109.503006      484.424664
        12        13        27     1      109.503006      484.424664
        13        12        24     1      108.924316      484.619353
        13        12        25     1      108.924316      484.619353
        13        14        15     1      109.371521      625.511448
        13        14        28     1      110.818993      494.243874
        13        14        29     1      110.818993      494.243874
        14        13        26     1      108.782150      510.566811
        14        13        27     1      108.782150      510.566811
        14        15        16     1      118.590530      506.055043
        15        14        28     1      108.759766      456.673296
        15        14        29     1      108.759766      456.673296
        15        16        19     1      124.759583      502.766693
        15        16        32     1      115.070114      461.977609
        16        19        18     1      119.907143      732.898568
        16        19        30     1      120.893105      435.016901
        16        32        31     1      118.639671      750.699976
        16        32        33     1      122.054665      490.901386
        17        18        19     1      120.985123      676.416547
        17        18        41     1      120.250893      440.489600
        17        31        32     1      119.276062      748.150159
        17        31        36     1      121.849464      433.121537
        18        17        31     1      120.161377      576.423314
        18        17        42     1      120.729111      441.885266
        18        19        30     1      119.268784      446.130300
        19        16        32     1      120.418556      547.932965
        19        18        41     1      118.739914      440.527075
        24        12        25     1      106.742432      356.644375
        26        13        27     1      107.020569      359.636781
        28        14        29     1      108.062378      344.404310
        31        17        42     1      119.087891      431.442153
        31        32        33     1      119.236160      766.215557
        31        36        35     1      120.870773      597.151211
        31        36        40     1      118.869949      429.537595
        32        31        36     1      118.749863      751.574750
        32        33        34     1      120.646530      615.206330
        32        33        37     1      118.965553      422.804513
        33        34        35     1      120.280899      693.560949
        33        34        38     1      120.042076      443.845942
        34        33        37     1      120.297569      430.608430
        34        35        36     1      120.101517      691.635770
        34        35        39     1      119.701599      442.982277
        35        34        38     1      119.687950      445.462792
        35        36        40     1      120.361694      440.939723
        36        35        39     1      120.194534      439.502239
        44        43        45     1      109.238647      342.913550
        44        43        46     1      109.238647      342.913550
        44        43        47     1      109.631004      477.798391
        45        43        46     1      109.238647      342.913550
        45        43        47     1      109.631004      477.798391
        46        43        47     1      109.631004      477.798391

[ dihedrals ] ; propers for gromacs 4.5 or higher, use funct 9
;       ai        aj        ak        al funct           phase               k        pn
         1         2         4        11     9        0.000000       -1.899172         1
         1         2         4        11     9      180.000000        2.515447         2
         1         2         4        11     9        0.000000        0.062973         3
         1         2         4        11     9      180.000000       -0.069380         4
         1         2         4        47     9        0.000000        0.601864         1
         1         2         4        47     9      180.000000        4.944490         2
         1         2         4        47     9        0.000000        0.084036         3
         1         2         4        47     9      180.000000        0.156003         4
         2         4        11        10     9        0.000000        0.030792         1
         2         4        11        10     9      180.000000       15.597649         2
         2         4        11        10     9        0.000000       -1.177474         3
         2         4        11        10     9      180.000000       -0.669156         4
         2         4        11        12     9        0.000000        0.404696         1
         2         4        11        12     9      180.000000       12.606701         2
         2         4        11        12     9        0.000000        0.272377         3
         2         4        11        12     9      180.000000       -0.571557         4
         2         4        47         5     9        0.000000        0.096167         1
         2         4        47         5     9      180.000000        6.210409         2
         2         4        47         5     9        0.000000        0.393162         3
         2         4        47         5     9      180.000000        0.061865         4
         2         4        47        43     9        0.000000        0.869119         1
         2         4        47        43     9      180.000000        3.754949         2
         2         4        47        43     9        0.000000        0.277902         3
         2         4        47        43     9      180.000000       -0.058719         4
         3         2         4        11     9        0.000000       -1.899172         1
         3         2         4        11     9      180.000000        2.515447         2
         3         2         4        11     9        0.000000        0.062973         3
         3         2         4        11     9      180.000000       -0.069380         4
         3         2         4        47     9        0.000000        0.601864         1
         3         2         4        47     9      180.000000        4.944490         2
         3         2         4        47     9        0.000000        0.084036         3
         3         2         4        47     9      180.000000        0.156003         4
         4        11        10         5     9        0.000000        0.048746         1
         4        11        10         5     9      180.000000       23.621740         2
         4        11        10         5     9        0.000000       -8.020706         3
         4        11        10         5     9      180.000000       -0.032977         4
         4        11        10         9     9        0.000000       -0.349174         1
         4        11        10         9     9      180.000000        3.978311         2
         4        11        10         9     9        0.000000       -0.674813         3
         4        11        10         9     9      180.000000        0.414232         4
         4        11        12        13     9        0.000000       -1.506861         1
         4        11        12        13     9      180.000000        0.186976         2
         4        11        12        13     9        0.000000        0.004545         3
         4        11        12        13     9      180.000000       -0.063946         4
         4        11        12        24     9        0.000000        0.141066         1
         4        11        12        24     9      180.000000       -0.029458         2
         4        11        12        24     9        0.000000       -0.513582         3
         4        11        12        24     9      180.000000        0.182607         4
         4        11        12        25     9        0.000000        0.141067         1
         4        11        12        25     9      180.000000       -0.029458         2
         4        11        12        25     9        0.000000       -0.513582         3
         4        11        12        25     9      180.000000        0.182607         4
         4        47         5         6     9        0.000000        0.240250         1
         4        47         5         6     9      180.000000        3.459950         2
         4        47         5         6     9        0.000000        0.210236         3
         4        47         5         6     9      180.000000        0.238620         4
         4        47         5        10     9        0.000000       -0.177069         1
         4        47         5        10     9      180.000000       17.362846         2
         4        47         5        10     9        0.000000       -5.024220         3
         4        47         5        10     9      180.000000       -0.229898         4
         4        47        43        44     9        0.000000       -0.022129         1
         4        47        43        44     9      180.000000        0.035679         2
         4        47        43        44     9        0.000000       -0.211777         3
         4        47        43        44     9      180.000000        0.103633         4
         4        47        43        45     9        0.000000       -0.022129         1
         4        47        43        45     9      180.000000        0.035679         2
         4        47        43        45     9        0.000000       -0.211777         3
         4        47        43        45     9      180.000000        0.103633         4
         4        47        43        46     9        0.000000       -0.022129         1
         4        47        43        46     9      180.000000        0.035679         2
         4        47        43        46     9        0.000000       -0.211777         3
         4        47        43        46     9      180.000000        0.103633         4
         5         6         7         8     9        0.000000       -0.135056         1
         5         6         7         8     9      180.000000       21.336341         2
         5         6         7         8     9        0.000000       -1.849371         3
         5         6         7         8     9      180.000000       -0.508724         4
         5         6         7        21     9        0.000000       -0.047897         1
         5         6         7        21     9      180.000000       15.930828         2
         5         6         7        21     9        0.000000       -0.707174         3
         5         6         7        21     9      180.000000       -0.056028         4
         5        10         9         8     9        0.000000        0.042487         1
         5        10         9         8     9      180.000000       18.980367         2
         5        10         9         8     9        0.000000       -1.744873         3
         5        10         9         8     9      180.000000       -0.443677         4
         5        10         9        23     9        0.000000        0.465617         1
         5        10         9        23     9      180.000000       12.758665         2
         5        10         9        23     9        0.000000       -0.225919         3
         5        10         9        23     9      180.000000        0.008568         4
         5        10        11        12     9        0.000000        0.988850         1
         5        10        11        12     9      180.000000       11.418204         2
         5        10        11        12     9        0.000000        0.783225         3
         5        10        11        12     9      180.000000       -0.405753         4
         5        47         4        11     9        0.000000        0.256854         1
         5        47         4        11     9      180.000000       22.672656         2
         5        47         4        11     9        0.000000       -5.990867         3
         5        47         4        11     9      180.000000       -0.659461         4
         5        47        43        44     9        0.000000       -0.116573         1
         5        47        43        44     9      180.000000       -0.013500         2
         5        47        43        44     9        0.000000        1.067165         3
         5        47        43        44     9      180.000000        0.024343         4
         5        47        43        45     9        0.000000       -0.116573         1
         5        47        43        45     9      180.000000       -0.013500         2
         5        47        43        45     9        0.000000        1.067165         3
         5        47        43        45     9      180.000000        0.024343         4
         5        47        43        46     9        0.000000       -0.116573         1
         5        47        43        46     9      180.000000       -0.013500         2
         5        47        43        46     9        0.000000        1.067165         3
         5        47        43        46     9      180.000000        0.024343         4
         6         5        10         9     9        0.000000       -0.030330         1
         6         5        10         9     9      180.000000       10.004609         2
         6         5        10         9     9        0.000000       -1.390508         3
         6         5        10         9     9      180.000000       -0.012540         4
         6         5        10        11     9        0.000000        0.038716         1
         6         5        10        11     9      180.000000       10.203705         2
         6         5        10        11     9        0.000000       -2.404623         3
         6         5        10        11     9      180.000000        0.138852         4
         6         5        47        43     9        0.000000        0.072200         1
         6         5        47        43     9      180.000000        2.546192         2
         6         5        47        43     9        0.000000        0.170091         3
         6         5        47        43     9      180.000000        0.218715         4
         6         7         8         9     9        0.000000        0.046797         1
         6         7         8         9     9      180.000000       17.190836         2
         6         7         8         9     9        0.000000       -1.418503         3
         6         7         8         9     9      180.000000       -0.309045         4
         6         7         8        22     9        0.000000        0.023035         1
         6         7         8        22     9      180.000000       13.523852         2
         6         7         8        22     9        0.000000       -0.733308         3
         6         7         8        22     9      180.000000        0.151711         4
         7         6         5        10     9        0.000000       -0.065692         1
         7         6         5        10     9      180.000000       17.604667         2
         7         6         5        10     9        0.000000       -1.575035         3
         7         6         5        10     9      180.000000       -0.341768         4
         7         6         5        47     9        0.000000        0.329174         1
         7         6         5        47     9      180.000000       15.731442         2
         7         6         5        47     9        0.000000       -0.412813         3
         7         6         5        47     9      180.000000       -0.324084         4
         7         8         9        10     9        0.000000       -0.147030         1
         7         8         9        10     9      180.000000       21.527863         2
         7         8         9        10     9        0.000000       -1.765682         3
         7         8         9        10     9      180.000000       -0.538179         4
         7         8         9        23     9        0.000000        0.043044         1
         7         8         9        23     9      180.000000       15.325623         2
         7         8         9        23     9        0.000000       -0.610247         3
         7         8         9        23     9      180.000000        0.126124         4
         8         7         6        20     9        0.000000        0.084215         1
         8         7         6        20     9      180.000000       14.898499         2
         8         7         6        20     9        0.000000       -0.534251         3
         8         7         6        20     9      180.000000        0.122802         4
         8         9        10        11     9        0.000000       -0.151571         1
         8         9        10        11     9      180.000000       14.183614         2
         8         9        10        11     9        0.000000       -0.941205         3
         8         9        10        11     9      180.000000       -0.251411         4
         9         8         7        21     9        0.000000        0.060947         1
         9         8         7        21     9      180.000000       13.410797         2
         9         8         7        21     9        0.000000       -0.754682         3
         9         8         7        21     9      180.000000        0.158977         4
         9        10         5        47     9        0.000000        0.197392         1
         9        10         5        47     9      180.000000       10.087926         2
         9        10         5        47     9        0.000000       -2.294191         3
         9        10         5        47     9      180.000000        0.134475         4
         9        10        11        12     9        0.000000       -0.465582         1
         9        10        11        12     9      180.000000        5.692598         2
         9        10        11        12     9        0.000000        0.192310         3
         9        10        11        12     9      180.000000        0.171095         4
        10         5         6        20     9        0.000000        0.114819         1
        10         5         6        20     9      180.000000       12.050192         2
        10         5         6        20     9        0.000000       -0.224669         3
        10         5         6        20     9      180.000000       -0.014640         4
        10         5        47        43     9        0.000000        0.652505         1
        10         5        47        43     9      180.000000        2.874677         2
        10         5        47        43     9        0.000000        0.930592         3
        10         5        47        43     9      180.000000        0.193218         4
        10         9         8        22     9        0.000000        0.052208         1
        10         9         8        22     9      180.000000       16.353372         2
        10         9         8        22     9        0.000000       -0.559321         3
        10         9         8        22     9      180.000000       -0.088107         4
        10        11         4        47     9        0.000000        0.084869         1
        10        11         4        47     9      180.000000       32.543062         2
        10        11         4        47     9        0.000000       -7.005614         3
        10        11         4        47     9      180.000000       -0.263795         4
        10        11        12        13     9        0.000000       -0.549012         1
        10        11        12        13     9      180.000000       -0.017221         2
        10        11        12        13     9        0.000000        0.322689         3
        10        11        12        13     9      180.000000        0.038952         4
        10        11        12        24     9        0.000000        0.026645         1
        10        11        12        24     9      180.000000        0.019270         2
        10        11        12        24     9        0.000000        0.342868         3
        10        11        12        24     9      180.000000        0.119892         4
        10        11        12        25     9        0.000000        0.026646         1
        10        11        12        25     9      180.000000        0.019271         2
        10        11        12        25     9        0.000000        0.342867         3
        10        11        12        25     9      180.000000        0.119892         4
        11         4        47        43     9        0.000000        1.875565         1
        11         4        47        43     9      180.000000        3.002994         2
        11         4        47        43     9        0.000000        0.800671         3
        11         4        47        43     9      180.000000        0.309840         4
        11        10         5        47     9        0.000000        0.133744         1
        11        10         5        47     9      180.000000       20.543511         2
        11        10         5        47     9        0.000000       -7.173434         3
        11        10         5        47     9      180.000000       -0.294648         4
        11        10         9        23     9        0.000000       -0.119786         1
        11        10         9        23     9      180.000000       10.200452         2
        11        10         9        23     9        0.000000       -0.117798         3
        11        10         9        23     9      180.000000        0.072770         4
        11        12        13        14     9        0.000000       -0.931706         1
        11        12        13        14     9      180.000000       -0.160809         2
        11        12        13        14     9        0.000000        0.432699         3
        11        12        13        14     9      180.000000       -0.028236         4
        11        12        13        26     9        0.000000        0.182465         1
        11        12        13        26     9      180.000000        0.028370         2
        11        12        13        26     9        0.000000        0.603325         3
        11        12        13        26     9      180.000000        0.010348         4
        11        12        13        27     9        0.000000        0.182465         1
        11        12        13        27     9      180.000000        0.028370         2
        11        12        13        27     9        0.000000        0.603325         3
        11        12        13        27     9      180.000000        0.010348         4
        12        11         4        47     9        0.000000        0.864551         1
        12        11         4        47     9      180.000000       18.248465         2
        12        11         4        47     9        0.000000        0.581983         3
        12        11         4        47     9      180.000000       -1.168906         4
        12        13        14        15     9        0.000000       -1.449090         1
        12        13        14        15     9      180.000000       -0.417756         2
        12        13        14        15     9        0.000000        0.459418         3
        12        13        14        15     9      180.000000        0.016594         4
        12        13        14        28     9        0.000000        0.060945         1
        12        13        14        28     9      180.000000        0.037877         2
        12        13        14        28     9        0.000000        0.655454         3
        12        13        14        28     9      180.000000        0.045188         4
        12        13        14        29     9        0.000000        0.060945         1
        12        13        14        29     9      180.000000        0.037877         2
        12        13        14        29     9        0.000000        0.655454         3
        12        13        14        29     9      180.000000        0.045188         4
        13        14        15        16     9        0.000000        0.196253         1
        13        14        15        16     9      180.000000        0.285090         2
        13        14        15        16     9        0.000000        0.670643         3
        13        14        15        16     9      180.000000        0.033449         4
        14        13        12        24     9        0.000000       -0.145644         1
        14        13        12        24     9      180.000000        0.054533         2
        14        13        12        24     9        0.000000        0.487347         3
        14        13        12        24     9      180.000000        0.026022         4
        14        13        12        25     9        0.000000       -0.145644         1
        14        13        12        25     9      180.000000        0.054533         2
        14        13        12        25     9        0.000000        0.487347         3
        14        13        12        25     9      180.000000        0.026022         4
        14        15        16        19     9        0.000000        0.989666         1
        14        15        16        19     9      180.000000        4.991141         2
        14        15        16        19     9        0.000000       -0.081631         3
        14        15        16        19     9      180.000000        0.346891         4
        14        15        16        32     9        0.000000       -0.998036         1
        14        15        16        32     9      180.000000        5.061945         2
        14        15        16        32     9        0.000000        0.142279         3
        14        15        16        32     9      180.000000        0.368076         4
        15        14        13        26     9        0.000000        0.036466         1
        15        14        13        26     9      180.000000        0.149894         2
        15        14        13        26     9        0.000000        0.480097         3
        15        14        13        26     9      180.000000        0.070791         4
        15        14        13        27     9        0.000000        0.036466         1
        15        14        13        27     9      180.000000        0.149894         2
        15        14        13        27     9        0.000000        0.480097         3
        15        14        13        27     9      180.000000        0.070791         4
        15        16        19        18     9        0.000000        0.481623         1
        15        16        19        18     9      180.000000       20.418200         2
        15        16        19        18     9        0.000000        0.590451         3
        15        16        19        18     9      180.000000       -0.565751         4
        15        16        19        30     9        0.000000        0.138150         1
        15        16        19        30     9      180.000000       15.086427         2
        15        16        19        30     9        0.000000        0.139751         3
        15        16        19        30     9      180.000000        0.208328         4
        15        16        32        31     9        0.000000       -0.005735         1
        15        16        32        31     9      180.000000       14.529224         2
        15        16        32        31     9        0.000000        0.354820         3
        15        16        32        31     9      180.000000       -0.263437         4
        15        16        32        33     9        0.000000        0.020024         1
        15        16        32        33     9      180.000000       13.418359         2
        15        16        32        33     9        0.000000        0.051952         3
        15        16        32        33     9      180.000000        0.001094         4
        16        15        14        28     9        0.000000       -0.242316         1
        16        15        14        28     9      180.000000       -0.036056         2
        16        15        14        28     9        0.000000        0.872445         3
        16        15        14        28     9      180.000000       -0.051326         4
        16        15        14        29     9        0.000000       -0.242316         1
        16        15        14        29     9      180.000000       -0.036056         2
        16        15        14        29     9        0.000000        0.872445         3
        16        15        14        29     9      180.000000       -0.051326         4
        16        19        18        17     9        0.000000        0.073909         1
        16        19        18        17     9      180.000000       16.277140         2
        16        19        18        17     9        0.000000       -1.586820         3
        16        19        18        17     9      180.000000       -0.324542         4
        16        19        18        41     9        0.000000        0.158752         1
        16        19        18        41     9      180.000000       13.357421         2
        16        19        18        41     9        0.000000       -0.573040         3
        16        19        18        41     9      180.000000        0.048496         4
        16        32        31        17     9        0.000000        0.015971         1
        16        32        31        17     9      180.000000       11.729189         2
        16        32        31        17     9        0.000000       -1.013972         3
        16        32        31        17     9      180.000000       -0.306803         4
        16        32        31        36     9        0.000000       -0.008682         1
        16        32        31        36     9      180.000000       11.879792         2
        16        32        31        36     9        0.000000       -1.056186         3
        16        32        31        36     9      180.000000       -0.310674         4
        16        32        33        34     9        0.000000       -0.312967         1
        16        32        33        34     9      180.000000       14.212608         2
        16        32        33        34     9        0.000000       -0.824081         3
        16        32        33        34     9      180.000000       -0.182291         4
        16        32        33        37     9        0.000000       -0.144605         1
        16        32        33        37     9      180.000000       11.875082         2
        16        32        33        37     9        0.000000       -0.442356         3
        16        32        33        37     9      180.000000       -0.026922         4
        17        18        19        30     9        0.000000        0.084573         1
        17        18        19        30     9      180.000000       12.736335         2
        17        18        19        30     9        0.000000       -0.678469         3
        17        18        19        30     9      180.000000        0.191049         4
        17        31        32        33     9        0.000000        0.185988         1
        17        31        32        33     9      180.000000       10.546775         2
        17        31        32        33     9        0.000000       -0.835992         3
        17        31        32        33     9      180.000000       -0.138827         4
        17        31        36        35     9        0.000000       -0.113436         1
        17        31        36        35     9      180.000000       13.522679         2
        17        31        36        35     9        0.000000       -0.712952         3
        17        31        36        35     9      180.000000       -0.152876         4
        17        31        36        40     9        0.000000       -0.135581         1
        17        31        36        40     9      180.000000       11.330076         2
        17        31        36        40     9        0.000000       -0.463424         3
        17        31        36        40     9      180.000000        0.040441         4
        18        17        31        32     9        0.000000       -0.203816         1
        18        17        31        32     9      180.000000       16.988766         2
        18        17        31        32     9        0.000000       -1.304661         3
        18        17        31        32     9      180.000000       -0.352037         4
        18        17        31        36     9        0.000000       -0.137365         1
        18        17        31        36     9      180.000000       13.827413         2
        18        17        31        36     9        0.000000       -0.785597         3
        18        17        31        36     9      180.000000       -0.164843         4
        18        19        16        32     9        0.000000       -0.077092         1
        18        19        16        32     9      180.000000       18.430114         2
        18        19        16        32     9        0.000000       -1.134210         3
        18        19        16        32     9      180.000000       -0.421492         4
        19        16        32        31     9        0.000000       -0.250198         1
        19        16        32        31     9      180.000000       12.049972         2
        19        16        32        31     9        0.000000       -0.530517         3
        19        16        32        31     9      180.000000       -0.100159         4
        19        16        32        33     9        0.000000       -0.280769         1
        19        16        32        33     9      180.000000        9.445296         2
        19        16        32        33     9        0.000000       -0.353382         3
        19        16        32        33     9      180.000000        0.027219         4
        19        18        17        31     9        0.000000       -0.158612         1
        19        18        17        31     9      180.000000       20.438881         2
        19        18        17        31     9        0.000000       -1.773579         3
        19        18        17        31     9      180.000000       -0.436959         4
        19        18        17        42     9        0.000000        0.054439         1
        19        18        17        42     9      180.000000       16.362962         2
        19        18        17        42     9        0.000000       -0.503223         3
        19        18        17        42     9      180.000000       -0.018809         4
        20         6         5        47     9        0.000000        0.121567         1
        20         6         5        47     9      180.000000       11.151974         2
        20         6         5        47     9        0.000000       -0.201949         3
        20         6         5        47     9      180.000000        0.146708         4
        20         6         7        21     9        0.000000       -0.082683         1
        20         6         7        21     9      180.000000       12.137275         2
        20         6         7        21     9        0.000000       -0.659478         3
        20         6         7        21     9      180.000000        0.246215         4
        21         7         8        22     9        0.000000       -0.082924         1
        21         7         8        22     9      180.000000       10.886357         2
        21         7         8        22     9        0.000000       -0.496660         3
        21         7         8        22     9      180.000000        0.193024         4
        22         8         9        23     9        0.000000       -0.162652         1
        22         8         9        23     9      180.000000       12.504852         2
        22         8         9        23     9        0.000000       -0.659666         3
        22         8         9        23     9      180.000000        0.275549         4
        24        12        13        26     9        0.000000        0.012946         1
        24        12        13        26     9      180.000000        0.032298         2
        24        12        13        26     9        0.000000        0.615296         3
        24        12        13        26     9      180.000000       -0.014946         4
        24        12        13        27     9        0.000000        0.012946         1
        24        12        13        27     9      180.000000        0.032298         2
        24        12        13        27     9        0.000000        0.615296         3
        24        12        13        27     9      180.000000       -0.014946         4
        25        12        13        26     9        0.000000        0.012945         1
        25        12        13        26     9      180.000000        0.032298         2
        25        12        13        26     9        0.000000        0.615296         3
        25        12        13        26     9      180.000000       -0.014946         4
        25        12        13        27     9        0.000000        0.012945         1
        25        12        13        27     9      180.000000        0.032298         2
        25        12        13        27     9        0.000000        0.615296         3
        25        12        13        27     9      180.000000       -0.014946         4
        26        13        14        28     9        0.000000       -0.008802         1
        26        13        14        28     9      180.000000       -0.016763         2
        26        13        14        28     9        0.000000        0.668352         3
        26        13        14        28     9      180.000000       -0.049453         4
        26        13        14        29     9        0.000000       -0.008802         1
        26        13        14        29     9      180.000000       -0.016763         2
        26        13        14        29     9        0.000000        0.668352         3
        26        13        14        29     9      180.000000       -0.049453         4
        27        13        14        28     9        0.000000       -0.008802         1
        27        13        14        28     9      180.000000       -0.016763         2
        27        13        14        28     9        0.000000        0.668352         3
        27        13        14        28     9      180.000000       -0.049453         4
        27        13        14        29     9        0.000000       -0.008802         1
        27        13        14        29     9      180.000000       -0.016763         2
        27        13        14        29     9        0.000000        0.668352         3
        27        13        14        29     9      180.000000       -0.049453         4
        30        19        16        32     9        0.000000       -0.055542         1
        30        19        16        32     9      180.000000       13.881861         2
        30        19        16        32     9        0.000000       -0.474494         3
        30        19        16        32     9      180.000000        0.056181         4
        30        19        18        41     9        0.000000       -0.134258         1
        30        19        18        41     9      180.000000       10.906566         2
        30        19        18        41     9        0.000000       -0.689153         3
        30        19        18        41     9      180.000000        0.149985         4
        31        17        18        41     9        0.000000        0.053465         1
        31        17        18        41     9      180.000000       15.656868         2
        31        17        18        41     9        0.000000       -0.658012         3
        31        17        18        41     9      180.000000        0.055312         4
        31        32        33        34     9        0.000000       -0.264599         1
        31        32        33        34     9      180.000000       16.097748         2
        31        32        33        34     9        0.000000       -1.038733         3
        31        32        33        34     9      180.000000       -0.273846         4
        31        32        33        37     9        0.000000       -0.124299         1
        31        32        33        37     9      180.000000       12.047774         2
        31        32        33        37     9        0.000000       -0.161682         3
        31        32        33        37     9      180.000000        0.012897         4
        31        36        35        34     9        0.000000       -0.116445         1
        31        36        35        34     9      180.000000       20.603116         2
        31        36        35        34     9        0.000000       -1.645623         3
        31        36        35        34     9      180.000000       -0.477479         4
        31        36        35        39     9        0.000000        0.017995         1
        31        36        35        39     9      180.000000       15.819627         2
        31        36        35        39     9        0.000000       -0.633506         3
        31        36        35        39     9      180.000000        0.042056         4
        32        31        17        42     9        0.000000       -0.078717         1
        32        31        17        42     9      180.000000       12.183403         2
        32        31        17        42     9        0.000000       -0.195216         3
        32        31        17        42     9      180.000000       -0.048241         4
        32        31        36        35     9        0.000000       -0.184832         1
        32        31        36        35     9      180.000000       16.596924         2
        32        31        36        35     9        0.000000       -1.231312         3
        32        31        36        35     9      180.000000       -0.332603         4
        32        31        36        40     9        0.000000       -0.106008         1
        32        31        36        40     9      180.000000       12.234859         2
        32        31        36        40     9        0.000000       -0.158135         3
        32        31        36        40     9      180.000000       -0.044648         4
        32        33        34        35     9        0.000000       -0.244725         1
        32        33        34        35     9      180.000000       20.988042         2
        32        33        34        35     9        0.000000       -1.925589         3
        32        33        34        35     9      180.000000       -0.436055         4
        32        33        34        38     9        0.000000       -0.033270         1
        32        33        34        38     9      180.000000       16.238813         2
        32        33        34        38     9        0.000000       -0.722051         3
        32        33        34        38     9      180.000000       -0.017323         4
        33        32        31        36     9        0.000000        0.158516         1
        33        32        31        36     9      180.000000       10.787348         2
        33        32        31        36     9        0.000000       -0.883839         3
        33        32        31        36     9      180.000000       -0.164123         4
        33        34        35        36     9        0.000000        0.085957         1
        33        34        35        36     9      180.000000       16.001226         2
        33        34        35        36     9        0.000000       -1.385545         3
        33        34        35        36     9      180.000000       -0.264925         4
        33        34        35        39     9        0.000000        0.012594         1
        33        34        35        39     9      180.000000       12.768932         2
        33        34        35        39     9        0.000000       -0.653582         3
        33        34        35        39     9      180.000000        0.100990         4
        34        35        36        40     9        0.000000       -0.005466         1
        34        35        36        40     9      180.000000       16.271172         2
        34        35        36        40     9        0.000000       -0.454004         3
        34        35        36        40     9      180.000000        0.071995         4
        35        34        33        37     9        0.000000        0.009681         1
        35        34        33        37     9      180.000000       16.116133         2
        35        34        33        37     9        0.000000       -0.536783         3
        35        34        33        37     9      180.000000        0.113141         4
        36        31        17        42     9        0.000000       -0.101057         1
        36        31        17        42     9      180.000000       11.270216         2
        36        31        17        42     9        0.000000       -0.481051         3
        36        31        17        42     9      180.000000        0.029920         4
        36        35        34        38     9        0.000000        0.009392         1
        36        35        34        38     9      180.000000       12.831087         2
        36        35        34        38     9        0.000000       -0.625437         3
        36        35        34        38     9      180.000000        0.087820         4
        37        33        34        38     9        0.000000       -0.151716         1
        37        33        34        38     9      180.000000       12.624105         2
        37        33        34        38     9        0.000000       -0.668525         3
        37        33        34        38     9      180.000000        0.325216         4
        38        34        35        39     9        0.000000       -0.150959         1
        38        34        35        39     9      180.000000       10.356312         2
        38        34        35        39     9        0.000000       -0.405848         3
        38        34        35        39     9      180.000000        0.128684         4
        39        35        36        40     9        0.000000       -0.103569         1
        39        35        36        40     9      180.000000       12.649579         2
        39        35        36        40     9        0.000000       -0.581060         3
        39        35        36        40     9      180.000000        0.284284         4
        41        18        17        42     9        0.000000       -0.107744         1
        41        18        17        42     9      180.000000       12.551764         2
        41        18        17        42     9        0.000000       -0.684442         3
        41        18        17        42     9      180.000000        0.320552         4

[ dihedrals ] ; impropers
;       ai        aj        ak        al funct           phase               k        pn
         2         1         3         4     4      180.000000       27.893333         2
         2         3         4         1     4      180.000000       27.893333         2
         2         4         1         3     4      180.000000       27.893333         2

[ pairs ]
;       ai        aj funct
         1        11     1
         1        47     1
         2         5     1
         2        10     1
         2        12     1
         2        43     1
         3        11     1
         3        47     1
         4         6     1
         4         9     1
         4        13     1
         4        24     1
         4        25     1
         4        44     1
         4        45     1
         4        46     1
         5         8     1
         5        12     1
         5        21     1
         5        23     1
         5        44     1
         5        45     1
         5        46     1
         6         9     1
         6        11     1
         6        22     1
         6        43     1
         7        10     1
         7        23     1
         7        47     1
         8        11     1
         8        20     1
         9        12     1
         9        21     1
         9        47     1
        10        13     1
        10        20     1
        10        22     1
        10        24     1
        10        25     1
        10        43     1
        11        14     1
        11        23     1
        11        26     1
        11        27     1
        11        43     1
        12        15     1
        12        28     1
        12        29     1
        12        47     1
        13        16     1
        14        19     1
        14        24     1
        14        25     1
        14        32     1
        15        18     1
        15        26     1
        15        27     1
        15        30     1
        15        31     1
        15        33     1
        16        17     1
        16        28     1
        16        29     1
        16        34     1
        16        36     1
        16        37     1
        16        41     1
        17        30     1
        17        33     1
        17        35     1
        17        40     1
        18        32     1
        18        36     1
        19        31     1
        19        33     1
        19        42     1
        20        21     1
        20        47     1
        21        22     1
        22        23     1
        24        26     1
        24        27     1
        25        26     1
        25        27     1
        26        28     1
        26        29     1
        27        28     1
        27        29     1
        30        32     1
        30        41     1
        31        34     1
        31        37     1
        31        39     1
        31        41     1
        32        35     1
        32        38     1
        32        40     1
        32        42     1
        33        36     1
        33        39     1
        34        40     1
        35        37     1
        36        38     1
        36        42     1
        37        38     1
        38        39     1
        39        40     1
        41        42     1
