; ITP file created by ByteFF-ML, 2026-02-21 08:20:35.140541

[ atomtypes ]
;name           bonded.type        at.num        mass        charge   ptype           sigma         epsilon
 o0bf                                   8      0.0000       0.00000       A     3.04718e-01     6.11713e-01
 c1bf                                   6      0.0000       0.00000       A     3.31077e-01     4.09176e-01
 o2bf                                   8      0.0000       0.00000       A     3.04718e-01     6.11713e-01
 c3bf                                   6      0.0000       0.00000       A     3.31550e-01     4.13337e-01
 c4bf                                   6      0.0000       0.00000       A     3.31489e-01     4.11835e-01
 c5bf                                   6      0.0000       0.00000       A     3.31375e-01     4.12020e-01
 c6bf                                   6      0.0000       0.00000       A     3.31511e-01     4.12863e-01
 c7bf                                   6      0.0000       0.00000       A     3.31498e-01     4.12322e-01
 c8bf                                   6      0.0000       0.00000       A     3.31443e-01     4.12688e-01
 c9bf                                   6      0.0000       0.00000       A     3.31487e-01     4.11489e-01
 c10bf                                  6      0.0000       0.00000       A     3.31236e-01     4.14884e-01
 c11bf                                  6      0.0000       0.00000       A     3.39712e-01     4.51876e-01
 c12bf                                  6      0.0000       0.00000       A     3.39825e-01     4.50762e-01
 c13bf                                  6      0.0000       0.00000       A     3.39714e-01     4.51040e-01
 o14bf                                  8      0.0000       0.00000       A     3.15822e-01     3.05272e-01
 c15bf                                  6      0.0000       0.00000       A     3.31432e-01     4.12981e-01
 c16bf                                  6      0.0000       0.00000       A     3.31554e-01     4.12571e-01
 c17bf                                  6      0.0000       0.00000       A     3.31461e-01     4.12386e-01
 c18bf                                  6      0.0000       0.00000       A     3.39791e-01     4.50449e-01
 c19bf                                  6      0.0000       0.00000       A     3.31555e-01     4.13380e-01
 cl20bf                                17      0.0000       0.00000       A     3.46762e-01     1.10618e+00
 c21bf                                  6      0.0000       0.00000       A     3.31461e-01     4.12384e-01
 c22bf                                  6      0.0000       0.00000       A     3.39791e-01     4.50449e-01
 c23bf                                  6      0.0000       0.00000       A     3.31554e-01     4.12571e-01
 h24bf                                  1      0.0000       0.00000       A     2.62422e-01     6.73621e-02
 cl25bf                                17      0.0000       0.00000       A     3.46744e-01     1.10459e+00
 h26bf                                  1      0.0000       0.00000       A     2.62494e-01     6.72839e-02
 h27bf                                  1      0.0000       0.00000       A     2.62513e-01     6.69072e-02
 h28bf                                  1      0.0000       0.00000       A     2.59715e-01     8.74790e-02
 h29bf                                  1      0.0000       0.00000       A     2.59715e-01     8.74790e-02
 h30bf                                  1      0.0000       0.00000       A     2.60066e-01     8.68629e-02
 h31bf                                  1      0.0000       0.00000       A     2.60066e-01     8.68629e-02
 h32bf                                  1      0.0000       0.00000       A     2.42089e-01     8.76721e-02
 h33bf                                  1      0.0000       0.00000       A     2.42089e-01     8.76721e-02
 h34bf                                  1      0.0000       0.00000       A     2.62480e-01     6.69854e-02
 h35bf                                  1      0.0000       0.00000       A     2.60015e-01     8.71198e-02
 h36bf                                  1      0.0000       0.00000       A     2.60015e-01     8.71198e-02
 h37bf                                  1      0.0000       0.00000       A     2.60015e-01     8.71198e-02
 h38bf                                  1      0.0000       0.00000       A     2.60015e-01     8.71198e-02
 h39bf                                  1      0.0000       0.00000       A     2.60015e-01     8.71198e-02
 h40bf                                  1      0.0000       0.00000       A     2.60015e-01     8.71198e-02
 h41bf                                  1      0.0000       0.00000       A     2.62480e-01     6.69854e-02
 c42bf                                  6      0.0000       0.00000       A     3.39879e-01     4.50883e-01
 h43bf                                  1      0.0000       0.00000       A     2.41962e-01     8.74215e-02
 h44bf                                  1      0.0000       0.00000       A     2.41962e-01     8.74215e-02
 h45bf                                  1      0.0000       0.00000       A     2.41962e-01     8.74215e-02
 n46bf                                  7      0.0000       0.00000       A     3.20815e-01     8.58588e-01

[ moleculetype ]
;name             nrexcl
 58                    3

[ atoms ]
;       nr            type      resi   res      atom      cgnr      charge          mass ; qtot
         1            o0bf         1   UNL        o0         1    -0.72896       15.9990 ; qtot   -0.729
         2            c1bf         1   UNL        c1         2     0.70860       12.0110 ; qtot   -0.020
         3            o2bf         1   UNL        o2         3    -0.72896       15.9990 ; qtot   -0.749
         4            c3bf         1   UNL        c3         4    -0.08708       12.0110 ; qtot   -0.836
         5            c4bf         1   UNL        c4         5    -0.06017       12.0110 ; qtot   -0.897
         6            c5bf         1   UNL        c5         6    -0.12324       12.0110 ; qtot   -1.020
         7            c6bf         1   UNL        c6         7     0.14072       12.0110 ; qtot   -0.879
         8            c7bf         1   UNL        c7         8    -0.13457       12.0110 ; qtot   -1.014
         9            c8bf         1   UNL        c8         9    -0.05726       12.0110 ; qtot   -1.071
        10            c9bf         1   UNL        c9        10    -0.10342       12.0110 ; qtot   -1.174
        11           c10bf         1   UNL       c10        11    -0.18722       12.0110 ; qtot   -1.362
        12           c11bf         1   UNL       c11        12    -0.00995       12.0110 ; qtot   -1.372
        13           c12bf         1   UNL       c12        13    -0.09011       12.0110 ; qtot   -1.462
        14           c13bf         1   UNL       c13        14     0.16317       12.0110 ; qtot   -1.298
        15           o14bf         1   UNL       o14        15    -0.35197       15.9990 ; qtot   -1.650
        16           c15bf         1   UNL       c15        16     0.14773       12.0110 ; qtot   -1.503
        17           c16bf         1   UNL       c16        17    -0.16892       12.0110 ; qtot   -1.672
        18           c17bf         1   UNL       c17        18    -0.02666       12.0110 ; qtot   -1.698
        19           c18bf         1   UNL       c18        19    -0.04881       12.0110 ; qtot   -1.747
        20           c19bf         1   UNL       c19        20     0.09092       12.0110 ; qtot   -1.656
        21          cl20bf         1   UNL      cl20        21    -0.22555       35.4530 ; qtot   -1.882
        22           c21bf         1   UNL       c21        22    -0.02666       12.0110 ; qtot   -1.908
        23           c22bf         1   UNL       c22        23    -0.04881       12.0110 ; qtot   -1.957
        24           c23bf         1   UNL       c23        24    -0.16892       12.0110 ; qtot   -2.126
        25           h24bf         1   UNL       h24        25     0.13327        1.0080 ; qtot   -1.993
        26          cl25bf         1   UNL      cl25        26    -0.21647       35.4530 ; qtot   -2.209
        27           h26bf         1   UNL       h26        27     0.13079        1.0080 ; qtot   -2.079
        28           h27bf         1   UNL       h27        28     0.12543        1.0080 ; qtot   -1.953
        29           h28bf         1   UNL       h28        29     0.04466        1.0080 ; qtot   -1.908
        30           h29bf         1   UNL       h29        30     0.04466        1.0080 ; qtot   -1.864
        31           h30bf         1   UNL       h30        31     0.05519        1.0080 ; qtot   -1.809
        32           h31bf         1   UNL       h31        32     0.05519        1.0080 ; qtot   -1.753
        33           h32bf         1   UNL       h32        33     0.04441        1.0080 ; qtot   -1.709
        34           h33bf         1   UNL       h33        34     0.04441        1.0080 ; qtot   -1.665
        35           h34bf         1   UNL       h34        35     0.12602        1.0080 ; qtot   -1.539
        36           h35bf         1   UNL       h35        36     0.05173        1.0080 ; qtot   -1.487
        37           h36bf         1   UNL       h36        37     0.05173        1.0080 ; qtot   -1.435
        38           h37bf         1   UNL       h37        38     0.05173        1.0080 ; qtot   -1.383
        39           h38bf         1   UNL       h38        39     0.05173        1.0080 ; qtot   -1.332
        40           h39bf         1   UNL       h39        40     0.05173        1.0080 ; qtot   -1.280
        41           h40bf         1   UNL       h40        41     0.05173        1.0080 ; qtot   -1.228
        42           h41bf         1   UNL       h41        42     0.12602        1.0080 ; qtot   -1.102
        43           c42bf         1   UNL       c42        43     0.05395       12.0110 ; qtot   -1.048
        44           h43bf         1   UNL       h43        44     0.04517        1.0080 ; qtot   -1.003
        45           h44bf         1   UNL       h44        45     0.04517        1.0080 ; qtot   -0.958
        46           h45bf         1   UNL       h45        46     0.04517        1.0080 ; qtot   -0.913
        47           n46bf         1   UNL       n46        47    -0.08732       14.0070 ; qtot   -1.000

[ bonds ]
;       ai        aj funct               r               k
         1         2     1        0.126270   477551.810742
         2         3     1        0.126270   477551.810742
         2         4     1        0.153497   124554.901563
         4        11     1        0.138900   330774.414453
         4        47     1        0.140298   226192.877783
         5         6     1        0.140245   304214.441699
         5        10     1        0.142986   235586.167187
         5        47     1        0.137383   278389.222656
         6         7     1        0.139163   313383.796191
         6        25     1        0.108417   323919.718018
         7         8     1        0.140963   275356.716455
         7        26     1        0.176145   145428.526172
         8         9     1        0.139104   327541.927148
         8        27     1        0.108439   324995.341064
         9        10     1        0.140727   301537.820654
         9        28     1        0.108548   320934.736377
        10        11     1        0.143853   236286.471338
        11        12     1        0.150512   207163.836890
        12        13     1        0.154303   174786.906445
        12        29     1        0.109436   295477.507080
        12        30     1        0.109436   295477.507080
        13        14     1        0.152499   192439.969580
        13        31     1        0.109516   297606.203906
        13        32     1        0.109516   297606.203906
        14        15     1        0.143236   188521.581055
        14        33     1        0.109678   290005.185449
        14        34     1        0.109678   290005.185449
        15        16     1        0.136766   267570.426270
        16        17     1        0.140055   290275.010547
        16        24     1        0.140055   290275.010547
        17        18     1        0.139982   300993.905762
        17        35     1        0.108463   321222.871582
        18        19     1        0.150871   204488.199023
        18        20     1        0.140338   274458.806152
        19        36     1        0.109363   302731.476221
        19        37     1        0.109363   302731.450684
        19        38     1        0.109363   302731.450684
        20        21     1        0.176898   133058.886670
        20        22     1        0.140338   274458.780615
        22        23     1        0.150871   204488.199023
        22        24     1        0.139982   300993.905762
        23        39     1        0.109363   302731.476221
        23        40     1        0.109363   302731.476221
        23        41     1        0.109363   302731.476221
        24        42     1        0.108463   321222.871582
        43        44     1        0.109324   299252.811182
        43        45     1        0.109324   299252.811182
        43        46     1        0.109324   299252.811182
        43        47     1        0.145588   214655.288379

[ angles ]
;       ai        aj        ak funct           theta             cth
         1         2         3     1      129.203857      712.858066
         1         2         4     1      115.498802      369.154238
         2         4        11     1      129.874374      412.862278
         2         4        47     1      122.322556      461.474145
         3         2         4     1      115.498802      369.154238
         4        11        10     1      106.927307      399.530949
         4        11        12     1      127.514793      413.655780
         4        47         5     1      109.056900      408.024943
         4        47        43     1      126.935593      424.187124
         5         6         7     1      116.703262      729.561634
         5         6        25     1      122.439209      430.675784
         5        10         9     1      118.696304      741.304235
         5        10        11     1      107.376999      291.026421
         5        47        43     1      123.670189      529.141260
         6         5        10     1      122.090805      648.791843
         6         5        47     1      129.708054      435.218676
         6         7         8     1      122.619751      562.223404
         6         7        26     1      118.795410      335.842931
         7         6        25     1      120.745178      424.866666
         7         8         9     1      119.917358      573.407317
         7         8        27     1      119.394569      432.978465
         8         7        26     1      118.554123      392.950419
         8         9        10     1      119.690323      733.844207
         8         9        28     1      119.932663      429.159135
         9         8        27     1      120.850380      427.527346
         9        10        11     1      134.267242      413.470699
        10         5        47     1      108.016685      188.430430
        10         9        28     1      120.406998      433.542069
        10        11        12     1      125.432594      461.939143
        11         4        47     1      108.791565      294.840899
        11        12        13     1      112.811356      543.535603
        11        12        29     1      109.189331      492.116856
        11        12        30     1      109.189331      492.116856
        12        13        14     1      112.623825      593.419984
        12        13        31     1      109.500244      484.409533
        12        13        32     1      109.500244      484.409533
        13        12        29     1      108.926468      484.579738
        13        12        30     1      108.926468      484.579738
        13        14        15     1      109.552856      621.752640
        13        14        33     1      110.734940      494.618216
        13        14        34     1      110.734940      494.618216
        14        13        31     1      108.792709      511.357823
        14        13        32     1      108.792709      511.357823
        14        15        16     1      118.844559      525.993364
        15        14        33     1      108.915588      459.732418
        15        14        34     1      108.915588      459.732418
        15        16        17     1      120.182823      539.222640
        15        16        24     1      120.182823      539.222704
        16        17        18     1      121.024536      726.137171
        16        17        35     1      119.719345      439.110851
        16        24        22     1      121.024536      726.137171
        16        24        42     1      119.719345      439.110787
        17        16        24     1      119.664146      578.709076
        17        18        19     1      120.321632      419.261047
        17        18        20     1      117.928101      622.323842
        18        17        35     1      119.245934      407.396315
        18        19        36     1      111.015518      475.802219
        18        19        37     1      111.015518      475.802219
        18        19        38     1      111.015518      475.802219
        18        20        21     1      118.560402      387.794126
        18        20        22     1      122.675980      600.905996
        19        18        20     1      121.863098      370.480189
        20        22        23     1      121.863098      370.480189
        20        22        24     1      117.928101      622.323842
        21        20        22     1      118.560402      387.794189
        22        23        39     1      111.015518      475.802219
        22        23        40     1      111.015518      475.802219
        22        23        41     1      111.015518      475.802219
        22        24        42     1      119.245934      407.396347
        23        22        24     1      120.321640      419.261047
        29        12        30     1      106.742416      356.644375
        31        13        32     1      107.017380      359.666787
        33        14        34     1      107.963120      344.594179
        36        19        37     1      107.895142      356.831338
        36        19        38     1      107.895142      356.831338
        37        19        38     1      107.895142      356.831338
        39        23        40     1      107.895142      356.831306
        39        23        41     1      107.895142      356.831306
        40        23        41     1      107.895142      356.831306
        44        43        45     1      109.238647      342.913550
        44        43        46     1      109.238647      342.913550
        44        43        47     1      109.601891      478.638115
        45        43        46     1      109.238647      342.913550
        45        43        47     1      109.601891      478.638115
        46        43        47     1      109.601891      478.638115

[ dihedrals ] ; propers for gromacs 4.5 or higher, use funct 9
;       ai        aj        ak        al funct           phase               k        pn
         1         2         4        11     9        0.000000       -1.899172         1
         1         2         4        11     9      180.000000        2.515447         2
         1         2         4        11     9        0.000000        0.062973         3
         1         2         4        11     9      180.000000       -0.069380         4
         1         2         4        47     9        0.000000        0.761433         1
         1         2         4        47     9      180.000000        4.906983         2
         1         2         4        47     9        0.000000        0.083537         3
         1         2         4        47     9      180.000000        0.161002         4
         2         4        11        10     9        0.000000        0.086239         1
         2         4        11        10     9      180.000000       15.258852         2
         2         4        11        10     9        0.000000       -1.123593         3
         2         4        11        10     9      180.000000       -0.626291         4
         2         4        11        12     9        0.000000        0.404696         1
         2         4        11        12     9      180.000000       12.606701         2
         2         4        11        12     9        0.000000        0.272377         3
         2         4        11        12     9      180.000000       -0.571557         4
         2         4        47         5     9        0.000000        0.264427         1
         2         4        47         5     9      180.000000        6.385515         2
         2         4        47         5     9        0.000000        0.410288         3
         2         4        47         5     9      180.000000        0.053133         4
         2         4        47        43     9        0.000000        0.775965         1
         2         4        47        43     9      180.000000        3.811131         2
         2         4        47        43     9        0.000000        0.275067         3
         2         4        47        43     9      180.000000       -0.059811         4
         3         2         4        11     9        0.000000       -1.899172         1
         3         2         4        11     9      180.000000        2.515447         2
         3         2         4        11     9        0.000000        0.062973         3
         3         2         4        11     9      180.000000       -0.069380         4
         3         2         4        47     9        0.000000        0.761433         1
         3         2         4        47     9      180.000000        4.906983         2
         3         2         4        47     9        0.000000        0.083537         3
         3         2         4        47     9      180.000000        0.161002         4
         4        11        10         5     9        0.000000        0.045715         1
         4        11        10         5     9      180.000000       23.716345         2
         4        11        10         5     9        0.000000       -8.101810         3
         4        11        10         5     9      180.000000       -0.006107         4
         4        11        10         9     9        0.000000       -0.055892         1
         4        11        10         9     9      180.000000        3.953178         2
         4        11        10         9     9        0.000000       -0.662014         3
         4        11        10         9     9      180.000000        0.393224         4
         4        11        12        13     9        0.000000       -1.537750         1
         4        11        12        13     9      180.000000        0.191031         2
         4        11        12        13     9        0.000000        0.005272         3
         4        11        12        13     9      180.000000       -0.064745         4
         4        11        12        29     9        0.000000        0.141067         1
         4        11        12        29     9      180.000000       -0.029458         2
         4        11        12        29     9        0.000000       -0.513582         3
         4        11        12        29     9      180.000000        0.182607         4
         4        11        12        30     9        0.000000        0.141067         1
         4        11        12        30     9      180.000000       -0.029458         2
         4        11        12        30     9        0.000000       -0.513582         3
         4        11        12        30     9      180.000000        0.182607         4
         4        47         5         6     9        0.000000        0.378788         1
         4        47         5         6     9      180.000000        3.785858         2
         4        47         5         6     9        0.000000        0.219815         3
         4        47         5         6     9      180.000000        0.272704         4
         4        47         5        10     9        0.000000       -0.120436         1
         4        47         5        10     9      180.000000       17.464626         2
         4        47         5        10     9        0.000000       -5.087521         3
         4        47         5        10     9      180.000000       -0.148686         4
         4        47        43        44     9        0.000000       -0.030690         1
         4        47        43        44     9      180.000000        0.035822         2
         4        47        43        44     9        0.000000       -0.220596         3
         4        47        43        44     9      180.000000        0.105026         4
         4        47        43        45     9        0.000000       -0.030690         1
         4        47        43        45     9      180.000000        0.035822         2
         4        47        43        45     9        0.000000       -0.220596         3
         4        47        43        45     9      180.000000        0.105026         4
         4        47        43        46     9        0.000000       -0.030690         1
         4        47        43        46     9      180.000000        0.035822         2
         4        47        43        46     9        0.000000       -0.220596         3
         4        47        43        46     9      180.000000        0.105026         4
         5         6         7         8     9        0.000000       -0.183033         1
         5         6         7         8     9      180.000000       20.400661         2
         5         6         7         8     9        0.000000       -1.705221         3
         5         6         7         8     9      180.000000       -0.554736         4
         5         6         7        26     9        0.000000        0.175760         1
         5         6         7        26     9      180.000000       22.923689         2
         5         6         7        26     9        0.000000        0.295241         3
         5         6         7        26     9      180.000000       -1.185606         4
         5        10         9         8     9        0.000000        0.034232         1
         5        10         9         8     9      180.000000       19.083325         2
         5        10         9         8     9        0.000000       -1.774758         3
         5        10         9         8     9      180.000000       -0.433891         4
         5        10         9        28     9        0.000000        0.451327         1
         5        10         9        28     9      180.000000       12.994720         2
         5        10         9        28     9        0.000000       -0.302533         3
         5        10         9        28     9      180.000000        0.008557         4
         5        10        11        12     9        0.000000        0.981022         1
         5        10        11        12     9      180.000000       11.582872         2
         5        10        11        12     9        0.000000        0.801871         3
         5        10        11        12     9      180.000000       -0.418313         4
         5        47         4        11     9        0.000000        0.323836         1
         5        47         4        11     9      180.000000       22.538975         2
         5        47         4        11     9        0.000000       -6.020554         3
         5        47         4        11     9      180.000000       -0.623692         4
         5        47        43        44     9        0.000000       -0.119135         1
         5        47        43        44     9      180.000000       -0.001393         2
         5        47        43        44     9        0.000000        1.067914         3
         5        47        43        44     9      180.000000        0.024041         4
         5        47        43        45     9        0.000000       -0.119135         1
         5        47        43        45     9      180.000000       -0.001393         2
         5        47        43        45     9        0.000000        1.067914         3
         5        47        43        45     9      180.000000        0.024041         4
         5        47        43        46     9        0.000000       -0.119135         1
         5        47        43        46     9      180.000000       -0.001393         2
         5        47        43        46     9        0.000000        1.067914         3
         5        47        43        46     9      180.000000        0.024041         4
         6         5        10         9     9        0.000000        0.070560         1
         6         5        10         9     9      180.000000       10.465393         2
         6         5        10         9     9        0.000000       -1.411067         3
         6         5        10         9     9      180.000000       -0.046525         4
         6         5        10        11     9        0.000000        0.141255         1
         6         5        10        11     9      180.000000       10.605753         2
         6         5        10        11     9        0.000000       -2.390914         3
         6         5        10        11     9      180.000000        0.085400         4
         6         5        47        43     9        0.000000        0.313544         1
         6         5        47        43     9      180.000000        2.500982         2
         6         5        47        43     9        0.000000        0.204671         3
         6         5        47        43     9      180.000000        0.214853         4
         6         7         8         9     9        0.000000       -0.156417         1
         6         7         8         9     9      180.000000       16.450820         2
         6         7         8         9     9        0.000000       -1.294484         3
         6         7         8         9     9      180.000000       -0.289876         4
         6         7         8        27     9        0.000000        0.001619         1
         6         7         8        27     9      180.000000       12.630524         2
         6         7         8        27     9        0.000000       -0.586785         3
         6         7         8        27     9      180.000000        0.117436         4
         7         6         5        10     9        0.000000       -0.038076         1
         7         6         5        10     9      180.000000       16.843509         2
         7         6         5        10     9        0.000000       -1.474231         3
         7         6         5        10     9      180.000000       -0.338337         4
         7         6         5        47     9        0.000000        0.166859         1
         7         6         5        47     9      180.000000       15.032952         2
         7         6         5        47     9        0.000000       -0.246279         3
         7         6         5        47     9      180.000000       -0.415265         4
         7         8         9        10     9        0.000000       -0.120705         1
         7         8         9        10     9      180.000000       20.701935         2
         7         8         9        10     9        0.000000       -1.646976         3
         7         8         9        10     9      180.000000       -0.456644         4
         7         8         9        28     9        0.000000        0.091229         1
         7         8         9        28     9      180.000000       14.874789         2
         7         8         9        28     9        0.000000       -0.488945         3
         7         8         9        28     9      180.000000        0.185083         4
         8         7         6        25     9        0.000000        0.066436         1
         8         7         6        25     9      180.000000       13.791247         2
         8         7         6        25     9        0.000000       -0.514507         3
         8         7         6        25     9      180.000000        0.092642         4
         8         9        10        11     9        0.000000       -0.112935         1
         8         9        10        11     9      180.000000       14.403542         2
         8         9        10        11     9        0.000000       -0.920278         3
         8         9        10        11     9      180.000000       -0.266482         4
         9         8         7        26     9        0.000000        0.341226         1
         9         8         7        26     9      180.000000       17.168605         2
         9         8         7        26     9        0.000000        0.216589         3
         9         8         7        26     9      180.000000       -0.404812         4
         9        10         5        47     9        0.000000        0.137861         1
         9        10         5        47     9      180.000000       10.320656         2
         9        10         5        47     9        0.000000       -2.618329         3
         9        10         5        47     9      180.000000        0.182988         4
         9        10        11        12     9        0.000000       -0.376782         1
         9        10        11        12     9      180.000000        5.686034         2
         9        10        11        12     9        0.000000        0.240520         3
         9        10        11        12     9      180.000000        0.139887         4
        10         5         6        25     9        0.000000        0.057745         1
        10         5         6        25     9      180.000000       11.850478         2
        10         5         6        25     9        0.000000       -0.205375         3
        10         5         6        25     9      180.000000        0.068030         4
        10         5        47        43     9        0.000000        0.467223         1
        10         5        47        43     9      180.000000        3.088845         2
        10         5        47        43     9        0.000000        0.925004         3
        10         5        47        43     9      180.000000        0.194375         4
        10         9         8        27     9        0.000000        0.040647         1
        10         9         8        27     9      180.000000       16.203338         2
        10         9         8        27     9        0.000000       -0.548272         3
        10         9         8        27     9      180.000000       -0.046252         4
        10        11         4        47     9        0.000000        0.078381         1
        10        11         4        47     9      180.000000       32.627739         2
        10        11         4        47     9        0.000000       -6.987253         3
        10        11         4        47     9      180.000000       -0.192427         4
        10        11        12        13     9        0.000000       -0.553180         1
        10        11        12        13     9      180.000000        0.027463         2
        10        11        12        13     9        0.000000        0.286891         3
        10        11        12        13     9      180.000000        0.048275         4
        10        11        12        29     9        0.000000       -0.039857         1
        10        11        12        29     9      180.000000        0.011021         2
        10        11        12        29     9        0.000000        0.320833         3
        10        11        12        29     9      180.000000        0.118252         4
        10        11        12        30     9        0.000000       -0.039857         1
        10        11        12        30     9      180.000000        0.011021         2
        10        11        12        30     9        0.000000        0.320833         3
        10        11        12        30     9      180.000000        0.118252         4
        11         4        47        43     9        0.000000        1.837816         1
        11         4        47        43     9      180.000000        3.016301         2
        11         4        47        43     9        0.000000        0.819257         3
        11         4        47        43     9      180.000000        0.310693         4
        11        10         5        47     9        0.000000        0.099378         1
        11        10         5        47     9      180.000000       20.519740         2
        11        10         5        47     9        0.000000       -7.316897         3
        11        10         5        47     9      180.000000       -0.294366         4
        11        10         9        28     9        0.000000       -0.086356         1
        11        10         9        28     9      180.000000       10.324763         2
        11        10         9        28     9        0.000000       -0.139847         3
        11        10         9        28     9      180.000000        0.077457         4
        11        12        13        14     9        0.000000       -0.935806         1
        11        12        13        14     9      180.000000       -0.148797         2
        11        12        13        14     9        0.000000        0.444950         3
        11        12        13        14     9      180.000000       -0.021333         4
        11        12        13        31     9        0.000000        0.184049         1
        11        12        13        31     9      180.000000        0.027152         2
        11        12        13        31     9        0.000000        0.603032         3
        11        12        13        31     9      180.000000        0.010396         4
        11        12        13        32     9        0.000000        0.184049         1
        11        12        13        32     9      180.000000        0.027152         2
        11        12        13        32     9        0.000000        0.603032         3
        11        12        13        32     9      180.000000        0.010396         4
        12        11         4        47     9        0.000000        0.896285         1
        12        11         4        47     9      180.000000       18.282230         2
        12        11         4        47     9        0.000000        0.588190         3
        12        11         4        47     9      180.000000       -1.164103         4
        12        13        14        15     9        0.000000       -1.430134         1
        12        13        14        15     9      180.000000       -0.381834         2
        12        13        14        15     9        0.000000        0.472392         3
        12        13        14        15     9      180.000000        0.018792         4
        12        13        14        33     9        0.000000        0.059387         1
        12        13        14        33     9      180.000000        0.050838         2
        12        13        14        33     9        0.000000        0.654038         3
        12        13        14        33     9      180.000000        0.043320         4
        12        13        14        34     9        0.000000        0.059387         1
        12        13        14        34     9      180.000000        0.050838         2
        12        13        14        34     9        0.000000        0.654038         3
        12        13        14        34     9      180.000000        0.043320         4
        13        14        15        16     9        0.000000        0.351537         1
        13        14        15        16     9      180.000000        0.157599         2
        13        14        15        16     9        0.000000        0.685578         3
        13        14        15        16     9      180.000000        0.026758         4
        14        13        12        29     9        0.000000       -0.131409         1
        14        13        12        29     9      180.000000        0.052373         2
        14        13        12        29     9        0.000000        0.497442         3
        14        13        12        29     9      180.000000        0.025924         4
        14        13        12        30     9        0.000000       -0.131409         1
        14        13        12        30     9      180.000000        0.052373         2
        14        13        12        30     9        0.000000        0.497442         3
        14        13        12        30     9      180.000000        0.025924         4
        14        15        16        17     9        0.000000       -0.137734         1
        14        15        16        17     9      180.000000        5.126576         2
        14        15        16        17     9        0.000000        0.103179         3
        14        15        16        17     9      180.000000        0.346239         4
        14        15        16        24     9        0.000000       -0.137733         1
        14        15        16        24     9      180.000000        5.126576         2
        14        15        16        24     9        0.000000        0.103180         3
        14        15        16        24     9      180.000000        0.346239         4
        15        14        13        31     9        0.000000        0.058555         1
        15        14        13        31     9      180.000000        0.166947         2
        15        14        13        31     9        0.000000        0.483446         3
        15        14        13        31     9      180.000000        0.072634         4
        15        14        13        32     9        0.000000        0.058555         1
        15        14        13        32     9      180.000000        0.166947         2
        15        14        13        32     9        0.000000        0.483446         3
        15        14        13        32     9      180.000000        0.072634         4
        15        16        17        18     9        0.000000        0.301612         1
        15        16        17        18     9      180.000000       16.852349         2
        15        16        17        18     9        0.000000        0.363219         3
        15        16        17        18     9      180.000000       -0.324670         4
        15        16        17        35     9        0.000000        0.077569         1
        15        16        17        35     9      180.000000       12.867849         2
        15        16        17        35     9        0.000000       -0.083698         3
        15        16        17        35     9      180.000000        0.318108         4
        15        16        24        22     9        0.000000        0.301612         1
        15        16        24        22     9      180.000000       16.852349         2
        15        16        24        22     9        0.000000        0.363219         3
        15        16        24        22     9      180.000000       -0.324669         4
        15        16        24        42     9        0.000000        0.077569         1
        15        16        24        42     9      180.000000       12.867848         2
        15        16        24        42     9        0.000000       -0.083698         3
        15        16        24        42     9      180.000000        0.318108         4
        16        15        14        33     9        0.000000       -0.180130         1
        16        15        14        33     9      180.000000        0.036843         2
        16        15        14        33     9        0.000000        0.827393         3
        16        15        14        33     9      180.000000       -0.048875         4
        16        15        14        34     9        0.000000       -0.180130         1
        16        15        14        34     9      180.000000        0.036843         2
        16        15        14        34     9        0.000000        0.827393         3
        16        15        14        34     9      180.000000       -0.048875         4
        16        17        18        19     9        0.000000        0.079422         1
        16        17        18        19     9      180.000000       16.350832         2
        16        17        18        19     9        0.000000       -0.049451         3
        16        17        18        19     9      180.000000       -0.286105         4
        16        17        18        20     9        0.000000       -0.118684         1
        16        17        18        20     9      180.000000       18.963111         2
        16        17        18        20     9        0.000000       -1.419004         3
        16        17        18        20     9      180.000000       -0.550490         4
        16        24        22        20     9        0.000000       -0.118683         1
        16        24        22        20     9      180.000000       18.963109         2
        16        24        22        20     9        0.000000       -1.419004         3
        16        24        22        20     9      180.000000       -0.550490         4
        16        24        22        23     9        0.000000        0.079421         1
        16        24        22        23     9      180.000000       16.350832         2
        16        24        22        23     9        0.000000       -0.049452         3
        16        24        22        23     9      180.000000       -0.286105         4
        17        16        24        22     9        0.000000       -0.103053         1
        17        16        24        22     9      180.000000       15.653163         2
        17        16        24        22     9        0.000000       -1.003742         3
        17        16        24        22     9      180.000000       -0.230044         4
        17        16        24        42     9        0.000000        0.054561         1
        17        16        24        42     9      180.000000       12.313195         2
        17        16        24        42     9        0.000000       -0.472030         3
        17        16        24        42     9      180.000000        0.201015         4
        17        18        19        36     9        0.000000       -0.020052         1
        17        18        19        36     9      180.000000        0.002010         2
        17        18        19        36     9        0.000000       -0.133025         3
        17        18        19        36     9      180.000000        0.002394         4
        17        18        19        37     9        0.000000       -0.020053         1
        17        18        19        37     9      180.000000        0.002010         2
        17        18        19        37     9        0.000000       -0.133025         3
        17        18        19        37     9      180.000000        0.002394         4
        17        18        19        38     9        0.000000       -0.020053         1
        17        18        19        38     9      180.000000        0.002010         2
        17        18        19        38     9        0.000000       -0.133025         3
        17        18        19        38     9      180.000000        0.002394         4
        17        18        20        21     9        0.000000        0.212531         1
        17        18        20        21     9      180.000000       18.642595         2
        17        18        20        21     9        0.000000        0.197826         3
        17        18        20        21     9      180.000000       -0.606702         4
        17        18        20        22     9        0.000000       -0.076351         1
        17        18        20        22     9      180.000000       17.006314         2
        17        18        20        22     9        0.000000       -1.141110         3
        17        18        20        22     9      180.000000       -0.339527         4
        18        17        16        24     9        0.000000       -0.103052         1
        18        17        16        24     9      180.000000       15.653163         2
        18        17        16        24     9        0.000000       -1.003742         3
        18        17        16        24     9      180.000000       -0.230044         4
        18        20        22        23     9        0.000000        0.210009         1
        18        20        22        23     9      180.000000       13.888542         2
        18        20        22        23     9        0.000000       -0.204866         3
        18        20        22        23     9      180.000000       -0.185053         4
        18        20        22        24     9        0.000000       -0.076353         1
        18        20        22        24     9      180.000000       17.006314         2
        18        20        22        24     9        0.000000       -1.141109         3
        18        20        22        24     9      180.000000       -0.339527         4
        19        18        17        35     9        0.000000       -0.123001         1
        19        18        17        35     9      180.000000       13.141090         2
        19        18        17        35     9        0.000000       -0.476172         3
        19        18        17        35     9      180.000000        0.276766         4
        19        18        20        21     9        0.000000       -0.154583         1
        19        18        20        21     9      180.000000       16.420763         2
        19        18        20        21     9        0.000000       -0.142787         3
        19        18        20        21     9      180.000000       -0.451462         4
        19        18        20        22     9        0.000000        0.210008         1
        19        18        20        22     9      180.000000       13.888543         2
        19        18        20        22     9        0.000000       -0.204866         3
        19        18        20        22     9      180.000000       -0.185053         4
        20        18        17        35     9        0.000000        0.145216         1
        20        18        17        35     9      180.000000       13.905365         2
        20        18        17        35     9        0.000000       -0.387717         3
        20        18        17        35     9      180.000000        0.192985         4
        20        18        19        36     9        0.000000       -0.013438         1
        20        18        19        36     9      180.000000       -0.011172         2
        20        18        19        36     9        0.000000        0.211639         3
        20        18        19        36     9      180.000000        0.022789         4
        20        18        19        37     9        0.000000       -0.013438         1
        20        18        19        37     9      180.000000       -0.011171         2
        20        18        19        37     9        0.000000        0.211639         3
        20        18        19        37     9      180.000000        0.022789         4
        20        18        19        38     9        0.000000       -0.013438         1
        20        18        19        38     9      180.000000       -0.011171         2
        20        18        19        38     9        0.000000        0.211639         3
        20        18        19        38     9      180.000000        0.022789         4
        20        22        23        39     9        0.000000       -0.013439         1
        20        22        23        39     9      180.000000       -0.011172         2
        20        22        23        39     9        0.000000        0.211639         3
        20        22        23        39     9      180.000000        0.022789         4
        20        22        23        40     9        0.000000       -0.013439         1
        20        22        23        40     9      180.000000       -0.011172         2
        20        22        23        40     9        0.000000        0.211639         3
        20        22        23        40     9      180.000000        0.022789         4
        20        22        23        41     9        0.000000       -0.013439         1
        20        22        23        41     9      180.000000       -0.011172         2
        20        22        23        41     9        0.000000        0.211639         3
        20        22        23        41     9      180.000000        0.022789         4
        20        22        24        42     9        0.000000        0.145216         1
        20        22        24        42     9      180.000000       13.905366         2
        20        22        24        42     9        0.000000       -0.387716         3
        20        22        24        42     9      180.000000        0.192985         4
        21        20        22        23     9        0.000000       -0.154582         1
        21        20        22        23     9      180.000000       16.420763         2
        21        20        22        23     9        0.000000       -0.142788         3
        21        20        22        23     9      180.000000       -0.451462         4
        21        20        22        24     9        0.000000        0.212531         1
        21        20        22        24     9      180.000000       18.642597         2
        21        20        22        24     9        0.000000        0.197826         3
        21        20        22        24     9      180.000000       -0.606703         4
        23        22        24        42     9        0.000000       -0.123002         1
        23        22        24        42     9      180.000000       13.141091         2
        23        22        24        42     9        0.000000       -0.476172         3
        23        22        24        42     9      180.000000        0.276766         4
        24        16        17        35     9        0.000000        0.054560         1
        24        16        17        35     9      180.000000       12.313195         2
        24        16        17        35     9        0.000000       -0.472030         3
        24        16        17        35     9      180.000000        0.201016         4
        24        22        23        39     9        0.000000       -0.020052         1
        24        22        23        39     9      180.000000        0.002010         2
        24        22        23        39     9        0.000000       -0.133025         3
        24        22        23        39     9      180.000000        0.002394         4
        24        22        23        40     9        0.000000       -0.020052         1
        24        22        23        40     9      180.000000        0.002010         2
        24        22        23        40     9        0.000000       -0.133025         3
        24        22        23        40     9      180.000000        0.002394         4
        24        22        23        41     9        0.000000       -0.020052         1
        24        22        23        41     9      180.000000        0.002010         2
        24        22        23        41     9        0.000000       -0.133025         3
        24        22        23        41     9      180.000000        0.002394         4
        25         6         5        47     9        0.000000        0.079481         1
        25         6         5        47     9      180.000000       10.940702         2
        25         6         5        47     9        0.000000       -0.129558         3
        25         6         5        47     9      180.000000        0.185084         4
        25         6         7        26     9        0.000000        0.191391         1
        25         6         7        26     9      180.000000       13.879384         2
        25         6         7        26     9        0.000000       -0.001180         3
        25         6         7        26     9      180.000000        0.221898         4
        26         7         8        27     9        0.000000        0.116455         1
        26         7         8        27     9      180.000000       12.731915         2
        26         7         8        27     9        0.000000       -0.105834         3
        26         7         8        27     9      180.000000        0.218084         4
        27         8         9        28     9        0.000000       -0.156427         1
        27         8         9        28     9      180.000000       12.477068         2
        27         8         9        28     9        0.000000       -0.751054         3
        27         8         9        28     9      180.000000        0.283892         4
        29        12        13        31     9        0.000000        0.013511         1
        29        12        13        31     9      180.000000        0.031778         2
        29        12        13        31     9        0.000000        0.615523         3
        29        12        13        31     9      180.000000       -0.015043         4
        29        12        13        32     9        0.000000        0.013511         1
        29        12        13        32     9      180.000000        0.031778         2
        29        12        13        32     9        0.000000        0.615523         3
        29        12        13        32     9      180.000000       -0.015043         4
        30        12        13        31     9        0.000000        0.013511         1
        30        12        13        31     9      180.000000        0.031778         2
        30        12        13        31     9        0.000000        0.615523         3
        30        12        13        31     9      180.000000       -0.015043         4
        30        12        13        32     9        0.000000        0.013511         1
        30        12        13        32     9      180.000000        0.031778         2
        30        12        13        32     9        0.000000        0.615523         3
        30        12        13        32     9      180.000000       -0.015043         4
        31        13        14        33     9        0.000000       -0.001071         1
        31        13        14        33     9      180.000000       -0.020826         2
        31        13        14        33     9        0.000000        0.671101         3
        31        13        14        33     9      180.000000       -0.051736         4
        31        13        14        34     9        0.000000       -0.001071         1
        31        13        14        34     9      180.000000       -0.020826         2
        31        13        14        34     9        0.000000        0.671101         3
        31        13        14        34     9      180.000000       -0.051736         4
        32        13        14        33     9        0.000000       -0.001071         1
        32        13        14        33     9      180.000000       -0.020826         2
        32        13        14        33     9        0.000000        0.671101         3
        32        13        14        33     9      180.000000       -0.051736         4
        32        13        14        34     9        0.000000       -0.001071         1
        32        13        14        34     9      180.000000       -0.020826         2
        32        13        14        34     9        0.000000        0.671101         3
        32        13        14        34     9      180.000000       -0.051736         4

[ dihedrals ] ; impropers
;       ai        aj        ak        al funct           phase               k        pn
         2         1         3         4     4      180.000000       27.893333         2
         2         3         4         1     4      180.000000       27.893333         2
         2         4         1         3     4      180.000000       27.893333         2

[ pairs ]
;       ai        aj funct
         1        11     1
         1        47     1
         2         5     1
         2        10     1
         2        12     1
         2        43     1
         3        11     1
         3        47     1
         4         6     1
         4         9     1
         4        13     1
         4        29     1
         4        30     1
         4        44     1
         4        45     1
         4        46     1
         5         8     1
         5        12     1
         5        26     1
         5        28     1
         5        44     1
         5        45     1
         5        46     1
         6         9     1
         6        11     1
         6        27     1
         6        43     1
         7        10     1
         7        28     1
         7        47     1
         8        11     1
         8        25     1
         9        12     1
         9        26     1
         9        47     1
        10        13     1
        10        25     1
        10        27     1
        10        29     1
        10        30     1
        10        43     1
        11        14     1
        11        28     1
        11        31     1
        11        32     1
        11        43     1
        12        15     1
        12        33     1
        12        34     1
        12        47     1
        13        16     1
        14        17     1
        14        24     1
        14        29     1
        14        30     1
        15        18     1
        15        22     1
        15        31     1
        15        32     1
        15        35     1
        15        42     1
        16        19     1
        16        20     1
        16        23     1
        16        33     1
        16        34     1
        17        21     1
        17        22     1
        17        36     1
        17        37     1
        17        38     1
        17        42     1
        18        23     1
        18        24     1
        19        21     1
        19        22     1
        19        35     1
        20        35     1
        20        36     1
        20        37     1
        20        38     1
        20        39     1
        20        40     1
        20        41     1
        20        42     1
        21        23     1
        21        24     1
        23        42     1
        24        35     1
        24        39     1
        24        40     1
        24        41     1
        25        26     1
        25        47     1
        26        27     1
        27        28     1
        29        31     1
        29        32     1
        30        31     1
        30        32     1
        31        33     1
        31        34     1
        32        33     1
        32        34     1
