; ITP file created by ByteFF-ML, 2026-02-21 08:18:41.339266

[ atomtypes ]
;name           bonded.type        at.num        mass        charge   ptype           sigma         epsilon
 o0bf                                   8      0.0000       0.00000       A     3.04919e-01     6.10977e-01
 c1bf                                   6      0.0000       0.00000       A     3.31269e-01     4.10546e-01
 o2bf                                   8      0.0000       0.00000       A     3.04919e-01     6.10977e-01
 c3bf                                   6      0.0000       0.00000       A     3.31892e-01     4.10332e-01
 s4bf                                  16      0.0000       0.00000       A     3.53314e-01     1.18506e+00
 c5bf                                   6      0.0000       0.00000       A     3.31426e-01     4.12076e-01
 c6bf                                   6      0.0000       0.00000       A     3.31437e-01     4.12530e-01
 c7bf                                   6      0.0000       0.00000       A     3.31466e-01     4.13064e-01
 c8bf                                   6      0.0000       0.00000       A     3.31481e-01     4.13128e-01
 c9bf                                   6      0.0000       0.00000       A     3.31473e-01     4.12341e-01
 c10bf                                  6      0.0000       0.00000       A     3.31563e-01     4.12657e-01
 c11bf                                  6      0.0000       0.00000       A     3.31322e-01     4.12124e-01
 c12bf                                  6      0.0000       0.00000       A     3.39703e-01     4.52313e-01
 c13bf                                  6      0.0000       0.00000       A     3.39810e-01     4.50706e-01
 c14bf                                  6      0.0000       0.00000       A     3.39714e-01     4.51040e-01
 o15bf                                  8      0.0000       0.00000       A     3.15822e-01     3.05272e-01
 c16bf                                  6      0.0000       0.00000       A     3.31432e-01     4.12981e-01
 c17bf                                  6      0.0000       0.00000       A     3.31554e-01     4.12571e-01
 c18bf                                  6      0.0000       0.00000       A     3.31461e-01     4.12386e-01
 c19bf                                  6      0.0000       0.00000       A     3.39791e-01     4.50449e-01
 c20bf                                  6      0.0000       0.00000       A     3.31555e-01     4.13380e-01
 cl21bf                                17      0.0000       0.00000       A     3.46762e-01     1.10618e+00
 c22bf                                  6      0.0000       0.00000       A     3.31461e-01     4.12384e-01
 c23bf                                  6      0.0000       0.00000       A     3.39791e-01     4.50449e-01
 c24bf                                  6      0.0000       0.00000       A     3.31554e-01     4.12571e-01
 h25bf                                  1      0.0000       0.00000       A     2.62518e-01     6.71083e-02
 h26bf                                  1      0.0000       0.00000       A     2.62464e-01     6.75201e-02
 h27bf                                  1      0.0000       0.00000       A     2.62437e-01     6.74722e-02
 h28bf                                  1      0.0000       0.00000       A     2.62537e-01     6.69232e-02
 h29bf                                  1      0.0000       0.00000       A     2.59682e-01     8.75396e-02
 h30bf                                  1      0.0000       0.00000       A     2.59682e-01     8.75396e-02
 h31bf                                  1      0.0000       0.00000       A     2.60066e-01     8.68629e-02
 h32bf                                  1      0.0000       0.00000       A     2.60066e-01     8.68629e-02
 h33bf                                  1      0.0000       0.00000       A     2.42089e-01     8.76721e-02
 h34bf                                  1      0.0000       0.00000       A     2.42089e-01     8.76721e-02
 h35bf                                  1      0.0000       0.00000       A     2.62480e-01     6.69854e-02
 h36bf                                  1      0.0000       0.00000       A     2.60015e-01     8.71198e-02
 h37bf                                  1      0.0000       0.00000       A     2.60015e-01     8.71198e-02
 h38bf                                  1      0.0000       0.00000       A     2.60015e-01     8.71198e-02
 h39bf                                  1      0.0000       0.00000       A     2.60015e-01     8.71198e-02
 h40bf                                  1      0.0000       0.00000       A     2.60015e-01     8.71198e-02
 h41bf                                  1      0.0000       0.00000       A     2.60015e-01     8.71198e-02
 h42bf                                  1      0.0000       0.00000       A     2.62480e-01     6.69854e-02

[ moleculetype ]
;name             nrexcl
 60                    3

[ atoms ]
;       nr            type      resi   res      atom      cgnr      charge          mass ; qtot
         1            o0bf         1   UNL        o0         1    -0.72561       15.9990 ; qtot   -0.726
         2            c1bf         1   UNL        c1         2     0.70759       12.0110 ; qtot   -0.018
         3            o2bf         1   UNL        o2         3    -0.72561       15.9990 ; qtot   -0.744
         4            c3bf         1   UNL        c3         4    -0.06519       12.0110 ; qtot   -0.809
         5            s4bf         1   UNL        s4         5     0.02825       32.0670 ; qtot   -0.781
         6            c5bf         1   UNL        c5         6    -0.18873       12.0110 ; qtot   -0.969
         7            c6bf         1   UNL        c6         7    -0.08999       12.0110 ; qtot   -1.059
         8            c7bf         1   UNL        c7         8    -0.10022       12.0110 ; qtot   -1.160
         9            c8bf         1   UNL        c8         9    -0.11733       12.0110 ; qtot   -1.277
        10            c9bf         1   UNL        c9        10    -0.08052       12.0110 ; qtot   -1.357
        11           c10bf         1   UNL       c10        11    -0.06684       12.0110 ; qtot   -1.424
        12           c11bf         1   UNL       c11        12    -0.14716       12.0110 ; qtot   -1.571
        13           c12bf         1   UNL       c12        13    -0.01797       12.0110 ; qtot   -1.589
        14           c13bf         1   UNL       c13        14    -0.09028       12.0110 ; qtot   -1.680
        15           c14bf         1   UNL       c14        15     0.16312       12.0110 ; qtot   -1.516
        16           o15bf         1   UNL       o15        16    -0.35197       15.9990 ; qtot   -1.868
        17           c16bf         1   UNL       c16        17     0.14773       12.0110 ; qtot   -1.721
        18           c17bf         1   UNL       c17        18    -0.16892       12.0110 ; qtot   -1.890
        19           c18bf         1   UNL       c18        19    -0.02666       12.0110 ; qtot   -1.916
        20           c19bf         1   UNL       c19        20    -0.04881       12.0110 ; qtot   -1.965
        21           c20bf         1   UNL       c20        21     0.09092       12.0110 ; qtot   -1.874
        22          cl21bf         1   UNL      cl21        22    -0.22555       35.4530 ; qtot   -2.100
        23           c22bf         1   UNL       c22        23    -0.02666       12.0110 ; qtot   -2.126
        24           c23bf         1   UNL       c23        24    -0.04881       12.0110 ; qtot   -2.175
        25           c24bf         1   UNL       c24        25    -0.16892       12.0110 ; qtot   -2.344
        26           h25bf         1   UNL       h25        26     0.12353        1.0080 ; qtot   -2.221
        27           h26bf         1   UNL       h26        27     0.11411        1.0080 ; qtot   -2.106
        28           h27bf         1   UNL       h27        28     0.11467        1.0080 ; qtot   -1.992
        29           h28bf         1   UNL       h28        29     0.12187        1.0080 ; qtot   -1.870
        30           h29bf         1   UNL       h29        30     0.05306        1.0080 ; qtot   -1.817
        31           h30bf         1   UNL       h30        31     0.05306        1.0080 ; qtot   -1.764
        32           h31bf         1   UNL       h31        32     0.05628        1.0080 ; qtot   -1.708
        33           h32bf         1   UNL       h32        33     0.05628        1.0080 ; qtot   -1.651
        34           h33bf         1   UNL       h33        34     0.04441        1.0080 ; qtot   -1.607
        35           h34bf         1   UNL       h34        35     0.04441        1.0080 ; qtot   -1.562
        36           h35bf         1   UNL       h35        36     0.12602        1.0080 ; qtot   -1.436
        37           h36bf         1   UNL       h36        37     0.05173        1.0080 ; qtot   -1.385
        38           h37bf         1   UNL       h37        38     0.05173        1.0080 ; qtot   -1.333
        39           h38bf         1   UNL       h38        39     0.05173        1.0080 ; qtot   -1.281
        40           h39bf         1   UNL       h39        40     0.05173        1.0080 ; qtot   -1.230
        41           h40bf         1   UNL       h40        41     0.05173        1.0080 ; qtot   -1.178
        42           h41bf         1   UNL       h41        42     0.05173        1.0080 ; qtot   -1.126
        43           h42bf         1   UNL       h42        43     0.12606        1.0080 ; qtot   -1.000

[ bonds ]
;       ai        aj funct               r               k
         1         2     1        0.125984   487533.551758
         2         3     1        0.125984   487533.551758
         2         4     1        0.153727   118949.161304
         4         5     1        0.176582   125133.661841
         4        12     1        0.137301   368138.474219
         5         6     1        0.174952   155576.603149
         6         7     1        0.140015   303969.847266
         6        11     1        0.142131   247347.717041
         7         8     1        0.139359   319033.013379
         7        26     1        0.108601   319765.111230
         8         9     1        0.140954   286764.321973
         8        27     1        0.108618   320039.507471
         9        10     1        0.139015   330150.900391
         9        28     1        0.108624   319463.160449
        10        11     1        0.141177   287435.641504
        10        29     1        0.108496   321621.786768
        11        12     1        0.144972   222426.358447
        12        13     1        0.150895   199647.525024
        13        14     1        0.154275   174916.813721
        13        30     1        0.109336   298413.329785
        13        31     1        0.109336   298413.329785
        14        15     1        0.152497   192476.870703
        14        32     1        0.109500   298043.501367
        14        33     1        0.109500   298043.475830
        15        16     1        0.143236   188521.555518
        15        34     1        0.109678   290005.185449
        15        35     1        0.109678   290005.185449
        16        17     1        0.136766   267570.426270
        17        18     1        0.140055   290275.010547
        17        25     1        0.140055   290275.036084
        18        19     1        0.139982   300993.905762
        18        36     1        0.108463   321222.871582
        19        20     1        0.150871   204488.199023
        19        21     1        0.140338   274458.806152
        20        37     1        0.109363   302731.450684
        20        38     1        0.109363   302731.450684
        20        39     1        0.109363   302731.450684
        21        22     1        0.176898   133058.886670
        21        23     1        0.140338   274458.806152
        23        24     1        0.150871   204488.199023
        23        25     1        0.139982   300993.854687
        24        40     1        0.109363   302731.450684
        24        41     1        0.109363   302731.450684
        24        42     1        0.109363   302731.450684
        25        43     1        0.108463   321222.871582

[ angles ]
;       ai        aj        ak funct           theta             cth
         1         2         3     1      130.098618      692.395946
         1         2         4     1      115.038292      339.312881
         2         4         5     1      114.594284      555.969813
         2         4        12     1      132.083405      369.621823
         3         2         4     1      115.038292      339.312881
         4         5         6     1       91.441521      495.775750
         4        12        11     1      111.856339      377.412876
         4        12        13     1      124.838852      398.841415
         5         4        12     1      113.010132      167.360000
         5         6         7     1      127.078873      382.360276
         5         6        11     1      111.566330      167.360000
         6         7         8     1      118.560471      715.751101
         6         7        26     1      120.800476      422.912822
         6        11        10     1      118.269394      704.142123
         6        11        12     1      112.758705      425.795132
         7         6        11     1      121.547218      676.739655
         7         8         9     1      120.642235      664.067120
         7         8        27     1      119.576195      431.573573
         8         7        26     1      120.706223      439.819857
         8         9        10     1      120.804504      671.619528
         8         9        28     1      119.440041      444.151302
         9         8        27     1      119.731712      440.000819
         9        10        11     1      119.900917      708.410331
         9        10        29     1      120.254005      429.132066
        10         9        28     1      119.785782      438.087132
        10        11        12     1      129.003128      419.167805
        11        10        29     1      119.841385      432.539195
        11        12        13     1      122.800941      464.865473
        12        13        14     1      112.546959      562.644702
        12        13        30     1      108.998489      490.806037
        12        13        31     1      108.998489      490.806037
        13        14        15     1      112.505287      591.873903
        13        14        32     1      109.489243      482.750866
        13        14        33     1      109.489243      482.750866
        14        13        30     1      108.994492      482.605752
        14        13        31     1      108.994492      482.605752
        14        15        16     1      109.534706      622.121652
        14        15        34     1      110.731422      493.841824
        14        15        35     1      110.731422      493.841824
        15        14        32     1      108.814285      510.860584
        15        14        33     1      108.814285      510.860584
        15        16        17     1      118.844559      525.993364
        16        15        34     1      108.915588      459.732418
        16        15        35     1      108.915588      459.732418
        16        17        18     1      120.182823      539.222640
        16        17        25     1      120.182823      539.222640
        17        18        19     1      121.024536      726.137171
        17        18        36     1      119.719345      439.110787
        17        25        23     1      121.024536      726.137107
        17        25        43     1      119.719345      439.110787
        18        17        25     1      119.664146      578.709076
        18        19        20     1      120.321632      419.261047
        18        19        21     1      117.928101      622.323842
        19        18        36     1      119.245934      407.396315
        19        20        37     1      111.015518      475.802219
        19        20        38     1      111.015518      475.802219
        19        20        39     1      111.015518      475.802219
        19        21        22     1      118.560402      387.794126
        19        21        23     1      122.675980      600.905996
        20        19        21     1      121.863098      370.480189
        21        23        24     1      121.863098      370.480189
        21        23        25     1      117.928101      622.323778
        22        21        23     1      118.560402      387.794126
        23        24        40     1      111.015518      475.802219
        23        24        41     1      111.015518      475.802219
        23        24        42     1      111.015518      475.802219
        23        25        43     1      119.245934      407.396347
        24        23        25     1      120.321640      419.261047
        30        13        31     1      106.906784      355.746171
        32        14        33     1      107.034164      359.483782
        34        15        35     1      107.963120      344.594147
        37        20        38     1      107.895142      356.831338
        37        20        39     1      107.895142      356.831338
        38        20        39     1      107.895142      356.831338
        40        24        41     1      107.895142      356.831306
        40        24        42     1      107.895142      356.831306
        41        24        42     1      107.895142      356.831306

[ dihedrals ] ; propers for gromacs 4.5 or higher, use funct 9
;       ai        aj        ak        al funct           phase               k        pn
         1         2         4         5     9        0.000000       -0.463143         1
         1         2         4         5     9      180.000000        4.546049         2
         1         2         4         5     9        0.000000        0.162219         3
         1         2         4         5     9      180.000000        0.340771         4
         1         2         4        12     9        0.000000       -0.404279         1
         1         2         4        12     9      180.000000        2.216462         2
         1         2         4        12     9        0.000000       -0.110479         3
         1         2         4        12     9      180.000000        0.148218         4
         2         4         5         6     9        0.000000        0.004689         1
         2         4         5         6     9      180.000000        9.888180         2
         2         4         5         6     9        0.000000       -0.157566         3
         2         4         5         6     9      180.000000       -0.021359         4
         2         4        12        11     9        0.000000       -0.420707         1
         2         4        12        11     9      180.000000       18.177717         2
         2         4        12        11     9        0.000000       -1.030058         3
         2         4        12        11     9      180.000000       -1.063931         4
         2         4        12        13     9        0.000000        0.102360         1
         2         4        12        13     9      180.000000       16.785277         2
         2         4        12        13     9        0.000000        0.333537         3
         2         4        12        13     9      180.000000       -0.969877         4
         3         2         4         5     9        0.000000       -0.463143         1
         3         2         4         5     9      180.000000        4.546049         2
         3         2         4         5     9        0.000000        0.162219         3
         3         2         4         5     9      180.000000        0.340771         4
         3         2         4        12     9        0.000000       -0.404279         1
         3         2         4        12     9      180.000000        2.216462         2
         3         2         4        12     9        0.000000       -0.110479         3
         3         2         4        12     9      180.000000        0.148218         4
         4         5         6         7     9        0.000000        0.129477         1
         4         5         6         7     9      180.000000        5.399262         2
         4         5         6         7     9        0.000000       -0.240591         3
         4         5         6         7     9      180.000000        0.235234         4
         4         5         6        11     9        0.000000       -0.002019         1
         4         5         6        11     9      180.000000       21.084904         2
         4         5         6        11     9        0.000000       -5.141620         3
         4         5         6        11     9      180.000000       -0.549440         4
         4        12        11         6     9        0.000000        0.080982         1
         4        12        11         6     9      180.000000       18.306203         2
         4        12        11         6     9        0.000000       -4.977312         3
         4        12        11         6     9      180.000000       -0.026284         4
         4        12        11        10     9        0.000000       -0.211593         1
         4        12        11        10     9      180.000000        4.584475         2
         4        12        11        10     9        0.000000       -0.682618         3
         4        12        11        10     9      180.000000        0.389651         4
         4        12        13        14     9        0.000000       -2.090597         1
         4        12        13        14     9      180.000000        0.038244         2
         4        12        13        14     9        0.000000       -0.032333         3
         4        12        13        14     9      180.000000       -0.023217         4
         4        12        13        30     9        0.000000        0.183641         1
         4        12        13        30     9      180.000000        0.020462         2
         4        12        13        30     9        0.000000       -0.520161         3
         4        12        13        30     9      180.000000        0.122382         4
         4        12        13        31     9        0.000000        0.183641         1
         4        12        13        31     9      180.000000        0.020462         2
         4        12        13        31     9        0.000000       -0.520161         3
         4        12        13        31     9      180.000000        0.122382         4
         5         4        12        11     9        0.000000       -0.335998         1
         5         4        12        11     9      180.000000       30.078789         2
         5         4        12        11     9        0.000000       -4.541596         3
         5         4        12        11     9      180.000000       -1.063987         4
         5         4        12        13     9        0.000000        0.294702         1
         5         4        12        13     9      180.000000       21.691795         2
         5         4        12        13     9        0.000000        0.232979         3
         5         4        12        13     9      180.000000       -1.409136         4
         5         6         7         8     9        0.000000       -0.055049         1
         5         6         7         8     9      180.000000       14.075394         2
         5         6         7         8     9        0.000000       -0.302590         3
         5         6         7         8     9      180.000000       -0.241650         4
         5         6         7        26     9        0.000000        0.093926         1
         5         6         7        26     9      180.000000       10.856975         2
         5         6         7        26     9        0.000000       -0.123305         3
         5         6         7        26     9      180.000000       -0.016964         4
         5         6        11        10     9        0.000000        0.416624         1
         5         6        11        10     9      180.000000       11.254191         2
         5         6        11        10     9        0.000000       -0.866140         3
         5         6        11        10     9      180.000000       -0.160094         4
         5         6        11        12     9        0.000000       -0.238297         1
         5         6        11        12     9      180.000000       15.931347         2
         5         6        11        12     9        0.000000       -3.761403         3
         5         6        11        12     9      180.000000       -0.396284         4
         6         5         4        12     9        0.000000        0.330313         1
         6         5         4        12     9      180.000000       22.431869         2
         6         5         4        12     9        0.000000       -4.585338         3
         6         5         4        12     9      180.000000       -0.533454         4
         6         7         8         9     9        0.000000       -0.207129         1
         6         7         8         9     9      180.000000       20.573585         2
         6         7         8         9     9        0.000000       -1.733007         3
         6         7         8         9     9      180.000000       -0.491468         4
         6         7         8        27     9        0.000000        0.064358         1
         6         7         8        27     9      180.000000       15.897061         2
         6         7         8        27     9        0.000000       -0.591405         3
         6         7         8        27     9      180.000000        0.000695         4
         6        11        10         9     9        0.000000       -0.103632         1
         6        11        10         9     9      180.000000       18.818465         2
         6        11        10         9     9        0.000000       -1.463292         3
         6        11        10         9     9      180.000000       -0.434903         4
         6        11        10        29     9        0.000000        0.247044         1
         6        11        10        29     9      180.000000       13.184325         2
         6        11        10        29     9        0.000000       -0.192624         3
         6        11        10        29     9      180.000000        0.040266         4
         6        11        12        13     9        0.000000        0.792108         1
         6        11        12        13     9      180.000000       12.308056         2
         6        11        12        13     9        0.000000        0.574996         3
         6        11        12        13     9      180.000000       -0.293422         4
         7         6        11        10     9        0.000000        0.154225         1
         7         6        11        10     9      180.000000       12.288559         2
         7         6        11        10     9        0.000000       -1.318067         3
         7         6        11        10     9      180.000000       -0.141799         4
         7         6        11        12     9        0.000000        0.015601         1
         7         6        11        12     9      180.000000       12.680633         2
         7         6        11        12     9        0.000000       -2.072194         3
         7         6        11        12     9      180.000000       -0.130007         4
         7         8         9        10     9        0.000000       -0.040826         1
         7         8         9        10     9      180.000000       17.191666         2
         7         8         9        10     9        0.000000       -1.373249         3
         7         8         9        10     9      180.000000       -0.303798         4
         7         8         9        28     9        0.000000        0.005251         1
         7         8         9        28     9      180.000000       13.691053         2
         7         8         9        28     9        0.000000       -0.667146         3
         7         8         9        28     9      180.000000        0.152394         4
         8         7         6        11     9        0.000000       -0.043735         1
         8         7         6        11     9      180.000000       18.131996         2
         8         7         6        11     9        0.000000       -1.374689         3
         8         7         6        11     9      180.000000       -0.410732         4
         8         9        10        11     9        0.000000       -0.239604         1
         8         9        10        11     9      180.000000       21.094865         2
         8         9        10        11     9        0.000000       -1.831684         3
         8         9        10        11     9      180.000000       -0.544687         4
         8         9        10        29     9        0.000000       -0.009252         1
         8         9        10        29     9      180.000000       15.529074         2
         8         9        10        29     9        0.000000       -0.576745         3
         8         9        10        29     9      180.000000        0.103885         4
         9         8         7        26     9        0.000000        0.065043         1
         9         8         7        26     9      180.000000       15.147988         2
         9         8         7        26     9        0.000000       -0.552595         3
         9         8         7        26     9      180.000000        0.123937         4
         9        10        11        12     9        0.000000       -0.115588         1
         9        10        11        12     9      180.000000       14.274279         2
         9        10        11        12     9        0.000000       -0.985717         3
         9        10        11        12     9      180.000000       -0.187492         4
        10         9         8        27     9        0.000000       -0.000878         1
        10         9         8        27     9      180.000000       13.428758         2
        10         9         8        27     9        0.000000       -0.730064         3
        10         9         8        27     9      180.000000        0.144145         4
        10        11        12        13     9        0.000000       -0.630715         1
        10        11        12        13     9      180.000000        7.726171         2
        10        11        12        13     9        0.000000        0.123081         3
        10        11        12        13     9      180.000000        0.021478         4
        11         6         7        26     9        0.000000        0.280128         1
        11         6         7        26     9      180.000000       12.439783         2
        11         6         7        26     9        0.000000       -0.100282         3
        11         6         7        26     9      180.000000       -0.066351         4
        11        10         9        28     9        0.000000        0.023726         1
        11        10         9        28     9      180.000000       16.154147         2
        11        10         9        28     9        0.000000       -0.635440         3
        11        10         9        28     9      180.000000       -0.092694         4
        11        12        13        14     9        0.000000       -1.301472         1
        11        12        13        14     9      180.000000       -0.089206         2
        11        12        13        14     9        0.000000        0.267128         3
        11        12        13        14     9      180.000000        0.027438         4
        11        12        13        30     9        0.000000        0.284755         1
        11        12        13        30     9      180.000000        0.106024         2
        11        12        13        30     9        0.000000        0.290522         3
        11        12        13        30     9      180.000000        0.100525         4
        11        12        13        31     9        0.000000        0.284755         1
        11        12        13        31     9      180.000000        0.106024         2
        11        12        13        31     9        0.000000        0.290522         3
        11        12        13        31     9      180.000000        0.100525         4
        12        11        10        29     9        0.000000       -0.050377         1
        12        11        10        29     9      180.000000       10.683488         2
        12        11        10        29     9        0.000000       -0.277431         3
        12        11        10        29     9      180.000000        0.145745         4
        12        13        14        15     9        0.000000       -0.864810         1
        12        13        14        15     9      180.000000       -0.046212         2
        12        13        14        15     9        0.000000        0.421618         3
        12        13        14        15     9      180.000000       -0.014849         4
        12        13        14        32     9        0.000000        0.114645         1
        12        13        14        32     9      180.000000        0.012959         2
        12        13        14        32     9        0.000000        0.583301         3
        12        13        14        32     9      180.000000       -0.003002         4
        12        13        14        33     9        0.000000        0.114645         1
        12        13        14        33     9      180.000000        0.012959         2
        12        13        14        33     9        0.000000        0.583301         3
        12        13        14        33     9      180.000000       -0.003002         4
        13        14        15        16     9        0.000000       -1.073820         1
        13        14        15        16     9      180.000000       -0.186268         2
        13        14        15        16     9        0.000000        0.488364         3
        13        14        15        16     9      180.000000       -0.002121         4
        13        14        15        34     9        0.000000        0.003538         1
        13        14        15        34     9      180.000000        0.034514         2
        13        14        15        34     9        0.000000        0.646135         3
        13        14        15        34     9      180.000000        0.050603         4
        13        14        15        35     9        0.000000        0.003538         1
        13        14        15        35     9      180.000000        0.034514         2
        13        14        15        35     9        0.000000        0.646135         3
        13        14        15        35     9      180.000000        0.050603         4
        14        15        16        17     9        0.000000        0.350435         1
        14        15        16        17     9      180.000000        0.158108         2
        14        15        16        17     9        0.000000        0.689242         3
        14        15        16        17     9      180.000000        0.025863         4
        15        14        13        30     9        0.000000       -0.118538         1
        15        14        13        30     9      180.000000        0.058217         2
        15        14        13        30     9        0.000000        0.488785         3
        15        14        13        30     9      180.000000        0.030544         4
        15        14        13        31     9        0.000000       -0.118538         1
        15        14        13        31     9      180.000000        0.058217         2
        15        14        13        31     9        0.000000        0.488785         3
        15        14        13        31     9      180.000000        0.030544         4
        15        16        17        18     9        0.000000       -0.137734         1
        15        16        17        18     9      180.000000        5.126576         2
        15        16        17        18     9        0.000000        0.103179         3
        15        16        17        18     9      180.000000        0.346239         4
        15        16        17        25     9        0.000000       -0.137734         1
        15        16        17        25     9      180.000000        5.126576         2
        15        16        17        25     9        0.000000        0.103180         3
        15        16        17        25     9      180.000000        0.346240         4
        16        15        14        32     9        0.000000        0.059742         1
        16        15        14        32     9      180.000000        0.170310         2
        16        15        14        32     9        0.000000        0.482384         3
        16        15        14        32     9      180.000000        0.072412         4
        16        15        14        33     9        0.000000        0.059742         1
        16        15        14        33     9      180.000000        0.170310         2
        16        15        14        33     9        0.000000        0.482384         3
        16        15        14        33     9      180.000000        0.072412         4
        16        17        18        19     9        0.000000        0.301612         1
        16        17        18        19     9      180.000000       16.852349         2
        16        17        18        19     9        0.000000        0.363219         3
        16        17        18        19     9      180.000000       -0.324670         4
        16        17        18        36     9        0.000000        0.077569         1
        16        17        18        36     9      180.000000       12.867848         2
        16        17        18        36     9        0.000000       -0.083698         3
        16        17        18        36     9      180.000000        0.318108         4
        16        17        25        23     9        0.000000        0.301612         1
        16        17        25        23     9      180.000000       16.852349         2
        16        17        25        23     9        0.000000        0.363218         3
        16        17        25        23     9      180.000000       -0.324670         4
        16        17        25        43     9        0.000000        0.077569         1
        16        17        25        43     9      180.000000       12.867847         2
        16        17        25        43     9        0.000000       -0.083698         3
        16        17        25        43     9      180.000000        0.318108         4
        17        16        15        34     9        0.000000       -0.180129         1
        17        16        15        34     9      180.000000        0.036843         2
        17        16        15        34     9        0.000000        0.827393         3
        17        16        15        34     9      180.000000       -0.048875         4
        17        16        15        35     9        0.000000       -0.180129         1
        17        16        15        35     9      180.000000        0.036843         2
        17        16        15        35     9        0.000000        0.827393         3
        17        16        15        35     9      180.000000       -0.048875         4
        17        18        19        20     9        0.000000        0.079422         1
        17        18        19        20     9      180.000000       16.350832         2
        17        18        19        20     9        0.000000       -0.049451         3
        17        18        19        20     9      180.000000       -0.286105         4
        17        18        19        21     9        0.000000       -0.118684         1
        17        18        19        21     9      180.000000       18.963111         2
        17        18        19        21     9        0.000000       -1.419004         3
        17        18        19        21     9      180.000000       -0.550490         4
        17        25        23        21     9        0.000000       -0.118683         1
        17        25        23        21     9      180.000000       18.963111         2
        17        25        23        21     9        0.000000       -1.419004         3
        17        25        23        21     9      180.000000       -0.550491         4
        17        25        23        24     9        0.000000        0.079422         1
        17        25        23        24     9      180.000000       16.350832         2
        17        25        23        24     9        0.000000       -0.049451         3
        17        25        23        24     9      180.000000       -0.286105         4
        18        17        25        23     9        0.000000       -0.103052         1
        18        17        25        23     9      180.000000       15.653163         2
        18        17        25        23     9        0.000000       -1.003742         3
        18        17        25        23     9      180.000000       -0.230044         4
        18        17        25        43     9        0.000000        0.054560         1
        18        17        25        43     9      180.000000       12.313194         2
        18        17        25        43     9        0.000000       -0.472029         3
        18        17        25        43     9      180.000000        0.201015         4
        18        19        20        37     9        0.000000       -0.020053         1
        18        19        20        37     9      180.000000        0.002010         2
        18        19        20        37     9        0.000000       -0.133025         3
        18        19        20        37     9      180.000000        0.002394         4
        18        19        20        38     9        0.000000       -0.020053         1
        18        19        20        38     9      180.000000        0.002010         2
        18        19        20        38     9        0.000000       -0.133025         3
        18        19        20        38     9      180.000000        0.002394         4
        18        19        20        39     9        0.000000       -0.020053         1
        18        19        20        39     9      180.000000        0.002010         2
        18        19        20        39     9        0.000000       -0.133025         3
        18        19        20        39     9      180.000000        0.002394         4
        18        19        21        22     9        0.000000        0.212531         1
        18        19        21        22     9      180.000000       18.642595         2
        18        19        21        22     9        0.000000        0.197826         3
        18        19        21        22     9      180.000000       -0.606702         4
        18        19        21        23     9        0.000000       -0.076352         1
        18        19        21        23     9      180.000000       17.006314         2
        18        19        21        23     9        0.000000       -1.141110         3
        18        19        21        23     9      180.000000       -0.339527         4
        19        18        17        25     9        0.000000       -0.103051         1
        19        18        17        25     9      180.000000       15.653161         2
        19        18        17        25     9        0.000000       -1.003742         3
        19        18        17        25     9      180.000000       -0.230044         4
        19        21        23        24     9        0.000000        0.210009         1
        19        21        23        24     9      180.000000       13.888542         2
        19        21        23        24     9        0.000000       -0.204866         3
        19        21        23        24     9      180.000000       -0.185054         4
        19        21        23        25     9        0.000000       -0.076353         1
        19        21        23        25     9      180.000000       17.006314         2
        19        21        23        25     9        0.000000       -1.141110         3
        19        21        23        25     9      180.000000       -0.339527         4
        20        19        18        36     9        0.000000       -0.123001         1
        20        19        18        36     9      180.000000       13.141090         2
        20        19        18        36     9        0.000000       -0.476172         3
        20        19        18        36     9      180.000000        0.276766         4
        20        19        21        22     9        0.000000       -0.154583         1
        20        19        21        22     9      180.000000       16.420763         2
        20        19        21        22     9        0.000000       -0.142787         3
        20        19        21        22     9      180.000000       -0.451462         4
        20        19        21        23     9        0.000000        0.210009         1
        20        19        21        23     9      180.000000       13.888542         2
        20        19        21        23     9        0.000000       -0.204866         3
        20        19        21        23     9      180.000000       -0.185053         4
        21        19        18        36     9        0.000000        0.145215         1
        21        19        18        36     9      180.000000       13.905366         2
        21        19        18        36     9        0.000000       -0.387717         3
        21        19        18        36     9      180.000000        0.192985         4
        21        19        20        37     9        0.000000       -0.013438         1
        21        19        20        37     9      180.000000       -0.011171         2
        21        19        20        37     9        0.000000        0.211639         3
        21        19        20        37     9      180.000000        0.022789         4
        21        19        20        38     9        0.000000       -0.013438         1
        21        19        20        38     9      180.000000       -0.011171         2
        21        19        20        38     9        0.000000        0.211639         3
        21        19        20        38     9      180.000000        0.022789         4
        21        19        20        39     9        0.000000       -0.013438         1
        21        19        20        39     9      180.000000       -0.011171         2
        21        19        20        39     9        0.000000        0.211639         3
        21        19        20        39     9      180.000000        0.022789         4
        21        23        24        40     9        0.000000       -0.013439         1
        21        23        24        40     9      180.000000       -0.011172         2
        21        23        24        40     9        0.000000        0.211639         3
        21        23        24        40     9      180.000000        0.022789         4
        21        23        24        41     9        0.000000       -0.013439         1
        21        23        24        41     9      180.000000       -0.011172         2
        21        23        24        41     9        0.000000        0.211639         3
        21        23        24        41     9      180.000000        0.022789         4
        21        23        24        42     9        0.000000       -0.013439         1
        21        23        24        42     9      180.000000       -0.011172         2
        21        23        24        42     9        0.000000        0.211639         3
        21        23        24        42     9      180.000000        0.022789         4
        21        23        25        43     9        0.000000        0.145216         1
        21        23        25        43     9      180.000000       13.905365         2
        21        23        25        43     9        0.000000       -0.387717         3
        21        23        25        43     9      180.000000        0.192986         4
        22        21        23        24     9        0.000000       -0.154581         1
        22        21        23        24     9      180.000000       16.420763         2
        22        21        23        24     9        0.000000       -0.142787         3
        22        21        23        24     9      180.000000       -0.451462         4
        22        21        23        25     9        0.000000        0.212531         1
        22        21        23        25     9      180.000000       18.642597         2
        22        21        23        25     9        0.000000        0.197826         3
        22        21        23        25     9      180.000000       -0.606702         4
        24        23        25        43     9        0.000000       -0.123001         1
        24        23        25        43     9      180.000000       13.141091         2
        24        23        25        43     9        0.000000       -0.476172         3
        24        23        25        43     9      180.000000        0.276767         4
        25        17        18        36     9        0.000000        0.054561         1
        25        17        18        36     9      180.000000       12.313196         2
        25        17        18        36     9        0.000000       -0.472030         3
        25        17        18        36     9      180.000000        0.201016         4
        25        23        24        40     9        0.000000       -0.020053         1
        25        23        24        40     9      180.000000        0.002011         2
        25        23        24        40     9        0.000000       -0.133025         3
        25        23        24        40     9      180.000000        0.002394         4
        25        23        24        41     9        0.000000       -0.020053         1
        25        23        24        41     9      180.000000        0.002011         2
        25        23        24        41     9        0.000000       -0.133025         3
        25        23        24        41     9      180.000000        0.002394         4
        25        23        24        42     9        0.000000       -0.020053         1
        25        23        24        42     9      180.000000        0.002011         2
        25        23        24        42     9        0.000000       -0.133025         3
        25        23        24        42     9      180.000000        0.002394         4
        26         7         8        27     9        0.000000       -0.136469         1
        26         7         8        27     9      180.000000       11.929209         2
        26         7         8        27     9        0.000000       -0.693776         3
        26         7         8        27     9      180.000000        0.291563         4
        27         8         9        28     9        0.000000       -0.135532         1
        27         8         9        28     9      180.000000       10.693727         2
        27         8         9        28     9        0.000000       -0.450909         3
        27         8         9        28     9      180.000000        0.186513         4
        28         9        10        29     9        0.000000       -0.180463         1
        28         9        10        29     9      180.000000       12.542673         2
        28         9        10        29     9        0.000000       -0.672968         3
        28         9        10        29     9      180.000000        0.291125         4
        30        13        14        32     9        0.000000        0.010322         1
        30        13        14        32     9      180.000000        0.056829         2
        30        13        14        32     9        0.000000        0.610757         3
        30        13        14        32     9      180.000000       -0.006943         4
        30        13        14        33     9        0.000000        0.010322         1
        30        13        14        33     9      180.000000        0.056829         2
        30        13        14        33     9        0.000000        0.610757         3
        30        13        14        33     9      180.000000       -0.006943         4
        31        13        14        32     9        0.000000        0.010322         1
        31        13        14        32     9      180.000000        0.056829         2
        31        13        14        32     9        0.000000        0.610757         3
        31        13        14        32     9      180.000000       -0.006943         4
        31        13        14        33     9        0.000000        0.010322         1
        31        13        14        33     9      180.000000        0.056829         2
        31        13        14        33     9        0.000000        0.610757         3
        31        13        14        33     9      180.000000       -0.006943         4
        32        14        15        34     9        0.000000       -0.002337         1
        32        14        15        34     9      180.000000       -0.021077         2
        32        14        15        34     9        0.000000        0.671160         3
        32        14        15        34     9      180.000000       -0.051557         4
        32        14        15        35     9        0.000000       -0.002337         1
        32        14        15        35     9      180.000000       -0.021077         2
        32        14        15        35     9        0.000000        0.671160         3
        32        14        15        35     9      180.000000       -0.051557         4
        33        14        15        34     9        0.000000       -0.002337         1
        33        14        15        34     9      180.000000       -0.021077         2
        33        14        15        34     9        0.000000        0.671160         3
        33        14        15        34     9      180.000000       -0.051557         4
        33        14        15        35     9        0.000000       -0.002337         1
        33        14        15        35     9      180.000000       -0.021077         2
        33        14        15        35     9        0.000000        0.671160         3
        33        14        15        35     9      180.000000       -0.051557         4

[ dihedrals ] ; impropers
;       ai        aj        ak        al funct           phase               k        pn
         2         1         3         4     4      180.000000       27.893333         2
         2         3         4         1     4      180.000000       27.893333         2
         2         4         1         3     4      180.000000       27.893333         2

[ pairs ]
;       ai        aj funct
         1         5     1
         1        12     1
         2         6     1
         2        11     1
         2        13     1
         3         5     1
         3        12     1
         4         7     1
         4        10     1
         4        14     1
         4        30     1
         4        31     1
         5         8     1
         5        10     1
         5        13     1
         5        26     1
         6         9     1
         6        13     1
         6        27     1
         6        29     1
         7        10     1
         7        12     1
         7        28     1
         8        11     1
         8        29     1
         9        12     1
         9        26     1
        10        13     1
        10        27     1
        11        14     1
        11        26     1
        11        28     1
        11        30     1
        11        31     1
        12        15     1
        12        29     1
        12        32     1
        12        33     1
        13        16     1
        13        34     1
        13        35     1
        14        17     1
        15        18     1
        15        25     1
        15        30     1
        15        31     1
        16        19     1
        16        23     1
        16        32     1
        16        33     1
        16        36     1
        16        43     1
        17        20     1
        17        21     1
        17        24     1
        17        34     1
        17        35     1
        18        22     1
        18        23     1
        18        37     1
        18        38     1
        18        39     1
        18        43     1
        19        24     1
        19        25     1
        20        22     1
        20        23     1
        20        36     1
        21        36     1
        21        37     1
        21        38     1
        21        39     1
        21        40     1
        21        41     1
        21        42     1
        21        43     1
        22        24     1
        22        25     1
        24        43     1
        25        36     1
        25        40     1
        25        41     1
        25        42     1
        26        27     1
        27        28     1
        28        29     1
        30        32     1
        30        33     1
        31        32     1
        31        33     1
        32        34     1
        32        35     1
        33        34     1
        33        35     1
