; ITP file created by ByteFF-ML, 2026-02-21 08:20:16.647022

[ atomtypes ]
;name           bonded.type        at.num        mass        charge   ptype           sigma         epsilon
 o0bf                                   8      0.0000       0.00000       A     3.04919e-01     6.10977e-01
 c1bf                                   6      0.0000       0.00000       A     3.31269e-01     4.10546e-01
 o2bf                                   8      0.0000       0.00000       A     3.04919e-01     6.10977e-01
 c3bf                                   6      0.0000       0.00000       A     3.31876e-01     4.15162e-01
 s4bf                                  16      0.0000       0.00000       A     3.53206e-01     1.18561e+00
 c5bf                                   6      0.0000       0.00000       A     3.31427e-01     4.12664e-01
 c6bf                                   6      0.0000       0.00000       A     3.31396e-01     4.12204e-01
 c7bf                                   6      0.0000       0.00000       A     3.31460e-01     4.13326e-01
 c8bf                                   6      0.0000       0.00000       A     3.31500e-01     4.11989e-01
 c9bf                                   6      0.0000       0.00000       A     3.31414e-01     4.12287e-01
 c10bf                                  6      0.0000       0.00000       A     3.31406e-01     4.14011e-01
 c11bf                                  6      0.0000       0.00000       A     3.31106e-01     4.10501e-01
 c12bf                                  6      0.0000       0.00000       A     3.39704e-01     4.54409e-01
 c13bf                                  6      0.0000       0.00000       A     3.39810e-01     4.50706e-01
 c14bf                                  6      0.0000       0.00000       A     3.39714e-01     4.51040e-01
 o15bf                                  8      0.0000       0.00000       A     3.15822e-01     3.05272e-01
 c16bf                                  6      0.0000       0.00000       A     3.31432e-01     4.12981e-01
 c17bf                                  6      0.0000       0.00000       A     3.31554e-01     4.12571e-01
 c18bf                                  6      0.0000       0.00000       A     3.31461e-01     4.12386e-01
 c19bf                                  6      0.0000       0.00000       A     3.39791e-01     4.50449e-01
 c20bf                                  6      0.0000       0.00000       A     3.31555e-01     4.13380e-01
 cl21bf                                17      0.0000       0.00000       A     3.46762e-01     1.10618e+00
 c22bf                                  6      0.0000       0.00000       A     3.31461e-01     4.12384e-01
 c23bf                                  6      0.0000       0.00000       A     3.39791e-01     4.50449e-01
 c24bf                                  6      0.0000       0.00000       A     3.31554e-01     4.12571e-01
 h25bf                                  1      0.0000       0.00000       A     2.62518e-01     6.71083e-02
 h26bf                                  1      0.0000       0.00000       A     2.62477e-01     6.74563e-02
 h27bf                                  1      0.0000       0.00000       A     2.62503e-01     6.70796e-02
 cl28bf                                17      0.0000       0.00000       A     3.46581e-01     1.10454e+00
 h29bf                                  1      0.0000       0.00000       A     2.59682e-01     8.75396e-02
 h30bf                                  1      0.0000       0.00000       A     2.59682e-01     8.75396e-02
 h31bf                                  1      0.0000       0.00000       A     2.60066e-01     8.68629e-02
 h32bf                                  1      0.0000       0.00000       A     2.60066e-01     8.68629e-02
 h33bf                                  1      0.0000       0.00000       A     2.42089e-01     8.76721e-02
 h34bf                                  1      0.0000       0.00000       A     2.42089e-01     8.76721e-02
 h35bf                                  1      0.0000       0.00000       A     2.62480e-01     6.69854e-02
 h36bf                                  1      0.0000       0.00000       A     2.60015e-01     8.71198e-02
 h37bf                                  1      0.0000       0.00000       A     2.60015e-01     8.71198e-02
 h38bf                                  1      0.0000       0.00000       A     2.60015e-01     8.71198e-02
 h39bf                                  1      0.0000       0.00000       A     2.60015e-01     8.71198e-02
 h40bf                                  1      0.0000       0.00000       A     2.60015e-01     8.71198e-02
 h41bf                                  1      0.0000       0.00000       A     2.60015e-01     8.71198e-02
 h42bf                                  1      0.0000       0.00000       A     2.62480e-01     6.69854e-02

[ moleculetype ]
;name             nrexcl
 61                    3

[ atoms ]
;       nr            type      resi   res      atom      cgnr      charge          mass ; qtot
         1            o0bf         1   UNL        o0         1    -0.72561       15.9990 ; qtot   -0.726
         2            c1bf         1   UNL        c1         2     0.70757       12.0110 ; qtot   -0.018
         3            o2bf         1   UNL        o2         3    -0.72561       15.9990 ; qtot   -0.744
         4            c3bf         1   UNL        c3         4    -0.09950       12.0110 ; qtot   -0.843
         5            s4bf         1   UNL        s4         5     0.06072       32.0670 ; qtot   -0.782
         6            c5bf         1   UNL        c5         6    -0.19564       12.0110 ; qtot   -0.978
         7            c6bf         1   UNL        c6         7    -0.08442       12.0110 ; qtot   -1.062
         8            c7bf         1   UNL        c7         8    -0.09285       12.0110 ; qtot   -1.155
         9            c8bf         1   UNL        c8         9    -0.11260       12.0110 ; qtot   -1.268
        10            c9bf         1   UNL        c9        10     0.15724       12.0110 ; qtot   -1.111
        11           c10bf         1   UNL       c10        11    -0.04834       12.0110 ; qtot   -1.159
        12           c11bf         1   UNL       c11        12    -0.11753       12.0110 ; qtot   -1.277
        13           c12bf         1   UNL       c12        13    -0.02061       12.0110 ; qtot   -1.297
        14           c13bf         1   UNL       c13        14    -0.08791       12.0110 ; qtot   -1.385
        15           c14bf         1   UNL       c14        15     0.16312       12.0110 ; qtot   -1.222
        16           o15bf         1   UNL       o15        16    -0.35197       15.9990 ; qtot   -1.574
        17           c16bf         1   UNL       c16        17     0.14773       12.0110 ; qtot   -1.426
        18           c17bf         1   UNL       c17        18    -0.16892       12.0110 ; qtot   -1.595
        19           c18bf         1   UNL       c18        19    -0.02666       12.0110 ; qtot   -1.622
        20           c19bf         1   UNL       c19        20    -0.04881       12.0110 ; qtot   -1.671
        21           c20bf         1   UNL       c20        21     0.09092       12.0110 ; qtot   -1.580
        22          cl21bf         1   UNL      cl21        22    -0.22555       35.4530 ; qtot   -1.805
        23           c22bf         1   UNL       c22        23    -0.02666       12.0110 ; qtot   -1.832
        24           c23bf         1   UNL       c23        24    -0.04881       12.0110 ; qtot   -1.881
        25           c24bf         1   UNL       c24        25    -0.16892       12.0110 ; qtot   -2.050
        26           h25bf         1   UNL       h25        26     0.12931        1.0080 ; qtot   -1.920
        27           h26bf         1   UNL       h26        27     0.12149        1.0080 ; qtot   -1.799
        28           h27bf         1   UNL       h27        28     0.13156        1.0080 ; qtot   -1.667
        29          cl28bf         1   UNL      cl28        29    -0.21069       35.4530 ; qtot   -1.878
        30           h29bf         1   UNL       h29        30     0.05706        1.0080 ; qtot   -1.821
        31           h30bf         1   UNL       h30        31     0.05706        1.0080 ; qtot   -1.764
        32           h31bf         1   UNL       h31        32     0.05628        1.0080 ; qtot   -1.708
        33           h32bf         1   UNL       h32        33     0.05628        1.0080 ; qtot   -1.651
        34           h33bf         1   UNL       h33        34     0.04441        1.0080 ; qtot   -1.607
        35           h34bf         1   UNL       h34        35     0.04441        1.0080 ; qtot   -1.562
        36           h35bf         1   UNL       h35        36     0.12602        1.0080 ; qtot   -1.436
        37           h36bf         1   UNL       h36        37     0.05173        1.0080 ; qtot   -1.385
        38           h37bf         1   UNL       h37        38     0.05173        1.0080 ; qtot   -1.333
        39           h38bf         1   UNL       h38        39     0.05173        1.0080 ; qtot   -1.281
        40           h39bf         1   UNL       h39        40     0.05173        1.0080 ; qtot   -1.230
        41           h40bf         1   UNL       h40        41     0.05173        1.0080 ; qtot   -1.178
        42           h41bf         1   UNL       h41        42     0.05173        1.0080 ; qtot   -1.126
        43           h42bf         1   UNL       h42        43     0.12605        1.0080 ; qtot   -1.000

[ bonds ]
;       ai        aj funct               r               k
         1         2     1        0.125984   487533.551758
         2         3     1        0.125984   487533.551758
         2         4     1        0.153865   116978.526416
         4         5     1        0.175842   130241.377393
         4        12     1        0.137366   364977.337598
         5         6     1        0.174382   158782.927686
         6         7     1        0.139912   305608.691260
         6        11     1        0.142888   233392.146436
         7         8     1        0.139048   326002.831104
         7        26     1        0.108544   321785.632861
         8         9     1        0.140547   293480.556201
         8        27     1        0.108568   322047.515918
         9        10     1        0.138948   316514.492578
         9        28     1        0.108445   324313.244873
        10        11     1        0.141845   253141.550879
        10        29     1        0.176188   140751.621655
        11        12     1        0.145498   210077.493384
        12        13     1        0.151286   194229.125000
        13        14     1        0.154237   174947.585938
        13        30     1        0.109188   301454.518604
        13        31     1        0.109188   301454.518604
        14        15     1        0.152497   192476.870703
        14        32     1        0.109500   298043.501367
        14        33     1        0.109500   298043.475830
        15        16     1        0.143236   188521.555518
        15        34     1        0.109678   290005.185449
        15        35     1        0.109678   290005.185449
        16        17     1        0.136766   267570.426270
        17        18     1        0.140055   290275.010547
        17        25     1        0.140055   290275.036084
        18        19     1        0.139982   300993.905762
        18        36     1        0.108463   321222.871582
        19        20     1        0.150871   204488.199023
        19        21     1        0.140338   274458.806152
        20        37     1        0.109363   302731.450684
        20        38     1        0.109363   302731.450684
        20        39     1        0.109363   302731.450684
        21        22     1        0.176898   133058.886670
        21        23     1        0.140338   274458.806152
        23        24     1        0.150871   204488.199023
        23        25     1        0.139982   300993.854687
        24        40     1        0.109363   302731.450684
        24        41     1        0.109363   302731.450684
        24        42     1        0.109363   302731.450684
        25        43     1        0.108463   321222.871582

[ angles ]
;       ai        aj        ak funct           theta             cth
         1         2         3     1      130.098618      692.395946
         1         2         4     1      114.957314      332.976709
         2         4         5     1      113.715515      562.478456
         2         4        12     1      132.333954      363.577253
         3         2         4     1      114.957314      332.976709
         4         5         6     1       91.286636      494.235926
         4        12        11     1      111.559189      386.149759
         4        12        13     1      121.718277      398.744789
         5         4        12     1      113.454994      167.360000
         5         6         7     1      125.107193      396.122894
         5         6        11     1      112.141113      167.360000
         6         7         8     1      118.522659      711.667143
         6         7        26     1      120.660110      426.118272
         6        11        10     1      115.670639      650.857029
         6        11        12     1      111.884415      400.298882
         7         6        11     1      123.117477      648.084465
         7         8         9     1      120.572678      658.393668
         7         8        27     1      119.980713      432.324045
         8         7        26     1      120.854385      442.042703
         8         9        10     1      120.809982      599.931117
         8         9        28     1      120.162109      437.225127
         9         8        27     1      119.263046      443.304906
         9        10        11     1      121.582298      638.776188
         9        10        29     1      115.930580      399.559168
        10         9        28     1      119.034164      409.541145
        10        11        12     1      132.827744      380.526360
        11        10        29     1      122.313004      342.464703
        11        12        13     1      126.289795      441.746600
        12        13        14     1      112.444397      561.041419
        12        13        30     1      109.124008      482.474299
        12        13        31     1      109.124008      482.474299
        13        14        15     1      112.449730      590.297306
        13        14        32     1      109.495789      481.521190
        13        14        33     1      109.495789      481.521190
        14        13        30     1      109.027359      480.549727
        14        13        31     1      109.027359      480.549727
        14        15        16     1      109.534706      622.121652
        14        15        34     1      110.731422      493.841824
        14        15        35     1      110.731422      493.841824
        15        14        32     1      108.814285      510.860584
        15        14        33     1      108.814285      510.860584
        15        16        17     1      118.844559      525.993364
        16        15        34     1      108.915588      459.732418
        16        15        35     1      108.915588      459.732418
        16        17        18     1      120.182823      539.222640
        16        17        25     1      120.182823      539.222640
        17        18        19     1      121.024536      726.137171
        17        18        36     1      119.719345      439.110787
        17        25        23     1      121.024536      726.137107
        17        25        43     1      119.719345      439.110787
        18        17        25     1      119.664146      578.709076
        18        19        20     1      120.321632      419.261047
        18        19        21     1      117.928101      622.323842
        19        18        36     1      119.245934      407.396315
        19        20        37     1      111.015518      475.802219
        19        20        38     1      111.015518      475.802219
        19        20        39     1      111.015518      475.802219
        19        21        22     1      118.560402      387.794126
        19        21        23     1      122.675980      600.905996
        20        19        21     1      121.863098      370.480189
        21        23        24     1      121.863098      370.480189
        21        23        25     1      117.928101      622.323778
        22        21        23     1      118.560402      387.794126
        23        24        40     1      111.015518      475.802219
        23        24        41     1      111.015518      475.802219
        23        24        42     1      111.015518      475.802219
        23        25        43     1      119.245934      407.396347
        24        23        25     1      120.321640      419.261047
        30        13        31     1      107.008316      353.277370
        32        14        33     1      107.034164      359.483782
        34        15        35     1      107.963120      344.594147
        37        20        38     1      107.895142      356.831338
        37        20        39     1      107.895142      356.831338
        38        20        39     1      107.895142      356.831338
        40        24        41     1      107.895142      356.831306
        40        24        42     1      107.895142      356.831306
        41        24        42     1      107.895142      356.831306

[ dihedrals ] ; propers for gromacs 4.5 or higher, use funct 9
;       ai        aj        ak        al funct           phase               k        pn
         1         2         4         5     9        0.000000       -0.225196         1
         1         2         4         5     9      180.000000        4.494542         2
         1         2         4         5     9        0.000000        0.229109         3
         1         2         4         5     9      180.000000        0.329621         4
         1         2         4        12     9        0.000000       -0.741978         1
         1         2         4        12     9      180.000000        2.040984         2
         1         2         4        12     9        0.000000       -0.192958         3
         1         2         4        12     9      180.000000        0.143204         4
         2         4         5         6     9        0.000000       -0.497327         1
         2         4         5         6     9      180.000000        9.624117         2
         2         4         5         6     9        0.000000       -0.704688         3
         2         4         5         6     9      180.000000        0.112122         4
         2         4        12        11     9        0.000000       -0.605236         1
         2         4        12        11     9      180.000000       18.875439         2
         2         4        12        11     9        0.000000       -0.843055         3
         2         4        12        11     9      180.000000       -1.335177         4
         2         4        12        13     9        0.000000       -0.305075         1
         2         4        12        13     9      180.000000       17.218697         2
         2         4        12        13     9        0.000000        0.301236         3
         2         4        12        13     9      180.000000       -1.060938         4
         3         2         4         5     9        0.000000       -0.225196         1
         3         2         4         5     9      180.000000        4.494542         2
         3         2         4         5     9        0.000000        0.229109         3
         3         2         4         5     9      180.000000        0.329621         4
         3         2         4        12     9        0.000000       -0.741978         1
         3         2         4        12     9      180.000000        2.040984         2
         3         2         4        12     9        0.000000       -0.192958         3
         3         2         4        12     9      180.000000        0.143204         4
         4         5         6         7     9        0.000000        0.432907         1
         4         5         6         7     9      180.000000        5.807471         2
         4         5         6         7     9        0.000000       -0.437903         3
         4         5         6         7     9      180.000000        0.321385         4
         4         5         6        11     9        0.000000       -0.118962         1
         4         5         6        11     9      180.000000       22.376343         2
         4         5         6        11     9        0.000000       -4.673797         3
         4         5         6        11     9      180.000000       -1.074295         4
         4        12        11         6     9        0.000000       -0.185106         1
         4        12        11         6     9      180.000000       16.741758         2
         4        12        11         6     9        0.000000       -5.854414         3
         4        12        11         6     9      180.000000       -0.368987         4
         4        12        11        10     9        0.000000       -0.203430         1
         4        12        11        10     9      180.000000        3.999011         2
         4        12        11        10     9        0.000000        0.062418         3
         4        12        11        10     9      180.000000        0.168264         4
         4        12        13        14     9        0.000000       -3.729056         1
         4        12        13        14     9      180.000000       -0.623425         2
         4        12        13        14     9        0.000000       -0.134225         3
         4        12        13        14     9      180.000000        0.062949         4
         4        12        13        30     9        0.000000       -0.030489         1
         4        12        13        30     9      180.000000        0.081107         2
         4        12        13        30     9        0.000000       -0.782131         3
         4        12        13        30     9      180.000000        0.195476         4
         4        12        13        31     9        0.000000       -0.030489         1
         4        12        13        31     9      180.000000        0.081107         2
         4        12        13        31     9        0.000000       -0.782131         3
         4        12        13        31     9      180.000000        0.195476         4
         5         4        12        11     9        0.000000       -0.569588         1
         5         4        12        11     9      180.000000       30.487440         2
         5         4        12        11     9        0.000000       -4.341216         3
         5         4        12        11     9      180.000000       -1.058917         4
         5         4        12        13     9        0.000000       -0.028760         1
         5         4        12        13     9      180.000000       22.869627         2
         5         4        12        13     9        0.000000        0.003860         3
         5         4        12        13     9      180.000000       -1.649106         4
         5         6         7         8     9        0.000000        0.057534         1
         5         6         7         8     9      180.000000       14.859703         2
         5         6         7         8     9        0.000000       -0.281054         3
         5         6         7         8     9      180.000000       -0.349541         4
         5         6         7        26     9        0.000000        0.283011         1
         5         6         7        26     9      180.000000       11.367626         2
         5         6         7        26     9        0.000000       -0.173335         3
         5         6         7        26     9      180.000000       -0.062345         4
         5         6        11        10     9        0.000000        0.277552         1
         5         6        11        10     9      180.000000       12.284035         2
         5         6        11        10     9        0.000000       -0.582128         3
         5         6        11        10     9      180.000000       -0.404982         4
         5         6        11        12     9        0.000000       -0.299879         1
         5         6        11        12     9      180.000000       16.217698         2
         5         6        11        12     9        0.000000       -3.107768         3
         5         6        11        12     9      180.000000       -0.678765         4
         6         5         4        12     9        0.000000       -0.720969         1
         6         5         4        12     9      180.000000       22.909427         2
         6         5         4        12     9        0.000000       -4.985281         3
         6         5         4        12     9      180.000000       -0.673412         4
         6         7         8         9     9        0.000000       -0.241776         1
         6         7         8         9     9      180.000000       20.761814         2
         6         7         8         9     9        0.000000       -1.717938         3
         6         7         8         9     9      180.000000       -0.549627         4
         6         7         8        27     9        0.000000       -0.029244         1
         6         7         8        27     9      180.000000       15.935262         2
         6         7         8        27     9        0.000000       -0.645517         3
         6         7         8        27     9      180.000000       -0.043108         4
         6        11        10         9     9        0.000000        0.175415         1
         6        11        10         9     9      180.000000       13.597518         2
         6        11        10         9     9        0.000000       -0.995498         3
         6        11        10         9     9      180.000000       -0.251082         4
         6        11        10        29     9        0.000000        0.267584         1
         6        11        10        29     9      180.000000       12.938419         2
         6        11        10        29     9        0.000000        0.187765         3
         6        11        10        29     9      180.000000       -0.600328         4
         6        11        12        13     9        0.000000        0.577124         1
         6        11        12        13     9      180.000000        9.420912         2
         6        11        12        13     9        0.000000        0.354914         3
         6        11        12        13     9      180.000000       -0.408946         4
         7         6        11        10     9        0.000000        0.141492         1
         7         6        11        10     9      180.000000       12.324068         2
         7         6        11        10     9        0.000000       -0.835327         3
         7         6        11        10     9      180.000000       -0.242375         4
         7         6        11        12     9        0.000000        0.007934         1
         7         6        11        12     9      180.000000       12.328306         2
         7         6        11        12     9        0.000000       -1.350809         3
         7         6        11        12     9      180.000000       -0.172588         4
         7         8         9        10     9        0.000000       -0.065510         1
         7         8         9        10     9      180.000000       17.085320         2
         7         8         9        10     9        0.000000       -1.481034         3
         7         8         9        10     9      180.000000       -0.299914         4
         7         8         9        28     9        0.000000        0.070280         1
         7         8         9        28     9      180.000000       13.728461         2
         7         8         9        28     9        0.000000       -0.709102         3
         7         8         9        28     9      180.000000        0.167551         4
         8         7         6        11     9        0.000000        0.067774         1
         8         7         6        11     9      180.000000       18.230667         2
         8         7         6        11     9        0.000000       -1.370418         3
         8         7         6        11     9      180.000000       -0.466328         4
         8         9        10        11     9        0.000000        0.049233         1
         8         9        10        11     9      180.000000       20.055024         2
         8         9        10        11     9        0.000000       -1.312276         3
         8         9        10        11     9      180.000000       -0.577694         4
         8         9        10        29     9        0.000000        0.357909         1
         8         9        10        29     9      180.000000       21.666699         2
         8         9        10        29     9        0.000000        0.380410         3
         8         9        10        29     9      180.000000       -0.832837         4
         9         8         7        26     9        0.000000        0.062865         1
         9         8         7        26     9      180.000000       15.174438         2
         9         8         7        26     9        0.000000       -0.549490         3
         9         8         7        26     9      180.000000        0.102037         4
         9        10        11        12     9        0.000000       -0.154584         1
         9        10        11        12     9      180.000000       10.025826         2
         9        10        11        12     9        0.000000       -0.384676         3
         9        10        11        12     9      180.000000       -0.534066         4
        10         9         8        27     9        0.000000        0.018927         1
        10         9         8        27     9      180.000000       13.148083         2
        10         9         8        27     9        0.000000       -0.690389         3
        10         9         8        27     9      180.000000        0.135542         4
        10        11        12        13     9        0.000000        0.112649         1
        10        11        12        13     9      180.000000        5.303233         2
        10        11        12        13     9        0.000000        0.806038         3
        10        11        12        13     9      180.000000       -0.411226         4
        11         6         7        26     9        0.000000        0.248719         1
        11         6         7        26     9      180.000000       12.254497         2
        11         6         7        26     9        0.000000       -0.177567         3
        11         6         7        26     9      180.000000       -0.022912         4
        11        10         9        28     9        0.000000       -0.026944         1
        11        10         9        28     9      180.000000       14.928310         2
        11        10         9        28     9        0.000000       -0.552624         3
        11        10         9        28     9      180.000000       -0.021433         4
        11        12        13        14     9        0.000000        0.805347         1
        11        12        13        14     9      180.000000       -3.036672         2
        11        12        13        14     9        0.000000        0.873920         3
        11        12        13        14     9      180.000000        0.090325         4
        11        12        13        30     9        0.000000       -0.291959         1
        11        12        13        30     9      180.000000        0.006144         2
        11        12        13        30     9        0.000000        0.350860         3
        11        12        13        30     9      180.000000        0.209310         4
        11        12        13        31     9        0.000000       -0.291959         1
        11        12        13        31     9      180.000000        0.006144         2
        11        12        13        31     9        0.000000        0.350860         3
        11        12        13        31     9      180.000000        0.209310         4
        12        11        10        29     9        0.000000       -0.130704         1
        12        11        10        29     9      180.000000       10.662366         2
        12        11        10        29     9        0.000000        0.385368         3
        12        11        10        29     9      180.000000       -0.789046         4
        12        13        14        15     9        0.000000       -1.228983         1
        12        13        14        15     9      180.000000        0.190864         2
        12        13        14        15     9        0.000000        0.364448         3
        12        13        14        15     9      180.000000       -0.015868         4
        12        13        14        32     9        0.000000        0.029874         1
        12        13        14        32     9      180.000000        0.026576         2
        12        13        14        32     9        0.000000        0.544697         3
        12        13        14        32     9      180.000000       -0.005201         4
        12        13        14        33     9        0.000000        0.029874         1
        12        13        14        33     9      180.000000        0.026576         2
        12        13        14        33     9        0.000000        0.544697         3
        12        13        14        33     9      180.000000       -0.005201         4
        13        14        15        16     9        0.000000       -1.014950         1
        13        14        15        16     9      180.000000       -0.134457         2
        13        14        15        16     9        0.000000        0.485557         3
        13        14        15        16     9      180.000000       -0.013810         4
        13        14        15        34     9        0.000000       -0.038239         1
        13        14        15        34     9      180.000000        0.023876         2
        13        14        15        34     9        0.000000        0.640510         3
        13        14        15        34     9      180.000000        0.049430         4
        13        14        15        35     9        0.000000       -0.038239         1
        13        14        15        35     9      180.000000        0.023876         2
        13        14        15        35     9        0.000000        0.640510         3
        13        14        15        35     9      180.000000        0.049430         4
        14        15        16        17     9        0.000000        0.350435         1
        14        15        16        17     9      180.000000        0.158108         2
        14        15        16        17     9        0.000000        0.689242         3
        14        15        16        17     9      180.000000        0.025863         4
        15        14        13        30     9        0.000000       -0.137656         1
        15        14        13        30     9      180.000000        0.057208         2
        15        14        13        30     9        0.000000        0.475330         3
        15        14        13        30     9      180.000000        0.034838         4
        15        14        13        31     9        0.000000       -0.137656         1
        15        14        13        31     9      180.000000        0.057208         2
        15        14        13        31     9        0.000000        0.475330         3
        15        14        13        31     9      180.000000        0.034838         4
        15        16        17        18     9        0.000000       -0.137734         1
        15        16        17        18     9      180.000000        5.126576         2
        15        16        17        18     9        0.000000        0.103179         3
        15        16        17        18     9      180.000000        0.346239         4
        15        16        17        25     9        0.000000       -0.137734         1
        15        16        17        25     9      180.000000        5.126576         2
        15        16        17        25     9        0.000000        0.103180         3
        15        16        17        25     9      180.000000        0.346240         4
        16        15        14        32     9        0.000000        0.059742         1
        16        15        14        32     9      180.000000        0.170310         2
        16        15        14        32     9        0.000000        0.482384         3
        16        15        14        32     9      180.000000        0.072412         4
        16        15        14        33     9        0.000000        0.059742         1
        16        15        14        33     9      180.000000        0.170310         2
        16        15        14        33     9        0.000000        0.482384         3
        16        15        14        33     9      180.000000        0.072412         4
        16        17        18        19     9        0.000000        0.301612         1
        16        17        18        19     9      180.000000       16.852349         2
        16        17        18        19     9        0.000000        0.363219         3
        16        17        18        19     9      180.000000       -0.324670         4
        16        17        18        36     9        0.000000        0.077569         1
        16        17        18        36     9      180.000000       12.867848         2
        16        17        18        36     9        0.000000       -0.083698         3
        16        17        18        36     9      180.000000        0.318108         4
        16        17        25        23     9        0.000000        0.301612         1
        16        17        25        23     9      180.000000       16.852349         2
        16        17        25        23     9        0.000000        0.363218         3
        16        17        25        23     9      180.000000       -0.324670         4
        16        17        25        43     9        0.000000        0.077569         1
        16        17        25        43     9      180.000000       12.867847         2
        16        17        25        43     9        0.000000       -0.083698         3
        16        17        25        43     9      180.000000        0.318108         4
        17        16        15        34     9        0.000000       -0.180129         1
        17        16        15        34     9      180.000000        0.036843         2
        17        16        15        34     9        0.000000        0.827393         3
        17        16        15        34     9      180.000000       -0.048875         4
        17        16        15        35     9        0.000000       -0.180129         1
        17        16        15        35     9      180.000000        0.036843         2
        17        16        15        35     9        0.000000        0.827393         3
        17        16        15        35     9      180.000000       -0.048875         4
        17        18        19        20     9        0.000000        0.079422         1
        17        18        19        20     9      180.000000       16.350832         2
        17        18        19        20     9        0.000000       -0.049451         3
        17        18        19        20     9      180.000000       -0.286105         4
        17        18        19        21     9        0.000000       -0.118684         1
        17        18        19        21     9      180.000000       18.963111         2
        17        18        19        21     9        0.000000       -1.419004         3
        17        18        19        21     9      180.000000       -0.550490         4
        17        25        23        21     9        0.000000       -0.118683         1
        17        25        23        21     9      180.000000       18.963111         2
        17        25        23        21     9        0.000000       -1.419004         3
        17        25        23        21     9      180.000000       -0.550491         4
        17        25        23        24     9        0.000000        0.079422         1
        17        25        23        24     9      180.000000       16.350832         2
        17        25        23        24     9        0.000000       -0.049451         3
        17        25        23        24     9      180.000000       -0.286105         4
        18        17        25        23     9        0.000000       -0.103052         1
        18        17        25        23     9      180.000000       15.653163         2
        18        17        25        23     9        0.000000       -1.003742         3
        18        17        25        23     9      180.000000       -0.230044         4
        18        17        25        43     9        0.000000        0.054560         1
        18        17        25        43     9      180.000000       12.313194         2
        18        17        25        43     9        0.000000       -0.472029         3
        18        17        25        43     9      180.000000        0.201015         4
        18        19        20        37     9        0.000000       -0.020053         1
        18        19        20        37     9      180.000000        0.002010         2
        18        19        20        37     9        0.000000       -0.133025         3
        18        19        20        37     9      180.000000        0.002394         4
        18        19        20        38     9        0.000000       -0.020053         1
        18        19        20        38     9      180.000000        0.002010         2
        18        19        20        38     9        0.000000       -0.133025         3
        18        19        20        38     9      180.000000        0.002394         4
        18        19        20        39     9        0.000000       -0.020053         1
        18        19        20        39     9      180.000000        0.002010         2
        18        19        20        39     9        0.000000       -0.133025         3
        18        19        20        39     9      180.000000        0.002394         4
        18        19        21        22     9        0.000000        0.212531         1
        18        19        21        22     9      180.000000       18.642595         2
        18        19        21        22     9        0.000000        0.197826         3
        18        19        21        22     9      180.000000       -0.606702         4
        18        19        21        23     9        0.000000       -0.076352         1
        18        19        21        23     9      180.000000       17.006314         2
        18        19        21        23     9        0.000000       -1.141110         3
        18        19        21        23     9      180.000000       -0.339527         4
        19        18        17        25     9        0.000000       -0.103051         1
        19        18        17        25     9      180.000000       15.653161         2
        19        18        17        25     9        0.000000       -1.003742         3
        19        18        17        25     9      180.000000       -0.230044         4
        19        21        23        24     9        0.000000        0.210009         1
        19        21        23        24     9      180.000000       13.888542         2
        19        21        23        24     9        0.000000       -0.204866         3
        19        21        23        24     9      180.000000       -0.185054         4
        19        21        23        25     9        0.000000       -0.076353         1
        19        21        23        25     9      180.000000       17.006314         2
        19        21        23        25     9        0.000000       -1.141110         3
        19        21        23        25     9      180.000000       -0.339527         4
        20        19        18        36     9        0.000000       -0.123001         1
        20        19        18        36     9      180.000000       13.141090         2
        20        19        18        36     9        0.000000       -0.476172         3
        20        19        18        36     9      180.000000        0.276766         4
        20        19        21        22     9        0.000000       -0.154583         1
        20        19        21        22     9      180.000000       16.420763         2
        20        19        21        22     9        0.000000       -0.142787         3
        20        19        21        22     9      180.000000       -0.451462         4
        20        19        21        23     9        0.000000        0.210009         1
        20        19        21        23     9      180.000000       13.888542         2
        20        19        21        23     9        0.000000       -0.204866         3
        20        19        21        23     9      180.000000       -0.185053         4
        21        19        18        36     9        0.000000        0.145215         1
        21        19        18        36     9      180.000000       13.905366         2
        21        19        18        36     9        0.000000       -0.387717         3
        21        19        18        36     9      180.000000        0.192985         4
        21        19        20        37     9        0.000000       -0.013438         1
        21        19        20        37     9      180.000000       -0.011171         2
        21        19        20        37     9        0.000000        0.211639         3
        21        19        20        37     9      180.000000        0.022789         4
        21        19        20        38     9        0.000000       -0.013438         1
        21        19        20        38     9      180.000000       -0.011171         2
        21        19        20        38     9        0.000000        0.211639         3
        21        19        20        38     9      180.000000        0.022789         4
        21        19        20        39     9        0.000000       -0.013438         1
        21        19        20        39     9      180.000000       -0.011171         2
        21        19        20        39     9        0.000000        0.211639         3
        21        19        20        39     9      180.000000        0.022789         4
        21        23        24        40     9        0.000000       -0.013439         1
        21        23        24        40     9      180.000000       -0.011172         2
        21        23        24        40     9        0.000000        0.211639         3
        21        23        24        40     9      180.000000        0.022789         4
        21        23        24        41     9        0.000000       -0.013439         1
        21        23        24        41     9      180.000000       -0.011172         2
        21        23        24        41     9        0.000000        0.211639         3
        21        23        24        41     9      180.000000        0.022789         4
        21        23        24        42     9        0.000000       -0.013439         1
        21        23        24        42     9      180.000000       -0.011172         2
        21        23        24        42     9        0.000000        0.211639         3
        21        23        24        42     9      180.000000        0.022789         4
        21        23        25        43     9        0.000000        0.145216         1
        21        23        25        43     9      180.000000       13.905365         2
        21        23        25        43     9        0.000000       -0.387717         3
        21        23        25        43     9      180.000000        0.192986         4
        22        21        23        24     9        0.000000       -0.154581         1
        22        21        23        24     9      180.000000       16.420763         2
        22        21        23        24     9        0.000000       -0.142787         3
        22        21        23        24     9      180.000000       -0.451462         4
        22        21        23        25     9        0.000000        0.212531         1
        22        21        23        25     9      180.000000       18.642597         2
        22        21        23        25     9        0.000000        0.197826         3
        22        21        23        25     9      180.000000       -0.606702         4
        24        23        25        43     9        0.000000       -0.123001         1
        24        23        25        43     9      180.000000       13.141091         2
        24        23        25        43     9        0.000000       -0.476172         3
        24        23        25        43     9      180.000000        0.276767         4
        25        17        18        36     9        0.000000        0.054561         1
        25        17        18        36     9      180.000000       12.313196         2
        25        17        18        36     9        0.000000       -0.472030         3
        25        17        18        36     9      180.000000        0.201016         4
        25        23        24        40     9        0.000000       -0.020053         1
        25        23        24        40     9      180.000000        0.002011         2
        25        23        24        40     9        0.000000       -0.133025         3
        25        23        24        40     9      180.000000        0.002394         4
        25        23        24        41     9        0.000000       -0.020053         1
        25        23        24        41     9      180.000000        0.002011         2
        25        23        24        41     9        0.000000       -0.133025         3
        25        23        24        41     9      180.000000        0.002394         4
        25        23        24        42     9        0.000000       -0.020053         1
        25        23        24        42     9      180.000000        0.002011         2
        25        23        24        42     9        0.000000       -0.133025         3
        25        23        24        42     9      180.000000        0.002394         4
        26         7         8        27     9        0.000000       -0.151297         1
        26         7         8        27     9      180.000000       12.110850         2
        26         7         8        27     9        0.000000       -0.718347         3
        26         7         8        27     9      180.000000        0.286156         4
        27         8         9        28     9        0.000000       -0.213136         1
        27         8         9        28     9      180.000000       11.054785         2
        27         8         9        28     9        0.000000       -0.614797         3
        27         8         9        28     9      180.000000        0.188536         4
        28         9        10        29     9        0.000000       -0.024658         1
        28         9        10        29     9      180.000000       15.201643         2
        28         9        10        29     9        0.000000       -0.050421         3
        28         9        10        29     9      180.000000        0.109521         4
        30        13        14        32     9        0.000000       -0.008884         1
        30        13        14        32     9      180.000000        0.065775         2
        30        13        14        32     9        0.000000        0.608125         3
        30        13        14        32     9      180.000000        0.013349         4
        30        13        14        33     9        0.000000       -0.008884         1
        30        13        14        33     9      180.000000        0.065775         2
        30        13        14        33     9        0.000000        0.608125         3
        30        13        14        33     9      180.000000        0.013349         4
        31        13        14        32     9        0.000000       -0.008884         1
        31        13        14        32     9      180.000000        0.065775         2
        31        13        14        32     9        0.000000        0.608125         3
        31        13        14        32     9      180.000000        0.013349         4
        31        13        14        33     9        0.000000       -0.008884         1
        31        13        14        33     9      180.000000        0.065775         2
        31        13        14        33     9        0.000000        0.608125         3
        31        13        14        33     9      180.000000        0.013349         4
        32        14        15        34     9        0.000000       -0.002337         1
        32        14        15        34     9      180.000000       -0.021077         2
        32        14        15        34     9        0.000000        0.671160         3
        32        14        15        34     9      180.000000       -0.051557         4
        32        14        15        35     9        0.000000       -0.002337         1
        32        14        15        35     9      180.000000       -0.021077         2
        32        14        15        35     9        0.000000        0.671160         3
        32        14        15        35     9      180.000000       -0.051557         4
        33        14        15        34     9        0.000000       -0.002337         1
        33        14        15        34     9      180.000000       -0.021077         2
        33        14        15        34     9        0.000000        0.671160         3
        33        14        15        34     9      180.000000       -0.051557         4
        33        14        15        35     9        0.000000       -0.002337         1
        33        14        15        35     9      180.000000       -0.021077         2
        33        14        15        35     9        0.000000        0.671160         3
        33        14        15        35     9      180.000000       -0.051557         4

[ dihedrals ] ; impropers
;       ai        aj        ak        al funct           phase               k        pn
         2         1         3         4     4      180.000000       27.893333         2
         2         3         4         1     4      180.000000       27.893333         2
         2         4         1         3     4      180.000000       27.893333         2

[ pairs ]
;       ai        aj funct
         1         5     1
         1        12     1
         2         6     1
         2        11     1
         2        13     1
         3         5     1
         3        12     1
         4         7     1
         4        10     1
         4        14     1
         4        30     1
         4        31     1
         5         8     1
         5        10     1
         5        13     1
         5        26     1
         6         9     1
         6        13     1
         6        27     1
         6        29     1
         7        10     1
         7        12     1
         7        28     1
         8        11     1
         8        29     1
         9        12     1
         9        26     1
        10        13     1
        10        27     1
        11        14     1
        11        26     1
        11        28     1
        11        30     1
        11        31     1
        12        15     1
        12        29     1
        12        32     1
        12        33     1
        13        16     1
        13        34     1
        13        35     1
        14        17     1
        15        18     1
        15        25     1
        15        30     1
        15        31     1
        16        19     1
        16        23     1
        16        32     1
        16        33     1
        16        36     1
        16        43     1
        17        20     1
        17        21     1
        17        24     1
        17        34     1
        17        35     1
        18        22     1
        18        23     1
        18        37     1
        18        38     1
        18        39     1
        18        43     1
        19        24     1
        19        25     1
        20        22     1
        20        23     1
        20        36     1
        21        36     1
        21        37     1
        21        38     1
        21        39     1
        21        40     1
        21        41     1
        21        42     1
        21        43     1
        22        24     1
        22        25     1
        24        43     1
        25        36     1
        25        40     1
        25        41     1
        25        42     1
        26        27     1
        27        28     1
        28        29     1
        30        32     1
        30        33     1
        31        32     1
        31        33     1
        32        34     1
        32        35     1
        33        34     1
        33        35     1
