; ITP file created by ByteFF-ML, 2026-02-21 08:18:31.043925

[ atomtypes ]
;name           bonded.type        at.num        mass        charge   ptype           sigma         epsilon
 o0bf                                   8      0.0000       0.00000       A     3.04919e-01     6.10977e-01
 c1bf                                   6      0.0000       0.00000       A     3.31269e-01     4.10546e-01
 o2bf                                   8      0.0000       0.00000       A     3.04919e-01     6.10977e-01
 c3bf                                   6      0.0000       0.00000       A     3.31876e-01     4.15162e-01
 s4bf                                  16      0.0000       0.00000       A     3.53206e-01     1.18561e+00
 c5bf                                   6      0.0000       0.00000       A     3.31427e-01     4.12664e-01
 c6bf                                   6      0.0000       0.00000       A     3.31396e-01     4.12204e-01
 c7bf                                   6      0.0000       0.00000       A     3.31460e-01     4.13326e-01
 c8bf                                   6      0.0000       0.00000       A     3.31500e-01     4.11989e-01
 c9bf                                   6      0.0000       0.00000       A     3.31414e-01     4.12287e-01
 c10bf                                  6      0.0000       0.00000       A     3.31406e-01     4.14011e-01
 c11bf                                  6      0.0000       0.00000       A     3.31106e-01     4.10501e-01
 c12bf                                  6      0.0000       0.00000       A     3.39704e-01     4.54409e-01
 c13bf                                  6      0.0000       0.00000       A     3.39805e-01     4.50669e-01
 c14bf                                  6      0.0000       0.00000       A     3.39754e-01     4.50898e-01
 o15bf                                  8      0.0000       0.00000       A     3.15651e-01     3.02535e-01
 c16bf                                  6      0.0000       0.00000       A     3.31537e-01     4.12716e-01
 c17bf                                  6      0.0000       0.00000       A     3.31524e-01     4.13117e-01
 c18bf                                  6      0.0000       0.00000       A     3.31486e-01     4.13091e-01
 c19bf                                  6      0.0000       0.00000       A     3.31594e-01     4.13024e-01
 h20bf                                  1      0.0000       0.00000       A     2.62518e-01     6.71083e-02
 h21bf                                  1      0.0000       0.00000       A     2.62477e-01     6.74563e-02
 h22bf                                  1      0.0000       0.00000       A     2.62503e-01     6.70796e-02
 cl23bf                                17      0.0000       0.00000       A     3.46581e-01     1.10454e+00
 h24bf                                  1      0.0000       0.00000       A     2.59682e-01     8.75396e-02
 h25bf                                  1      0.0000       0.00000       A     2.59682e-01     8.75396e-02
 h26bf                                  1      0.0000       0.00000       A     2.60066e-01     8.68629e-02
 h27bf                                  1      0.0000       0.00000       A     2.60066e-01     8.68629e-02
 h28bf                                  1      0.0000       0.00000       A     2.42108e-01     8.76817e-02
 h29bf                                  1      0.0000       0.00000       A     2.42108e-01     8.76817e-02
 h30bf                                  1      0.0000       0.00000       A     2.62519e-01     6.71818e-02
 c31bf                                  6      0.0000       0.00000       A     3.31438e-01     4.12965e-01
 c32bf                                  6      0.0000       0.00000       A     3.31417e-01     4.12957e-01
 c33bf                                  6      0.0000       0.00000       A     3.31506e-01     4.12777e-01
 c34bf                                  6      0.0000       0.00000       A     3.31499e-01     4.12734e-01
 c35bf                                  6      0.0000       0.00000       A     3.31524e-01     4.13114e-01
 c36bf                                  6      0.0000       0.00000       A     3.31510e-01     4.13502e-01
 h37bf                                  1      0.0000       0.00000       A     2.62478e-01     6.75951e-02
 h38bf                                  1      0.0000       0.00000       A     2.62489e-01     6.75504e-02
 h39bf                                  1      0.0000       0.00000       A     2.62489e-01     6.75504e-02
 h40bf                                  1      0.0000       0.00000       A     2.62512e-01     6.75552e-02
 h41bf                                  1      0.0000       0.00000       A     2.62574e-01     6.75281e-02
 h42bf                                  1      0.0000       0.00000       A     2.62512e-01     6.75552e-02

[ moleculetype ]
;name             nrexcl
 62_flip               3

[ atoms ]
;       nr            type      resi   res      atom      cgnr      charge          mass ; qtot
         1            o0bf         1   UNL        o0         1    -0.72561       15.9990 ; qtot   -0.726
         2            c1bf         1   UNL        c1         2     0.70757       12.0110 ; qtot   -0.018
         3            o2bf         1   UNL        o2         3    -0.72561       15.9990 ; qtot   -0.744
         4            c3bf         1   UNL        c3         4    -0.09950       12.0110 ; qtot   -0.843
         5            s4bf         1   UNL        s4         5     0.06072       32.0670 ; qtot   -0.782
         6            c5bf         1   UNL        c5         6    -0.19564       12.0110 ; qtot   -0.978
         7            c6bf         1   UNL        c6         7    -0.08442       12.0110 ; qtot   -1.062
         8            c7bf         1   UNL        c7         8    -0.09285       12.0110 ; qtot   -1.155
         9            c8bf         1   UNL        c8         9    -0.11260       12.0110 ; qtot   -1.268
        10            c9bf         1   UNL        c9        10     0.15724       12.0110 ; qtot   -1.111
        11           c10bf         1   UNL       c10        11    -0.04834       12.0110 ; qtot   -1.159
        12           c11bf         1   UNL       c11        12    -0.11753       12.0110 ; qtot   -1.277
        13           c12bf         1   UNL       c12        13    -0.02064       12.0110 ; qtot   -1.297
        14           c13bf         1   UNL       c13        14    -0.08786       12.0110 ; qtot   -1.385
        15           c14bf         1   UNL       c14        15     0.16323       12.0110 ; qtot   -1.222
        16           o15bf         1   UNL       o15        16    -0.35661       15.9990 ; qtot   -1.578
        17           c16bf         1   UNL       c16        17     0.15056       12.0110 ; qtot   -1.428
        18           c17bf         1   UNL       c17        18    -0.12634       12.0110 ; qtot   -1.554
        19           c18bf         1   UNL       c18        19    -0.07425       12.0110 ; qtot   -1.628
        20           c19bf         1   UNL       c19        20    -0.20031       12.0110 ; qtot   -1.829
        21           h20bf         1   UNL       h20        21     0.12931        1.0080 ; qtot   -1.699
        22           h21bf         1   UNL       h21        22     0.12149        1.0080 ; qtot   -1.578
        23           h22bf         1   UNL       h22        23     0.13156        1.0080 ; qtot   -1.446
        24          cl23bf         1   UNL      cl23        24    -0.21069       35.4530 ; qtot   -1.657
        25           h24bf         1   UNL       h24        25     0.05706        1.0080 ; qtot   -1.600
        26           h25bf         1   UNL       h25        26     0.05706        1.0080 ; qtot   -1.543
        27           h26bf         1   UNL       h26        27     0.05645        1.0080 ; qtot   -1.487
        28           h27bf         1   UNL       h27        28     0.05645        1.0080 ; qtot   -1.430
        29           h28bf         1   UNL       h28        29     0.04594        1.0080 ; qtot   -1.384
        30           h29bf         1   UNL       h29        30     0.04594        1.0080 ; qtot   -1.338
        31           h30bf         1   UNL       h30        31     0.12425        1.0080 ; qtot   -1.214
        32           c31bf         1   UNL       c31        32    -0.01913       12.0110 ; qtot   -1.233
        33           c32bf         1   UNL       c32        33    -0.05616       12.0110 ; qtot   -1.289
        34           c33bf         1   UNL       c33        34    -0.08309       12.0110 ; qtot   -1.372
        35           c34bf         1   UNL       c34        35    -0.11798       12.0110 ; qtot   -1.490
        36           c35bf         1   UNL       c35        36    -0.10337       12.0110 ; qtot   -1.594
        37           c36bf         1   UNL       c36        37    -0.10785       12.0110 ; qtot   -1.702
        38           h37bf         1   UNL       h37        38     0.12259        1.0080 ; qtot   -1.579
        39           h38bf         1   UNL       h38        39     0.11645        1.0080 ; qtot   -1.463
        40           h39bf         1   UNL       h39        40     0.11510        1.0080 ; qtot   -1.347
        41           h40bf         1   UNL       h40        41     0.11419        1.0080 ; qtot   -1.233
        42           h41bf         1   UNL       h41        42     0.11744        1.0080 ; qtot   -1.116
        43           h42bf         1   UNL       h42        43     0.11578        1.0080 ; qtot   -1.000

[ bonds ]
;       ai        aj funct               r               k
         1         2     1        0.125984   487533.551758
         2         3     1        0.125984   487533.551758
         2         4     1        0.153865   116978.526416
         4         5     1        0.175842   130241.377393
         4        12     1        0.137366   364977.337598
         5         6     1        0.174382   158782.927686
         6         7     1        0.139912   305608.691260
         6        11     1        0.142888   233392.146436
         7         8     1        0.139048   326002.831104
         7        21     1        0.108544   321785.632861
         8         9     1        0.140547   293480.556201
         8        22     1        0.108568   322047.515918
         9        10     1        0.138948   316514.492578
         9        23     1        0.108445   324313.244873
        10        11     1        0.141845   253141.550879
        10        24     1        0.176188   140751.621655
        11        12     1        0.145498   210077.493384
        12        13     1        0.151286   194229.125000
        13        14     1        0.154236   174957.494336
        13        25     1        0.109188   301454.518604
        13        26     1        0.109188   301454.518604
        14        15     1        0.152478   192795.433374
        14        27     1        0.109499   298101.674902
        14        28     1        0.109499   298101.674902
        15        16     1        0.143585   183492.711328
        15        29     1        0.109622   291623.420996
        15        30     1        0.109622   291623.420996
        16        17     1        0.136880   263000.049805
        17        20     1        0.138388   327644.535254
        17        33     1        0.143216   239978.830908
        18        19     1        0.137744   360046.938965
        18        32     1        0.142250   272881.225684
        18        43     1        0.108642   317826.027441
        19        20     1        0.141680   278367.005371
        19        42     1        0.108615   319669.193848
        20        31     1        0.108351   324498.669824
        32        33     1        0.143188   247084.684814
        32        37     1        0.142264   273010.009326
        33        34     1        0.141965   274220.391699
        34        35     1        0.138176   348945.523389
        34        38     1        0.108502   321068.755127
        35        36     1        0.141767   274309.822656
        35        39     1        0.108610   320314.874121
        36        37     1        0.138000   354661.622266
        36        40     1        0.108630   319777.215820
        37        41     1        0.108689   316406.955811

[ angles ]
;       ai        aj        ak funct           theta             cth
         1         2         3     1      130.098618      692.395946
         1         2         4     1      114.957314      332.976709
         2         4         5     1      113.715515      562.478456
         2         4        12     1      132.333954      363.577253
         3         2         4     1      114.957314      332.976709
         4         5         6     1       91.286636      494.235926
         4        12        11     1      111.559189      386.149759
         4        12        13     1      121.718277      398.744789
         5         4        12     1      113.454994      167.360000
         5         6         7     1      125.107193      396.122894
         5         6        11     1      112.141113      167.360000
         6         7         8     1      118.522659      711.667143
         6         7        21     1      120.660110      426.118272
         6        11        10     1      115.670639      650.857029
         6        11        12     1      111.884415      400.298882
         7         6        11     1      123.117477      648.084465
         7         8         9     1      120.572678      658.393668
         7         8        22     1      119.980713      432.324045
         8         7        21     1      120.854385      442.042703
         8         9        10     1      120.809982      599.931117
         8         9        23     1      120.162109      437.225127
         9         8        22     1      119.263046      443.304906
         9        10        11     1      121.582298      638.776188
         9        10        24     1      115.930580      399.559168
        10         9        23     1      119.034164      409.541145
        10        11        12     1      132.827744      380.526360
        11        10        24     1      122.313004      342.464703
        11        12        13     1      126.289795      441.746600
        12        13        14     1      112.444115      561.110497
        12        13        25     1      109.124008      482.474299
        12        13        26     1      109.124008      482.474299
        13        14        15     1      112.430382      589.324278
        13        14        27     1      109.498062      481.534119
        13        14        28     1      109.498062      481.534119
        14        13        25     1      109.025620      480.577818
        14        13        26     1      109.025620      480.577818
        14        15        16     1      109.354874      625.854922
        14        15        29     1      110.814880      493.516226
        14        15        30     1      110.814880      493.516226
        15        14        27     1      108.803955      510.090480
        15        14        28     1      108.803955      510.090480
        15        16        17     1      118.590530      506.055043
        16        15        29     1      108.759766      456.673296
        16        15        30     1      108.759766      456.673296
        16        17        20     1      124.759583      502.766693
        16        17        33     1      115.070114      461.977609
        17        20        19     1      119.907143      732.898568
        17        20        31     1      120.893105      435.016901
        17        33        32     1      118.639671      750.699976
        17        33        34     1      122.054665      490.901450
        18        19        20     1      120.985123      676.416547
        18        19        42     1      120.250893      440.489536
        18        32        33     1      119.276062      748.150159
        18        32        37     1      121.849464      433.121537
        19        18        32     1      120.161377      576.423314
        19        18        43     1      120.729111      441.885266
        19        20        31     1      119.268784      446.130300
        20        17        33     1      120.418556      547.932965
        20        19        42     1      118.739914      440.527075
        25        13        26     1      107.008316      353.277370
        27        14        28     1      107.037109      359.461820
        29        15        30     1      108.062378      344.404310
        32        18        43     1      119.087891      431.442153
        32        33        34     1      119.236145      766.215557
        32        37        36     1      120.870773      597.151211
        32        37        41     1      118.869949      429.537563
        33        32        37     1      118.749863      751.574686
        33        34        35     1      120.646530      615.206266
        33        34        38     1      118.965553      422.804513
        34        35        36     1      120.280899      693.560949
        34        35        39     1      120.042076      443.845878
        35        34        38     1      120.297569      430.608430
        35        36        37     1      120.101517      691.635834
        35        36        40     1      119.701599      442.982277
        36        35        39     1      119.687965      445.462792
        36        37        41     1      120.361694      440.939723
        37        36        40     1      120.194534      439.502239

[ dihedrals ] ; propers for gromacs 4.5 or higher, use funct 9
;       ai        aj        ak        al funct           phase               k        pn
         1         2         4         5     9        0.000000       -0.225196         1
         1         2         4         5     9      180.000000        4.494542         2
         1         2         4         5     9        0.000000        0.229109         3
         1         2         4         5     9      180.000000        0.329621         4
         1         2         4        12     9        0.000000       -0.741978         1
         1         2         4        12     9      180.000000        2.040984         2
         1         2         4        12     9        0.000000       -0.192958         3
         1         2         4        12     9      180.000000        0.143204         4
         2         4         5         6     9        0.000000       -0.497327         1
         2         4         5         6     9      180.000000        9.624117         2
         2         4         5         6     9        0.000000       -0.704688         3
         2         4         5         6     9      180.000000        0.112122         4
         2         4        12        11     9        0.000000       -0.605236         1
         2         4        12        11     9      180.000000       18.875439         2
         2         4        12        11     9        0.000000       -0.843055         3
         2         4        12        11     9      180.000000       -1.335177         4
         2         4        12        13     9        0.000000       -0.305075         1
         2         4        12        13     9      180.000000       17.218697         2
         2         4        12        13     9        0.000000        0.301236         3
         2         4        12        13     9      180.000000       -1.060938         4
         3         2         4         5     9        0.000000       -0.225196         1
         3         2         4         5     9      180.000000        4.494542         2
         3         2         4         5     9        0.000000        0.229109         3
         3         2         4         5     9      180.000000        0.329621         4
         3         2         4        12     9        0.000000       -0.741978         1
         3         2         4        12     9      180.000000        2.040984         2
         3         2         4        12     9        0.000000       -0.192958         3
         3         2         4        12     9      180.000000        0.143204         4
         4         5         6         7     9        0.000000        0.432907         1
         4         5         6         7     9      180.000000        5.807471         2
         4         5         6         7     9        0.000000       -0.437903         3
         4         5         6         7     9      180.000000        0.321385         4
         4         5         6        11     9        0.000000       -0.118962         1
         4         5         6        11     9      180.000000       22.376343         2
         4         5         6        11     9        0.000000       -4.673797         3
         4         5         6        11     9      180.000000       -1.074295         4
         4        12        11         6     9        0.000000       -0.185106         1
         4        12        11         6     9      180.000000       16.741758         2
         4        12        11         6     9        0.000000       -5.854414         3
         4        12        11         6     9      180.000000       -0.368987         4
         4        12        11        10     9        0.000000       -0.203430         1
         4        12        11        10     9      180.000000        3.999011         2
         4        12        11        10     9        0.000000        0.062418         3
         4        12        11        10     9      180.000000        0.168264         4
         4        12        13        14     9        0.000000       -3.685347         1
         4        12        13        14     9      180.000000       -0.633203         2
         4        12        13        14     9        0.000000       -0.134439         3
         4        12        13        14     9      180.000000        0.065726         4
         4        12        13        25     9        0.000000       -0.030489         1
         4        12        13        25     9      180.000000        0.081107         2
         4        12        13        25     9        0.000000       -0.782131         3
         4        12        13        25     9      180.000000        0.195476         4
         4        12        13        26     9        0.000000       -0.030489         1
         4        12        13        26     9      180.000000        0.081107         2
         4        12        13        26     9        0.000000       -0.782131         3
         4        12        13        26     9      180.000000        0.195476         4
         5         4        12        11     9        0.000000       -0.569588         1
         5         4        12        11     9      180.000000       30.487440         2
         5         4        12        11     9        0.000000       -4.341216         3
         5         4        12        11     9      180.000000       -1.058917         4
         5         4        12        13     9        0.000000       -0.028760         1
         5         4        12        13     9      180.000000       22.869627         2
         5         4        12        13     9        0.000000        0.003860         3
         5         4        12        13     9      180.000000       -1.649106         4
         5         6         7         8     9        0.000000        0.057534         1
         5         6         7         8     9      180.000000       14.859703         2
         5         6         7         8     9        0.000000       -0.281054         3
         5         6         7         8     9      180.000000       -0.349541         4
         5         6         7        21     9        0.000000        0.283011         1
         5         6         7        21     9      180.000000       11.367626         2
         5         6         7        21     9        0.000000       -0.173334         3
         5         6         7        21     9      180.000000       -0.062345         4
         5         6        11        10     9        0.000000        0.277552         1
         5         6        11        10     9      180.000000       12.284035         2
         5         6        11        10     9        0.000000       -0.582128         3
         5         6        11        10     9      180.000000       -0.404982         4
         5         6        11        12     9        0.000000       -0.299879         1
         5         6        11        12     9      180.000000       16.217698         2
         5         6        11        12     9        0.000000       -3.107768         3
         5         6        11        12     9      180.000000       -0.678765         4
         6         5         4        12     9        0.000000       -0.720969         1
         6         5         4        12     9      180.000000       22.909427         2
         6         5         4        12     9        0.000000       -4.985281         3
         6         5         4        12     9      180.000000       -0.673412         4
         6         7         8         9     9        0.000000       -0.241776         1
         6         7         8         9     9      180.000000       20.761814         2
         6         7         8         9     9        0.000000       -1.717938         3
         6         7         8         9     9      180.000000       -0.549627         4
         6         7         8        22     9        0.000000       -0.029244         1
         6         7         8        22     9      180.000000       15.935265         2
         6         7         8        22     9        0.000000       -0.645516         3
         6         7         8        22     9      180.000000       -0.043108         4
         6        11        10         9     9        0.000000        0.175415         1
         6        11        10         9     9      180.000000       13.597518         2
         6        11        10         9     9        0.000000       -0.995498         3
         6        11        10         9     9      180.000000       -0.251082         4
         6        11        10        24     9        0.000000        0.267584         1
         6        11        10        24     9      180.000000       12.938419         2
         6        11        10        24     9        0.000000        0.187765         3
         6        11        10        24     9      180.000000       -0.600328         4
         6        11        12        13     9        0.000000        0.577124         1
         6        11        12        13     9      180.000000        9.420912         2
         6        11        12        13     9        0.000000        0.354914         3
         6        11        12        13     9      180.000000       -0.408946         4
         7         6        11        10     9        0.000000        0.141492         1
         7         6        11        10     9      180.000000       12.324068         2
         7         6        11        10     9        0.000000       -0.835327         3
         7         6        11        10     9      180.000000       -0.242375         4
         7         6        11        12     9        0.000000        0.007934         1
         7         6        11        12     9      180.000000       12.328306         2
         7         6        11        12     9        0.000000       -1.350809         3
         7         6        11        12     9      180.000000       -0.172588         4
         7         8         9        10     9        0.000000       -0.065510         1
         7         8         9        10     9      180.000000       17.085320         2
         7         8         9        10     9        0.000000       -1.481034         3
         7         8         9        10     9      180.000000       -0.299914         4
         7         8         9        23     9        0.000000        0.070280         1
         7         8         9        23     9      180.000000       13.728461         2
         7         8         9        23     9        0.000000       -0.709102         3
         7         8         9        23     9      180.000000        0.167551         4
         8         7         6        11     9        0.000000        0.067774         1
         8         7         6        11     9      180.000000       18.230667         2
         8         7         6        11     9        0.000000       -1.370418         3
         8         7         6        11     9      180.000000       -0.466328         4
         8         9        10        11     9        0.000000        0.049233         1
         8         9        10        11     9      180.000000       20.055024         2
         8         9        10        11     9        0.000000       -1.312276         3
         8         9        10        11     9      180.000000       -0.577694         4
         8         9        10        24     9        0.000000        0.357909         1
         8         9        10        24     9      180.000000       21.666699         2
         8         9        10        24     9        0.000000        0.380410         3
         8         9        10        24     9      180.000000       -0.832837         4
         9         8         7        21     9        0.000000        0.062866         1
         9         8         7        21     9      180.000000       15.174438         2
         9         8         7        21     9        0.000000       -0.549489         3
         9         8         7        21     9      180.000000        0.102037         4
         9        10        11        12     9        0.000000       -0.154584         1
         9        10        11        12     9      180.000000       10.025826         2
         9        10        11        12     9        0.000000       -0.384676         3
         9        10        11        12     9      180.000000       -0.534066         4
        10         9         8        22     9        0.000000        0.018927         1
        10         9         8        22     9      180.000000       13.148083         2
        10         9         8        22     9        0.000000       -0.690389         3
        10         9         8        22     9      180.000000        0.135542         4
        10        11        12        13     9        0.000000        0.112649         1
        10        11        12        13     9      180.000000        5.303233         2
        10        11        12        13     9        0.000000        0.806038         3
        10        11        12        13     9      180.000000       -0.411226         4
        11         6         7        21     9        0.000000        0.248718         1
        11         6         7        21     9      180.000000       12.254497         2
        11         6         7        21     9        0.000000       -0.177567         3
        11         6         7        21     9      180.000000       -0.022913         4
        11        10         9        23     9        0.000000       -0.026944         1
        11        10         9        23     9      180.000000       14.928310         2
        11        10         9        23     9        0.000000       -0.552624         3
        11        10         9        23     9      180.000000       -0.021433         4
        11        12        13        14     9        0.000000        0.840548         1
        11        12        13        14     9      180.000000       -3.045176         2
        11        12        13        14     9        0.000000        0.873699         3
        11        12        13        14     9      180.000000        0.093593         4
        11        12        13        25     9        0.000000       -0.291959         1
        11        12        13        25     9      180.000000        0.006144         2
        11        12        13        25     9        0.000000        0.350860         3
        11        12        13        25     9      180.000000        0.209310         4
        11        12        13        26     9        0.000000       -0.291959         1
        11        12        13        26     9      180.000000        0.006144         2
        11        12        13        26     9        0.000000        0.350860         3
        11        12        13        26     9      180.000000        0.209310         4
        12        11        10        24     9        0.000000       -0.130704         1
        12        11        10        24     9      180.000000       10.662366         2
        12        11        10        24     9        0.000000        0.385368         3
        12        11        10        24     9      180.000000       -0.789046         4
        12        13        14        15     9        0.000000       -1.167717         1
        12        13        14        15     9      180.000000        0.185197         2
        12        13        14        15     9        0.000000        0.359564         3
        12        13        14        15     9      180.000000       -0.023958         4
        12        13        14        27     9        0.000000        0.028712         1
        12        13        14        27     9      180.000000        0.027825         2
        12        13        14        27     9        0.000000        0.544561         3
        12        13        14        27     9      180.000000       -0.005400         4
        12        13        14        28     9        0.000000        0.028712         1
        12        13        14        28     9      180.000000        0.027825         2
        12        13        14        28     9        0.000000        0.544561         3
        12        13        14        28     9      180.000000       -0.005400         4
        13        14        15        16     9        0.000000       -1.012636         1
        13        14        15        16     9      180.000000       -0.176393         2
        13        14        15        16     9        0.000000        0.472817         3
        13        14        15        16     9      180.000000       -0.013773         4
        13        14        15        29     9        0.000000       -0.036103         1
        13        14        15        29     9      180.000000        0.009698         2
        13        14        15        29     9        0.000000        0.640925         3
        13        14        15        29     9      180.000000        0.051354         4
        13        14        15        30     9        0.000000       -0.036103         1
        13        14        15        30     9      180.000000        0.009698         2
        13        14        15        30     9        0.000000        0.640925         3
        13        14        15        30     9      180.000000        0.051354         4
        14        15        16        17     9        0.000000        0.208660         1
        14        15        16        17     9      180.000000        0.281085         2
        14        15        16        17     9        0.000000        0.675703         3
        14        15        16        17     9      180.000000        0.032974         4
        15        14        13        25     9        0.000000       -0.155128         1
        15        14        13        25     9      180.000000        0.063057         2
        15        14        13        25     9        0.000000        0.466236         3
        15        14        13        25     9      180.000000        0.033334         4
        15        14        13        26     9        0.000000       -0.155128         1
        15        14        13        26     9      180.000000        0.063057         2
        15        14        13        26     9        0.000000        0.466236         3
        15        14        13        26     9      180.000000        0.033334         4
        15        16        17        20     9        0.000000        0.989666         1
        15        16        17        20     9      180.000000        4.991141         2
        15        16        17        20     9        0.000000       -0.081631         3
        15        16        17        20     9      180.000000        0.346891         4
        15        16        17        33     9        0.000000       -0.998036         1
        15        16        17        33     9      180.000000        5.061945         2
        15        16        17        33     9        0.000000        0.142279         3
        15        16        17        33     9      180.000000        0.368076         4
        16        15        14        27     9        0.000000        0.037616         1
        16        15        14        27     9      180.000000        0.152896         2
        16        15        14        27     9        0.000000        0.478918         3
        16        15        14        27     9      180.000000        0.070323         4
        16        15        14        28     9        0.000000        0.037616         1
        16        15        14        28     9      180.000000        0.152896         2
        16        15        14        28     9        0.000000        0.478918         3
        16        15        14        28     9      180.000000        0.070323         4
        16        17        20        19     9        0.000000        0.481623         1
        16        17        20        19     9      180.000000       20.418200         2
        16        17        20        19     9        0.000000        0.590451         3
        16        17        20        19     9      180.000000       -0.565751         4
        16        17        20        31     9        0.000000        0.138150         1
        16        17        20        31     9      180.000000       15.086427         2
        16        17        20        31     9        0.000000        0.139751         3
        16        17        20        31     9      180.000000        0.208328         4
        16        17        33        32     9        0.000000       -0.005735         1
        16        17        33        32     9      180.000000       14.529224         2
        16        17        33        32     9        0.000000        0.354820         3
        16        17        33        32     9      180.000000       -0.263437         4
        16        17        33        34     9        0.000000        0.020024         1
        16        17        33        34     9      180.000000       13.418359         2
        16        17        33        34     9        0.000000        0.051952         3
        16        17        33        34     9      180.000000        0.001094         4
        17        16        15        29     9        0.000000       -0.242316         1
        17        16        15        29     9      180.000000       -0.036056         2
        17        16        15        29     9        0.000000        0.872445         3
        17        16        15        29     9      180.000000       -0.051326         4
        17        16        15        30     9        0.000000       -0.242316         1
        17        16        15        30     9      180.000000       -0.036056         2
        17        16        15        30     9        0.000000        0.872445         3
        17        16        15        30     9      180.000000       -0.051326         4
        17        20        19        18     9        0.000000        0.073909         1
        17        20        19        18     9      180.000000       16.277140         2
        17        20        19        18     9        0.000000       -1.586820         3
        17        20        19        18     9      180.000000       -0.324542         4
        17        20        19        42     9        0.000000        0.158752         1
        17        20        19        42     9      180.000000       13.357421         2
        17        20        19        42     9        0.000000       -0.573040         3
        17        20        19        42     9      180.000000        0.048496         4
        17        33        32        18     9        0.000000        0.015971         1
        17        33        32        18     9      180.000000       11.729189         2
        17        33        32        18     9        0.000000       -1.013972         3
        17        33        32        18     9      180.000000       -0.306803         4
        17        33        32        37     9        0.000000       -0.008682         1
        17        33        32        37     9      180.000000       11.879791         2
        17        33        32        37     9        0.000000       -1.056186         3
        17        33        32        37     9      180.000000       -0.310674         4
        17        33        34        35     9        0.000000       -0.312967         1
        17        33        34        35     9      180.000000       14.212606         2
        17        33        34        35     9        0.000000       -0.824081         3
        17        33        34        35     9      180.000000       -0.182291         4
        17        33        34        38     9        0.000000       -0.144606         1
        17        33        34        38     9      180.000000       11.875083         2
        17        33        34        38     9        0.000000       -0.442356         3
        17        33        34        38     9      180.000000       -0.026923         4
        18        19        20        31     9        0.000000        0.084573         1
        18        19        20        31     9      180.000000       12.736335         2
        18        19        20        31     9        0.000000       -0.678469         3
        18        19        20        31     9      180.000000        0.191049         4
        18        32        33        34     9        0.000000        0.185988         1
        18        32        33        34     9      180.000000       10.546775         2
        18        32        33        34     9        0.000000       -0.835993         3
        18        32        33        34     9      180.000000       -0.138826         4
        18        32        37        36     9        0.000000       -0.113436         1
        18        32        37        36     9      180.000000       13.522679         2
        18        32        37        36     9        0.000000       -0.712952         3
        18        32        37        36     9      180.000000       -0.152876         4
        18        32        37        41     9        0.000000       -0.135581         1
        18        32        37        41     9      180.000000       11.330076         2
        18        32        37        41     9        0.000000       -0.463425         3
        18        32        37        41     9      180.000000        0.040441         4
        19        18        32        33     9        0.000000       -0.203816         1
        19        18        32        33     9      180.000000       16.988766         2
        19        18        32        33     9        0.000000       -1.304661         3
        19        18        32        33     9      180.000000       -0.352037         4
        19        18        32        37     9        0.000000       -0.137366         1
        19        18        32        37     9      180.000000       13.827414         2
        19        18        32        37     9        0.000000       -0.785596         3
        19        18        32        37     9      180.000000       -0.164843         4
        19        20        17        33     9        0.000000       -0.077092         1
        19        20        17        33     9      180.000000       18.430114         2
        19        20        17        33     9        0.000000       -1.134210         3
        19        20        17        33     9      180.000000       -0.421492         4
        20        17        33        32     9        0.000000       -0.250198         1
        20        17        33        32     9      180.000000       12.049972         2
        20        17        33        32     9        0.000000       -0.530517         3
        20        17        33        32     9      180.000000       -0.100159         4
        20        17        33        34     9        0.000000       -0.280769         1
        20        17        33        34     9      180.000000        9.445297         2
        20        17        33        34     9        0.000000       -0.353382         3
        20        17        33        34     9      180.000000        0.027219         4
        20        19        18        32     9        0.000000       -0.158612         1
        20        19        18        32     9      180.000000       20.438881         2
        20        19        18        32     9        0.000000       -1.773579         3
        20        19        18        32     9      180.000000       -0.436959         4
        20        19        18        43     9        0.000000        0.054439         1
        20        19        18        43     9      180.000000       16.362962         2
        20        19        18        43     9        0.000000       -0.503223         3
        20        19        18        43     9      180.000000       -0.018809         4
        21         7         8        22     9        0.000000       -0.151296         1
        21         7         8        22     9      180.000000       12.110849         2
        21         7         8        22     9        0.000000       -0.718347         3
        21         7         8        22     9      180.000000        0.286156         4
        22         8         9        23     9        0.000000       -0.213135         1
        22         8         9        23     9      180.000000       11.054785         2
        22         8         9        23     9        0.000000       -0.614797         3
        22         8         9        23     9      180.000000        0.188536         4
        23         9        10        24     9        0.000000       -0.024658         1
        23         9        10        24     9      180.000000       15.201643         2
        23         9        10        24     9        0.000000       -0.050421         3
        23         9        10        24     9      180.000000        0.109521         4
        25        13        14        27     9        0.000000       -0.009797         1
        25        13        14        27     9      180.000000        0.066619         2
        25        13        14        27     9        0.000000        0.607807         3
        25        13        14        27     9      180.000000        0.013159         4
        25        13        14        28     9        0.000000       -0.009797         1
        25        13        14        28     9      180.000000        0.066619         2
        25        13        14        28     9        0.000000        0.607807         3
        25        13        14        28     9      180.000000        0.013159         4
        26        13        14        27     9        0.000000       -0.009797         1
        26        13        14        27     9      180.000000        0.066619         2
        26        13        14        27     9        0.000000        0.607807         3
        26        13        14        27     9      180.000000        0.013159         4
        26        13        14        28     9        0.000000       -0.009797         1
        26        13        14        28     9      180.000000        0.066619         2
        26        13        14        28     9        0.000000        0.607807         3
        26        13        14        28     9      180.000000        0.013159         4
        27        14        15        29     9        0.000000       -0.009834         1
        27        14        15        29     9      180.000000       -0.017276         2
        27        14        15        29     9        0.000000        0.668391         3
        27        14        15        29     9      180.000000       -0.049320         4
        27        14        15        30     9        0.000000       -0.009834         1
        27        14        15        30     9      180.000000       -0.017276         2
        27        14        15        30     9        0.000000        0.668391         3
        27        14        15        30     9      180.000000       -0.049320         4
        28        14        15        29     9        0.000000       -0.009834         1
        28        14        15        29     9      180.000000       -0.017276         2
        28        14        15        29     9        0.000000        0.668391         3
        28        14        15        29     9      180.000000       -0.049320         4
        28        14        15        30     9        0.000000       -0.009834         1
        28        14        15        30     9      180.000000       -0.017276         2
        28        14        15        30     9        0.000000        0.668391         3
        28        14        15        30     9      180.000000       -0.049320         4
        31        20        17        33     9        0.000000       -0.055542         1
        31        20        17        33     9      180.000000       13.881861         2
        31        20        17        33     9        0.000000       -0.474494         3
        31        20        17        33     9      180.000000        0.056181         4
        31        20        19        42     9        0.000000       -0.134258         1
        31        20        19        42     9      180.000000       10.906566         2
        31        20        19        42     9        0.000000       -0.689153         3
        31        20        19        42     9      180.000000        0.149985         4
        32        18        19        42     9        0.000000        0.053465         1
        32        18        19        42     9      180.000000       15.656868         2
        32        18        19        42     9        0.000000       -0.658012         3
        32        18        19        42     9      180.000000        0.055312         4
        32        33        34        35     9        0.000000       -0.264600         1
        32        33        34        35     9      180.000000       16.097750         2
        32        33        34        35     9        0.000000       -1.038734         3
        32        33        34        35     9      180.000000       -0.273847         4
        32        33        34        38     9        0.000000       -0.124298         1
        32        33        34        38     9      180.000000       12.047774         2
        32        33        34        38     9        0.000000       -0.161683         3
        32        33        34        38     9      180.000000        0.012896         4
        32        37        36        35     9        0.000000       -0.116445         1
        32        37        36        35     9      180.000000       20.603116         2
        32        37        36        35     9        0.000000       -1.645623         3
        32        37        36        35     9      180.000000       -0.477479         4
        32        37        36        40     9        0.000000        0.017994         1
        32        37        36        40     9      180.000000       15.819625         2
        32        37        36        40     9        0.000000       -0.633506         3
        32        37        36        40     9      180.000000        0.042057         4
        33        32        18        43     9        0.000000       -0.078717         1
        33        32        18        43     9      180.000000       12.183403         2
        33        32        18        43     9        0.000000       -0.195216         3
        33        32        18        43     9      180.000000       -0.048241         4
        33        32        37        36     9        0.000000       -0.184832         1
        33        32        37        36     9      180.000000       16.596924         2
        33        32        37        36     9        0.000000       -1.231312         3
        33        32        37        36     9      180.000000       -0.332603         4
        33        32        37        41     9        0.000000       -0.106007         1
        33        32        37        41     9      180.000000       12.234859         2
        33        32        37        41     9        0.000000       -0.158135         3
        33        32        37        41     9      180.000000       -0.044648         4
        33        34        35        36     9        0.000000       -0.244726         1
        33        34        35        36     9      180.000000       20.988042         2
        33        34        35        36     9        0.000000       -1.925589         3
        33        34        35        36     9      180.000000       -0.436055         4
        33        34        35        39     9        0.000000       -0.033270         1
        33        34        35        39     9      180.000000       16.238813         2
        33        34        35        39     9        0.000000       -0.722051         3
        33        34        35        39     9      180.000000       -0.017323         4
        34        33        32        37     9        0.000000        0.158516         1
        34        33        32        37     9      180.000000       10.787348         2
        34        33        32        37     9        0.000000       -0.883838         3
        34        33        32        37     9      180.000000       -0.164123         4
        34        35        36        37     9        0.000000        0.085956         1
        34        35        36        37     9      180.000000       16.001228         2
        34        35        36        37     9        0.000000       -1.385545         3
        34        35        36        37     9      180.000000       -0.264925         4
        34        35        36        40     9        0.000000        0.012593         1
        34        35        36        40     9      180.000000       12.768933         2
        34        35        36        40     9        0.000000       -0.653582         3
        34        35        36        40     9      180.000000        0.100989         4
        35        36        37        41     9        0.000000       -0.005467         1
        35        36        37        41     9      180.000000       16.271174         2
        35        36        37        41     9        0.000000       -0.454004         3
        35        36        37        41     9      180.000000        0.071995         4
        36        35        34        38     9        0.000000        0.009681         1
        36        35        34        38     9      180.000000       16.116137         2
        36        35        34        38     9        0.000000       -0.536783         3
        36        35        34        38     9      180.000000        0.113141         4
        37        32        18        43     9        0.000000       -0.101057         1
        37        32        18        43     9      180.000000       11.270216         2
        37        32        18        43     9        0.000000       -0.481052         3
        37        32        18        43     9      180.000000        0.029920         4
        37        36        35        39     9        0.000000        0.009393         1
        37        36        35        39     9      180.000000       12.831087         2
        37        36        35        39     9        0.000000       -0.625437         3
        37        36        35        39     9      180.000000        0.087821         4
        38        34        35        39     9        0.000000       -0.151717         1
        38        34        35        39     9      180.000000       12.624105         2
        38        34        35        39     9        0.000000       -0.668524         3
        38        34        35        39     9      180.000000        0.325215         4
        39        35        36        40     9        0.000000       -0.150958         1
        39        35        36        40     9      180.000000       10.356311         2
        39        35        36        40     9        0.000000       -0.405848         3
        39        35        36        40     9      180.000000        0.128684         4
        40        36        37        41     9        0.000000       -0.103569         1
        40        36        37        41     9      180.000000       12.649581         2
        40        36        37        41     9        0.000000       -0.581061         3
        40        36        37        41     9      180.000000        0.284283         4
        42        19        18        43     9        0.000000       -0.107744         1
        42        19        18        43     9      180.000000       12.551764         2
        42        19        18        43     9        0.000000       -0.684442         3
        42        19        18        43     9      180.000000        0.320552         4

[ dihedrals ] ; impropers
;       ai        aj        ak        al funct           phase               k        pn
         2         1         3         4     4      180.000000       27.893333         2
         2         3         4         1     4      180.000000       27.893333         2
         2         4         1         3     4      180.000000       27.893333         2

[ pairs ]
;       ai        aj funct
         1         5     1
         1        12     1
         2         6     1
         2        11     1
         2        13     1
         3         5     1
         3        12     1
         4         7     1
         4        10     1
         4        14     1
         4        25     1
         4        26     1
         5         8     1
         5        10     1
         5        13     1
         5        21     1
         6         9     1
         6        13     1
         6        22     1
         6        24     1
         7        10     1
         7        12     1
         7        23     1
         8        11     1
         8        24     1
         9        12     1
         9        21     1
        10        13     1
        10        22     1
        11        14     1
        11        21     1
        11        23     1
        11        25     1
        11        26     1
        12        15     1
        12        24     1
        12        27     1
        12        28     1
        13        16     1
        13        29     1
        13        30     1
        14        17     1
        15        20     1
        15        25     1
        15        26     1
        15        33     1
        16        19     1
        16        27     1
        16        28     1
        16        31     1
        16        32     1
        16        34     1
        17        18     1
        17        29     1
        17        30     1
        17        35     1
        17        37     1
        17        38     1
        17        42     1
        18        31     1
        18        34     1
        18        36     1
        18        41     1
        19        33     1
        19        37     1
        20        32     1
        20        34     1
        20        43     1
        21        22     1
        22        23     1
        23        24     1
        25        27     1
        25        28     1
        26        27     1
        26        28     1
        27        29     1
        27        30     1
        28        29     1
        28        30     1
        31        33     1
        31        42     1
        32        35     1
        32        38     1
        32        40     1
        32        42     1
        33        36     1
        33        39     1
        33        41     1
        33        43     1
        34        37     1
        34        40     1
        35        41     1
        36        38     1
        37        39     1
        37        43     1
        38        39     1
        39        40     1
        40        41     1
        42        43     1
