; ITP file created by ByteFF-ML, 2026-02-21 08:21:16.941365

[ atomtypes ]
;name           bonded.type        at.num        mass        charge   ptype           sigma         epsilon
 o0bf                                   8      0.0000       0.00000       A     3.04919e-01     6.10977e-01
 c1bf                                   6      0.0000       0.00000       A     3.31269e-01     4.10546e-01
 o2bf                                   8      0.0000       0.00000       A     3.04919e-01     6.10977e-01
 c3bf                                   6      0.0000       0.00000       A     3.31950e-01     4.10598e-01
 s4bf                                  16      0.0000       0.00000       A     3.53169e-01     1.18361e+00
 c5bf                                   6      0.0000       0.00000       A     3.31326e-01     4.12967e-01
 c6bf                                   6      0.0000       0.00000       A     3.31518e-01     4.11499e-01
 c7bf                                   6      0.0000       0.00000       A     3.31518e-01     4.12589e-01
 c8bf                                   6      0.0000       0.00000       A     3.31457e-01     4.12953e-01
 c9bf                                   6      0.0000       0.00000       A     3.31529e-01     4.12614e-01
 c10bf                                  6      0.0000       0.00000       A     3.31581e-01     4.12348e-01
 c11bf                                  6      0.0000       0.00000       A     3.31314e-01     4.12424e-01
 c12bf                                  6      0.0000       0.00000       A     3.39703e-01     4.52313e-01
 c13bf                                  6      0.0000       0.00000       A     3.39805e-01     4.50669e-01
 c14bf                                  6      0.0000       0.00000       A     3.39754e-01     4.50898e-01
 o15bf                                  8      0.0000       0.00000       A     3.15651e-01     3.02535e-01
 c16bf                                  6      0.0000       0.00000       A     3.31537e-01     4.12716e-01
 c17bf                                  6      0.0000       0.00000       A     3.31524e-01     4.13117e-01
 c18bf                                  6      0.0000       0.00000       A     3.31486e-01     4.13091e-01
 c19bf                                  6      0.0000       0.00000       A     3.31594e-01     4.13024e-01
 cl20bf                                17      0.0000       0.00000       A     3.46901e-01     1.10663e+00
 h21bf                                  1      0.0000       0.00000       A     2.62427e-01     6.69902e-02
 h22bf                                  1      0.0000       0.00000       A     2.62509e-01     6.74643e-02
 h23bf                                  1      0.0000       0.00000       A     2.62537e-01     6.69232e-02
 h24bf                                  1      0.0000       0.00000       A     2.59682e-01     8.75396e-02
 h25bf                                  1      0.0000       0.00000       A     2.59682e-01     8.75396e-02
 h26bf                                  1      0.0000       0.00000       A     2.60066e-01     8.68629e-02
 h27bf                                  1      0.0000       0.00000       A     2.60066e-01     8.68629e-02
 h28bf                                  1      0.0000       0.00000       A     2.42108e-01     8.76817e-02
 h29bf                                  1      0.0000       0.00000       A     2.42108e-01     8.76817e-02
 h30bf                                  1      0.0000       0.00000       A     2.62519e-01     6.71818e-02
 c31bf                                  6      0.0000       0.00000       A     3.31438e-01     4.12965e-01
 c32bf                                  6      0.0000       0.00000       A     3.31417e-01     4.12957e-01
 c33bf                                  6      0.0000       0.00000       A     3.31506e-01     4.12777e-01
 c34bf                                  6      0.0000       0.00000       A     3.31499e-01     4.12734e-01
 c35bf                                  6      0.0000       0.00000       A     3.31524e-01     4.13114e-01
 c36bf                                  6      0.0000       0.00000       A     3.31510e-01     4.13502e-01
 h37bf                                  1      0.0000       0.00000       A     2.62478e-01     6.75951e-02
 h38bf                                  1      0.0000       0.00000       A     2.62489e-01     6.75504e-02
 h39bf                                  1      0.0000       0.00000       A     2.62489e-01     6.75504e-02
 h40bf                                  1      0.0000       0.00000       A     2.62512e-01     6.75552e-02
 h41bf                                  1      0.0000       0.00000       A     2.62574e-01     6.75281e-02
 h42bf                                  1      0.0000       0.00000       A     2.62512e-01     6.75552e-02

[ moleculetype ]
;name             nrexcl
 66_flip               3

[ atoms ]
;       nr            type      resi   res      atom      cgnr      charge          mass ; qtot
         1            o0bf         1   UNL        o0         1    -0.72561       15.9990 ; qtot   -0.726
         2            c1bf         1   UNL        c1         2     0.70983       12.0110 ; qtot   -0.016
         3            o2bf         1   UNL        o2         3    -0.72561       15.9990 ; qtot   -0.741
         4            c3bf         1   UNL        c3         4    -0.06844       12.0110 ; qtot   -0.810
         5            s4bf         1   UNL        s4         5     0.06585       32.0670 ; qtot   -0.744
         6            c5bf         1   UNL        c5         6    -0.18906       12.0110 ; qtot   -0.933
         7            c6bf         1   UNL        c6         7     0.13547       12.0110 ; qtot   -0.798
         8            c7bf         1   UNL        c7         8    -0.08758       12.0110 ; qtot   -0.885
         9            c8bf         1   UNL        c8         9    -0.11225       12.0110 ; qtot   -0.997
        10            c9bf         1   UNL        c9        10    -0.07866       12.0110 ; qtot   -1.076
        11           c10bf         1   UNL       c10        11    -0.05485       12.0110 ; qtot   -1.131
        12           c11bf         1   UNL       c11        12    -0.14720       12.0110 ; qtot   -1.278
        13           c12bf         1   UNL       c12        13    -0.01812       12.0110 ; qtot   -1.296
        14           c13bf         1   UNL       c13        14    -0.09024       12.0110 ; qtot   -1.386
        15           c14bf         1   UNL       c14        15     0.16323       12.0110 ; qtot   -1.223
        16           o15bf         1   UNL       o15        16    -0.35661       15.9990 ; qtot   -1.580
        17           c16bf         1   UNL       c16        17     0.15056       12.0110 ; qtot   -1.429
        18           c17bf         1   UNL       c17        18    -0.12634       12.0110 ; qtot   -1.556
        19           c18bf         1   UNL       c18        19    -0.07425       12.0110 ; qtot   -1.630
        20           c19bf         1   UNL       c19        20    -0.20031       12.0110 ; qtot   -1.830
        21          cl20bf         1   UNL      cl20        21    -0.20299       35.4530 ; qtot   -2.033
        22           h21bf         1   UNL       h21        22     0.13481        1.0080 ; qtot   -1.898
        23           h22bf         1   UNL       h22        23     0.12192        1.0080 ; qtot   -1.776
        24           h23bf         1   UNL       h23        24     0.12731        1.0080 ; qtot   -1.649
        25           h24bf         1   UNL       h24        25     0.05306        1.0080 ; qtot   -1.596
        26           h25bf         1   UNL       h25        26     0.05306        1.0080 ; qtot   -1.543
        27           h26bf         1   UNL       h26        27     0.05645        1.0080 ; qtot   -1.487
        28           h27bf         1   UNL       h27        28     0.05645        1.0080 ; qtot   -1.430
        29           h28bf         1   UNL       h28        29     0.04594        1.0080 ; qtot   -1.384
        30           h29bf         1   UNL       h29        30     0.04594        1.0080 ; qtot   -1.338
        31           h30bf         1   UNL       h30        31     0.12425        1.0080 ; qtot   -1.214
        32           c31bf         1   UNL       c31        32    -0.01913       12.0110 ; qtot   -1.233
        33           c32bf         1   UNL       c32        33    -0.05616       12.0110 ; qtot   -1.289
        34           c33bf         1   UNL       c33        34    -0.08309       12.0110 ; qtot   -1.372
        35           c34bf         1   UNL       c34        35    -0.11798       12.0110 ; qtot   -1.490
        36           c35bf         1   UNL       c35        36    -0.10337       12.0110 ; qtot   -1.594
        37           c36bf         1   UNL       c36        37    -0.10785       12.0110 ; qtot   -1.702
        38           h37bf         1   UNL       h37        38     0.12259        1.0080 ; qtot   -1.579
        39           h38bf         1   UNL       h38        39     0.11645        1.0080 ; qtot   -1.463
        40           h39bf         1   UNL       h39        40     0.11510        1.0080 ; qtot   -1.347
        41           h40bf         1   UNL       h40        41     0.11419        1.0080 ; qtot   -1.233
        42           h41bf         1   UNL       h41        42     0.11744        1.0080 ; qtot   -1.116
        43           h42bf         1   UNL       h42        43     0.11580        1.0080 ; qtot   -1.000

[ bonds ]
;       ai        aj funct               r               k
         1         2     1        0.125984   487533.551758
         2         3     1        0.125984   487533.551758
         2         4     1        0.153779   118432.354053
         4         5     1        0.176668   124235.508936
         4        12     1        0.137295   367701.815186
         5         6     1        0.174384   161808.385645
         6         7     1        0.139830   293498.483252
         6        11     1        0.142281   244260.944482
         7         8     1        0.138952   314056.035059
         7        21     1        0.175585   148608.739014
         8         9     1        0.140845   286829.262842
         8        22     1        0.108444   325539.996533
         9        10     1        0.138950   331057.442236
         9        23     1        0.108574   321542.621729
        10        11     1        0.141013   290179.961426
        10        24     1        0.108451   323782.890186
        11        12     1        0.144940   222641.559668
        12        13     1        0.150874   199922.087256
        13        14     1        0.154273   174931.063428
        13        25     1        0.109336   298413.329785
        13        26     1        0.109336   298413.329785
        14        15     1        0.152478   192795.433374
        14        27     1        0.109499   298101.674902
        14        28     1        0.109499   298101.674902
        15        16     1        0.143585   183492.711328
        15        29     1        0.109622   291623.420996
        15        30     1        0.109622   291623.420996
        16        17     1        0.136880   263000.049805
        17        20     1        0.138388   327644.535254
        17        33     1        0.143216   239978.830908
        18        19     1        0.137744   360046.938965
        18        32     1        0.142250   272881.225684
        18        43     1        0.108642   317826.027441
        19        20     1        0.141680   278367.005371
        19        42     1        0.108615   319669.193848
        20        31     1        0.108351   324498.669824
        32        33     1        0.143188   247084.684814
        32        37     1        0.142264   273010.009326
        33        34     1        0.141965   274220.391699
        34        35     1        0.138176   348945.523389
        34        38     1        0.108502   321068.755127
        35        36     1        0.141767   274309.822656
        35        39     1        0.108610   320314.874121
        36        37     1        0.138000   354661.622266
        36        40     1        0.108630   319777.215820
        37        41     1        0.108689   316406.955811

[ angles ]
;       ai        aj        ak funct           theta             cth
         1         2         3     1      130.098618      692.395946
         1         2         4     1      114.977737      337.668195
         2         4         5     1      113.944016      559.718980
         2         4        12     1      131.985596      370.802978
         3         2         4     1      114.977737      337.668195
         4         5         6     1       91.035751      510.115251
         4        12        11     1      111.920433      382.046424
         4        12        13     1      124.881859      398.476011
         5         4        12     1      113.175697      167.360000
         5         6         7     1      127.759293      307.372980
         5         6        11     1      112.130875      167.360000
         6         7         8     1      120.114845      654.222820
         6         7        21     1      119.712143      352.376294
         6        11        10     1      118.543358      701.082266
         6        11        12     1      112.497726      423.924539
         7         6        11     1      120.423233      610.619546
         7         8         9     1      119.619301      604.140973
         7         8        22     1      119.691429      410.609139
         8         7        21     1      120.466248      380.416327
         8         9        10     1      121.293350      665.426971
         8         9        23     1      118.771805      445.977205
         9         8        22     1      120.629860      432.138454
         9        10        11     1      119.697006      713.838563
         9        10        24     1      120.452515      426.619981
        10         9        23     1      119.987915      437.711162
        10        11        12     1      129.029785      417.716691
        11        10        24     1      119.904129      436.630272
        11        12        13     1      122.749191      461.859117
        12        13        14     1      112.533081      562.861002
        12        13        25     1      108.991493      491.046628
        12        13        26     1      108.991493      491.046628
        13        14        15     1      112.486977      590.800004
        13        14        27     1      109.491478      482.759645
        13        14        28     1      109.491478      482.759645
        14        13        25     1      108.992493      482.638439
        14        13        26     1      108.992493      482.638439
        14        15        16     1      109.354874      625.854922
        14        15        29     1      110.814880      493.516226
        14        15        30     1      110.814880      493.516226
        15        14        27     1      108.803955      510.090480
        15        14        28     1      108.803955      510.090480
        15        16        17     1      118.590530      506.055043
        16        15        29     1      108.759766      456.673296
        16        15        30     1      108.759766      456.673296
        16        17        20     1      124.759583      502.766693
        16        17        33     1      115.070114      461.977609
        17        20        19     1      119.907143      732.898568
        17        20        31     1      120.893105      435.016901
        17        33        32     1      118.639671      750.699976
        17        33        34     1      122.054665      490.901450
        18        19        20     1      120.985123      676.416547
        18        19        42     1      120.250893      440.489536
        18        32        33     1      119.276062      748.150159
        18        32        37     1      121.849464      433.121537
        19        18        32     1      120.161377      576.423314
        19        18        43     1      120.729111      441.885266
        19        20        31     1      119.268784      446.130300
        20        17        33     1      120.418556      547.932965
        20        19        42     1      118.739914      440.527075
        25        13        26     1      106.906784      355.746171
        27        14        28     1      107.037109      359.461820
        29        15        30     1      108.062378      344.404310
        32        18        43     1      119.087891      431.442153
        32        33        34     1      119.236145      766.215557
        32        37        36     1      120.870773      597.151211
        32        37        41     1      118.869949      429.537563
        33        32        37     1      118.749863      751.574686
        33        34        35     1      120.646530      615.206266
        33        34        38     1      118.965553      422.804513
        34        35        36     1      120.280899      693.560949
        34        35        39     1      120.042076      443.845878
        35        34        38     1      120.297569      430.608430
        35        36        37     1      120.101517      691.635834
        35        36        40     1      119.701599      442.982277
        36        35        39     1      119.687965      445.462792
        36        37        41     1      120.361694      440.939723
        37        36        40     1      120.194534      439.502239

[ dihedrals ] ; propers for gromacs 4.5 or higher, use funct 9
;       ai        aj        ak        al funct           phase               k        pn
         1         2         4         5     9        0.000000       -0.333777         1
         1         2         4         5     9      180.000000        4.673220         2
         1         2         4         5     9        0.000000        0.217723         3
         1         2         4         5     9      180.000000        0.340443         4
         1         2         4        12     9        0.000000       -0.272409         1
         1         2         4        12     9      180.000000        2.096388         2
         1         2         4        12     9        0.000000       -0.134157         3
         1         2         4        12     9      180.000000        0.140800         4
         2         4         5         6     9        0.000000       -0.908406         1
         2         4         5         6     9      180.000000       10.338113         2
         2         4         5         6     9        0.000000       -0.382961         3
         2         4         5         6     9      180.000000       -0.030620         4
         2         4        12        11     9        0.000000       -0.319356         1
         2         4        12        11     9      180.000000       18.154293         2
         2         4        12        11     9        0.000000       -1.053389         3
         2         4        12        11     9      180.000000       -1.047443         4
         2         4        12        13     9        0.000000        0.099529         1
         2         4        12        13     9      180.000000       16.947619         2
         2         4        12        13     9        0.000000        0.346319         3
         2         4        12        13     9      180.000000       -1.007972         4
         3         2         4         5     9        0.000000       -0.333777         1
         3         2         4         5     9      180.000000        4.673220         2
         3         2         4         5     9        0.000000        0.217723         3
         3         2         4         5     9      180.000000        0.340443         4
         3         2         4        12     9        0.000000       -0.272409         1
         3         2         4        12     9      180.000000        2.096388         2
         3         2         4        12     9        0.000000       -0.134157         3
         3         2         4        12     9      180.000000        0.140800         4
         4         5         6         7     9        0.000000       -0.650936         1
         4         5         6         7     9      180.000000        6.632275         2
         4         5         6         7     9        0.000000       -0.392790         3
         4         5         6         7     9      180.000000        0.330036         4
         4         5         6        11     9        0.000000       -0.455837         1
         4         5         6        11     9      180.000000       20.558399         2
         4         5         6        11     9        0.000000       -5.483331         3
         4         5         6        11     9      180.000000       -0.576939         4
         4        12        11         6     9        0.000000        0.103139         1
         4        12        11         6     9      180.000000       18.466000         2
         4        12        11         6     9        0.000000       -4.785344         3
         4        12        11         6     9      180.000000       -0.152680         4
         4        12        11        10     9        0.000000       -0.020907         1
         4        12        11        10     9      180.000000        4.926937         2
         4        12        11        10     9        0.000000       -0.750022         3
         4        12        11        10     9      180.000000        0.392788         4
         4        12        13        14     9        0.000000       -2.081729         1
         4        12        13        14     9      180.000000        0.034710         2
         4        12        13        14     9        0.000000       -0.039252         3
         4        12        13        14     9      180.000000       -0.019366         4
         4        12        13        25     9        0.000000        0.153958         1
         4        12        13        25     9      180.000000       -0.008813         2
         4        12        13        25     9        0.000000       -0.523330         3
         4        12        13        25     9      180.000000        0.123732         4
         4        12        13        26     9        0.000000        0.153958         1
         4        12        13        26     9      180.000000       -0.008813         2
         4        12        13        26     9        0.000000       -0.523330         3
         4        12        13        26     9      180.000000        0.123732         4
         5         4        12        11     9        0.000000       -0.195975         1
         5         4        12        11     9      180.000000       30.271789         2
         5         4        12        11     9        0.000000       -4.469685         3
         5         4        12        11     9      180.000000       -1.069944         4
         5         4        12        13     9        0.000000        0.397674         1
         5         4        12        13     9      180.000000       21.812330         2
         5         4        12        13     9        0.000000        0.212516         3
         5         4        12        13     9      180.000000       -1.438895         4
         5         6         7         8     9        0.000000       -0.137610         1
         5         6         7         8     9      180.000000       13.170373         2
         5         6         7         8     9        0.000000       -0.289167         3
         5         6         7         8     9      180.000000       -0.222000         4
         5         6         7        21     9        0.000000       -0.110969         1
         5         6         7        21     9      180.000000       14.602071         2
         5         6         7        21     9        0.000000        0.120780         3
         5         6         7        21     9      180.000000       -0.469756         4
         5         6        11        10     9        0.000000        0.416939         1
         5         6        11        10     9      180.000000       11.641773         2
         5         6        11        10     9        0.000000       -1.022199         3
         5         6        11        10     9      180.000000       -0.128045         4
         5         6        11        12     9        0.000000       -0.277182         1
         5         6        11        12     9      180.000000       15.923707         2
         5         6        11        12     9        0.000000       -3.603107         3
         5         6        11        12     9      180.000000       -0.475908         4
         6         5         4        12     9        0.000000       -0.077257         1
         6         5         4        12     9      180.000000       22.134794         2
         6         5         4        12     9        0.000000       -4.613324         3
         6         5         4        12     9      180.000000       -0.362167         4
         6         7         8         9     9        0.000000       -0.264382         1
         6         7         8         9     9      180.000000       19.397376         2
         6         7         8         9     9        0.000000       -1.549024         3
         6         7         8         9     9      180.000000       -0.403326         4
         6         7         8        22     9        0.000000        0.028757         1
         6         7         8        22     9      180.000000       14.657768         2
         6         7         8        22     9        0.000000       -0.506841         3
         6         7         8        22     9      180.000000        0.050915         4
         6        11        10         9     9        0.000000       -0.069380         1
         6        11        10         9     9      180.000000       18.916013         2
         6        11        10         9     9        0.000000       -1.529645         3
         6        11        10         9     9      180.000000       -0.406917         4
         6        11        10        24     9        0.000000        0.235995         1
         6        11        10        24     9      180.000000       13.494570         2
         6        11        10        24     9        0.000000       -0.210767         3
         6        11        10        24     9      180.000000        0.017401         4
         6        11        12        13     9        0.000000        0.842665         1
         6        11        12        13     9      180.000000       12.289653         2
         6        11        12        13     9        0.000000        0.624128         3
         6        11        12        13     9      180.000000       -0.359997         4
         7         6        11        10     9        0.000000        0.020657         1
         7         6        11        10     9      180.000000       11.698588         2
         7         6        11        10     9        0.000000       -1.431046         3
         7         6        11        10     9      180.000000       -0.137082         4
         7         6        11        12     9        0.000000       -0.077105         1
         7         6        11        12     9      180.000000       12.227802         2
         7         6        11        12     9        0.000000       -2.188910         3
         7         6        11        12     9      180.000000       -0.146774         4
         7         8         9        10     9        0.000000       -0.018770         1
         7         8         9        10     9      180.000000       17.418603         2
         7         8         9        10     9        0.000000       -1.403597         3
         7         8         9        10     9      180.000000       -0.413857         4
         7         8         9        23     9        0.000000        0.108661         1
         7         8         9        23     9      180.000000       13.339934         2
         7         8         9        23     9        0.000000       -0.534801         3
         7         8         9        23     9      180.000000        0.112523         4
         8         7         6        11     9        0.000000       -0.001518         1
         8         7         6        11     9      180.000000       15.512581         2
         8         7         6        11     9        0.000000       -1.043964         3
         8         7         6        11     9      180.000000       -0.271360         4
         8         9        10        11     9        0.000000       -0.213681         1
         8         9        10        11     9      180.000000       20.954750         2
         8         9        10        11     9        0.000000       -1.794992         3
         8         9        10        11     9      180.000000       -0.544991         4
         8         9        10        24     9        0.000000       -0.000916         1
         8         9        10        24     9      180.000000       15.573755         2
         8         9        10        24     9        0.000000       -0.569571         3
         8         9        10        24     9      180.000000        0.058734         4
         9         8         7        21     9        0.000000        0.506844         1
         9         8         7        21     9      180.000000       20.641165         2
         9         8         7        21     9        0.000000        0.320662         3
         9         8         7        21     9      180.000000       -0.601006         4
         9        10        11        12     9        0.000000       -0.201814         1
         9        10        11        12     9      180.000000       14.941924         2
         9        10        11        12     9        0.000000       -1.049462         3
         9        10        11        12     9      180.000000       -0.257862         4
        10         9         8        22     9        0.000000        0.041217         1
        10         9         8        22     9      180.000000       13.415987         2
        10         9         8        22     9        0.000000       -0.767715         3
        10         9         8        22     9      180.000000        0.163906         4
        10        11        12        13     9        0.000000       -0.453658         1
        10        11        12        13     9      180.000000        8.094463         2
        10        11        12        13     9        0.000000        0.183946         3
        10        11        12        13     9      180.000000        0.021498         4
        11         6         7        21     9        0.000000        0.279966         1
        11         6         7        21     9      180.000000       16.084480         2
        11         6         7        21     9        0.000000        0.346730         3
        11         6         7        21     9      180.000000       -0.587144         4
        11        10         9        23     9        0.000000       -0.011225         1
        11        10         9        23     9      180.000000       16.030103         2
        11        10         9        23     9        0.000000       -0.668746         3
        11        10         9        23     9      180.000000       -0.093454         4
        11        12        13        14     9        0.000000       -1.345633         1
        11        12        13        14     9      180.000000        0.060282         2
        11        12        13        14     9        0.000000        0.186759         3
        11        12        13        14     9      180.000000        0.055409         4
        11        12        13        25     9        0.000000        0.200255         1
        11        12        13        25     9      180.000000        0.089682         2
        11        12        13        25     9        0.000000        0.242354         3
        11        12        13        25     9      180.000000        0.118025         4
        11        12        13        26     9        0.000000        0.200255         1
        11        12        13        26     9      180.000000        0.089682         2
        11        12        13        26     9        0.000000        0.242354         3
        11        12        13        26     9      180.000000        0.118025         4
        12        11        10        24     9        0.000000       -0.038056         1
        12        11        10        24     9      180.000000       10.857310         2
        12        11        10        24     9        0.000000       -0.326643         3
        12        11        10        24     9      180.000000        0.121580         4
        12        13        14        15     9        0.000000       -0.812278         1
        12        13        14        15     9      180.000000       -0.051628         2
        12        13        14        15     9        0.000000        0.412917         3
        12        13        14        15     9      180.000000       -0.025961         4
        12        13        14        27     9        0.000000        0.101104         1
        12        13        14        27     9      180.000000        0.023709         2
        12        13        14        27     9        0.000000        0.582616         3
        12        13        14        27     9      180.000000       -0.002819         4
        12        13        14        28     9        0.000000        0.101104         1
        12        13        14        28     9      180.000000        0.023709         2
        12        13        14        28     9        0.000000        0.582616         3
        12        13        14        28     9      180.000000       -0.002819         4
        13        14        15        16     9        0.000000       -1.088634         1
        13        14        15        16     9      180.000000       -0.227499         2
        13        14        15        16     9        0.000000        0.474668         3
        13        14        15        16     9      180.000000       -0.004311         4
        13        14        15        29     9        0.000000        0.004546         1
        13        14        15        29     9      180.000000        0.021583         2
        13        14        15        29     9        0.000000        0.647721         3
        13        14        15        29     9      180.000000        0.052576         4
        13        14        15        30     9        0.000000        0.004546         1
        13        14        15        30     9      180.000000        0.021583         2
        13        14        15        30     9        0.000000        0.647721         3
        13        14        15        30     9      180.000000        0.052576         4
        14        15        16        17     9        0.000000        0.208660         1
        14        15        16        17     9      180.000000        0.281085         2
        14        15        16        17     9        0.000000        0.675703         3
        14        15        16        17     9      180.000000        0.032974         4
        15        14        13        25     9        0.000000       -0.133536         1
        15        14        13        25     9      180.000000        0.062025         2
        15        14        13        25     9        0.000000        0.478406         3
        15        14        13        25     9      180.000000        0.030494         4
        15        14        13        26     9        0.000000       -0.133536         1
        15        14        13        26     9      180.000000        0.062025         2
        15        14        13        26     9        0.000000        0.478406         3
        15        14        13        26     9      180.000000        0.030494         4
        15        16        17        20     9        0.000000        0.989666         1
        15        16        17        20     9      180.000000        4.991141         2
        15        16        17        20     9        0.000000       -0.081631         3
        15        16        17        20     9      180.000000        0.346891         4
        15        16        17        33     9        0.000000       -0.998036         1
        15        16        17        33     9      180.000000        5.061945         2
        15        16        17        33     9        0.000000        0.142279         3
        15        16        17        33     9      180.000000        0.368076         4
        16        15        14        27     9        0.000000        0.037616         1
        16        15        14        27     9      180.000000        0.152896         2
        16        15        14        27     9        0.000000        0.478918         3
        16        15        14        27     9      180.000000        0.070323         4
        16        15        14        28     9        0.000000        0.037616         1
        16        15        14        28     9      180.000000        0.152896         2
        16        15        14        28     9        0.000000        0.478918         3
        16        15        14        28     9      180.000000        0.070323         4
        16        17        20        19     9        0.000000        0.481623         1
        16        17        20        19     9      180.000000       20.418200         2
        16        17        20        19     9        0.000000        0.590451         3
        16        17        20        19     9      180.000000       -0.565751         4
        16        17        20        31     9        0.000000        0.138150         1
        16        17        20        31     9      180.000000       15.086427         2
        16        17        20        31     9        0.000000        0.139751         3
        16        17        20        31     9      180.000000        0.208328         4
        16        17        33        32     9        0.000000       -0.005735         1
        16        17        33        32     9      180.000000       14.529224         2
        16        17        33        32     9        0.000000        0.354820         3
        16        17        33        32     9      180.000000       -0.263437         4
        16        17        33        34     9        0.000000        0.020024         1
        16        17        33        34     9      180.000000       13.418359         2
        16        17        33        34     9        0.000000        0.051952         3
        16        17        33        34     9      180.000000        0.001094         4
        17        16        15        29     9        0.000000       -0.242316         1
        17        16        15        29     9      180.000000       -0.036056         2
        17        16        15        29     9        0.000000        0.872445         3
        17        16        15        29     9      180.000000       -0.051326         4
        17        16        15        30     9        0.000000       -0.242316         1
        17        16        15        30     9      180.000000       -0.036056         2
        17        16        15        30     9        0.000000        0.872445         3
        17        16        15        30     9      180.000000       -0.051326         4
        17        20        19        18     9        0.000000        0.073909         1
        17        20        19        18     9      180.000000       16.277140         2
        17        20        19        18     9        0.000000       -1.586820         3
        17        20        19        18     9      180.000000       -0.324542         4
        17        20        19        42     9        0.000000        0.158752         1
        17        20        19        42     9      180.000000       13.357421         2
        17        20        19        42     9        0.000000       -0.573040         3
        17        20        19        42     9      180.000000        0.048496         4
        17        33        32        18     9        0.000000        0.015971         1
        17        33        32        18     9      180.000000       11.729189         2
        17        33        32        18     9        0.000000       -1.013972         3
        17        33        32        18     9      180.000000       -0.306803         4
        17        33        32        37     9        0.000000       -0.008682         1
        17        33        32        37     9      180.000000       11.879791         2
        17        33        32        37     9        0.000000       -1.056186         3
        17        33        32        37     9      180.000000       -0.310674         4
        17        33        34        35     9        0.000000       -0.312967         1
        17        33        34        35     9      180.000000       14.212606         2
        17        33        34        35     9        0.000000       -0.824081         3
        17        33        34        35     9      180.000000       -0.182291         4
        17        33        34        38     9        0.000000       -0.144606         1
        17        33        34        38     9      180.000000       11.875083         2
        17        33        34        38     9        0.000000       -0.442356         3
        17        33        34        38     9      180.000000       -0.026923         4
        18        19        20        31     9        0.000000        0.084573         1
        18        19        20        31     9      180.000000       12.736335         2
        18        19        20        31     9        0.000000       -0.678469         3
        18        19        20        31     9      180.000000        0.191049         4
        18        32        33        34     9        0.000000        0.185988         1
        18        32        33        34     9      180.000000       10.546775         2
        18        32        33        34     9        0.000000       -0.835993         3
        18        32        33        34     9      180.000000       -0.138826         4
        18        32        37        36     9        0.000000       -0.113436         1
        18        32        37        36     9      180.000000       13.522679         2
        18        32        37        36     9        0.000000       -0.712952         3
        18        32        37        36     9      180.000000       -0.152876         4
        18        32        37        41     9        0.000000       -0.135581         1
        18        32        37        41     9      180.000000       11.330076         2
        18        32        37        41     9        0.000000       -0.463425         3
        18        32        37        41     9      180.000000        0.040441         4
        19        18        32        33     9        0.000000       -0.203816         1
        19        18        32        33     9      180.000000       16.988766         2
        19        18        32        33     9        0.000000       -1.304661         3
        19        18        32        33     9      180.000000       -0.352037         4
        19        18        32        37     9        0.000000       -0.137366         1
        19        18        32        37     9      180.000000       13.827414         2
        19        18        32        37     9        0.000000       -0.785596         3
        19        18        32        37     9      180.000000       -0.164843         4
        19        20        17        33     9        0.000000       -0.077092         1
        19        20        17        33     9      180.000000       18.430114         2
        19        20        17        33     9        0.000000       -1.134210         3
        19        20        17        33     9      180.000000       -0.421492         4
        20        17        33        32     9        0.000000       -0.250198         1
        20        17        33        32     9      180.000000       12.049972         2
        20        17        33        32     9        0.000000       -0.530517         3
        20        17        33        32     9      180.000000       -0.100159         4
        20        17        33        34     9        0.000000       -0.280769         1
        20        17        33        34     9      180.000000        9.445297         2
        20        17        33        34     9        0.000000       -0.353382         3
        20        17        33        34     9      180.000000        0.027219         4
        20        19        18        32     9        0.000000       -0.158612         1
        20        19        18        32     9      180.000000       20.438881         2
        20        19        18        32     9        0.000000       -1.773579         3
        20        19        18        32     9      180.000000       -0.436959         4
        20        19        18        43     9        0.000000        0.054439         1
        20        19        18        43     9      180.000000       16.362962         2
        20        19        18        43     9        0.000000       -0.503223         3
        20        19        18        43     9      180.000000       -0.018809         4
        21         7         8        22     9        0.000000        0.194458         1
        21         7         8        22     9      180.000000       14.303348         2
        21         7         8        22     9        0.000000       -0.002714         3
        21         7         8        22     9      180.000000        0.266971         4
        22         8         9        23     9        0.000000       -0.216053         1
        22         8         9        23     9      180.000000       10.952359         2
        22         8         9        23     9        0.000000       -0.607141         3
        22         8         9        23     9      180.000000        0.183831         4
        23         9        10        24     9        0.000000       -0.195989         1
        23         9        10        24     9      180.000000       12.616296         2
        23         9        10        24     9        0.000000       -0.727013         3
        23         9        10        24     9      180.000000        0.292946         4
        25        13        14        27     9        0.000000        0.009633         1
        25        13        14        27     9      180.000000        0.057775         2
        25        13        14        27     9        0.000000        0.610450         3
        25        13        14        27     9      180.000000       -0.007068         4
        25        13        14        28     9        0.000000        0.009633         1
        25        13        14        28     9      180.000000        0.057775         2
        25        13        14        28     9        0.000000        0.610450         3
        25        13        14        28     9      180.000000       -0.007068         4
        26        13        14        27     9        0.000000        0.009633         1
        26        13        14        27     9      180.000000        0.057775         2
        26        13        14        27     9        0.000000        0.610450         3
        26        13        14        27     9      180.000000       -0.007068         4
        26        13        14        28     9        0.000000        0.009633         1
        26        13        14        28     9      180.000000        0.057775         2
        26        13        14        28     9        0.000000        0.610450         3
        26        13        14        28     9      180.000000       -0.007068         4
        27        14        15        29     9        0.000000       -0.009834         1
        27        14        15        29     9      180.000000       -0.017276         2
        27        14        15        29     9        0.000000        0.668391         3
        27        14        15        29     9      180.000000       -0.049320         4
        27        14        15        30     9        0.000000       -0.009834         1
        27        14        15        30     9      180.000000       -0.017276         2
        27        14        15        30     9        0.000000        0.668391         3
        27        14        15        30     9      180.000000       -0.049320         4
        28        14        15        29     9        0.000000       -0.009834         1
        28        14        15        29     9      180.000000       -0.017276         2
        28        14        15        29     9        0.000000        0.668391         3
        28        14        15        29     9      180.000000       -0.049320         4
        28        14        15        30     9        0.000000       -0.009834         1
        28        14        15        30     9      180.000000       -0.017276         2
        28        14        15        30     9        0.000000        0.668391         3
        28        14        15        30     9      180.000000       -0.049320         4
        31        20        17        33     9        0.000000       -0.055542         1
        31        20        17        33     9      180.000000       13.881861         2
        31        20        17        33     9        0.000000       -0.474494         3
        31        20        17        33     9      180.000000        0.056181         4
        31        20        19        42     9        0.000000       -0.134258         1
        31        20        19        42     9      180.000000       10.906566         2
        31        20        19        42     9        0.000000       -0.689153         3
        31        20        19        42     9      180.000000        0.149985         4
        32        18        19        42     9        0.000000        0.053465         1
        32        18        19        42     9      180.000000       15.656868         2
        32        18        19        42     9        0.000000       -0.658012         3
        32        18        19        42     9      180.000000        0.055312         4
        32        33        34        35     9        0.000000       -0.264600         1
        32        33        34        35     9      180.000000       16.097750         2
        32        33        34        35     9        0.000000       -1.038734         3
        32        33        34        35     9      180.000000       -0.273847         4
        32        33        34        38     9        0.000000       -0.124298         1
        32        33        34        38     9      180.000000       12.047774         2
        32        33        34        38     9        0.000000       -0.161683         3
        32        33        34        38     9      180.000000        0.012896         4
        32        37        36        35     9        0.000000       -0.116445         1
        32        37        36        35     9      180.000000       20.603116         2
        32        37        36        35     9        0.000000       -1.645623         3
        32        37        36        35     9      180.000000       -0.477479         4
        32        37        36        40     9        0.000000        0.017994         1
        32        37        36        40     9      180.000000       15.819625         2
        32        37        36        40     9        0.000000       -0.633506         3
        32        37        36        40     9      180.000000        0.042057         4
        33        32        18        43     9        0.000000       -0.078717         1
        33        32        18        43     9      180.000000       12.183403         2
        33        32        18        43     9        0.000000       -0.195216         3
        33        32        18        43     9      180.000000       -0.048241         4
        33        32        37        36     9        0.000000       -0.184832         1
        33        32        37        36     9      180.000000       16.596924         2
        33        32        37        36     9        0.000000       -1.231312         3
        33        32        37        36     9      180.000000       -0.332603         4
        33        32        37        41     9        0.000000       -0.106007         1
        33        32        37        41     9      180.000000       12.234859         2
        33        32        37        41     9        0.000000       -0.158135         3
        33        32        37        41     9      180.000000       -0.044648         4
        33        34        35        36     9        0.000000       -0.244726         1
        33        34        35        36     9      180.000000       20.988042         2
        33        34        35        36     9        0.000000       -1.925589         3
        33        34        35        36     9      180.000000       -0.436055         4
        33        34        35        39     9        0.000000       -0.033270         1
        33        34        35        39     9      180.000000       16.238813         2
        33        34        35        39     9        0.000000       -0.722051         3
        33        34        35        39     9      180.000000       -0.017323         4
        34        33        32        37     9        0.000000        0.158516         1
        34        33        32        37     9      180.000000       10.787348         2
        34        33        32        37     9        0.000000       -0.883838         3
        34        33        32        37     9      180.000000       -0.164123         4
        34        35        36        37     9        0.000000        0.085956         1
        34        35        36        37     9      180.000000       16.001228         2
        34        35        36        37     9        0.000000       -1.385545         3
        34        35        36        37     9      180.000000       -0.264925         4
        34        35        36        40     9        0.000000        0.012593         1
        34        35        36        40     9      180.000000       12.768933         2
        34        35        36        40     9        0.000000       -0.653582         3
        34        35        36        40     9      180.000000        0.100989         4
        35        36        37        41     9        0.000000       -0.005467         1
        35        36        37        41     9      180.000000       16.271174         2
        35        36        37        41     9        0.000000       -0.454004         3
        35        36        37        41     9      180.000000        0.071995         4
        36        35        34        38     9        0.000000        0.009681         1
        36        35        34        38     9      180.000000       16.116137         2
        36        35        34        38     9        0.000000       -0.536783         3
        36        35        34        38     9      180.000000        0.113141         4
        37        32        18        43     9        0.000000       -0.101057         1
        37        32        18        43     9      180.000000       11.270216         2
        37        32        18        43     9        0.000000       -0.481052         3
        37        32        18        43     9      180.000000        0.029920         4
        37        36        35        39     9        0.000000        0.009393         1
        37        36        35        39     9      180.000000       12.831087         2
        37        36        35        39     9        0.000000       -0.625437         3
        37        36        35        39     9      180.000000        0.087821         4
        38        34        35        39     9        0.000000       -0.151717         1
        38        34        35        39     9      180.000000       12.624105         2
        38        34        35        39     9        0.000000       -0.668524         3
        38        34        35        39     9      180.000000        0.325215         4
        39        35        36        40     9        0.000000       -0.150958         1
        39        35        36        40     9      180.000000       10.356311         2
        39        35        36        40     9        0.000000       -0.405848         3
        39        35        36        40     9      180.000000        0.128684         4
        40        36        37        41     9        0.000000       -0.103569         1
        40        36        37        41     9      180.000000       12.649581         2
        40        36        37        41     9        0.000000       -0.581061         3
        40        36        37        41     9      180.000000        0.284283         4
        42        19        18        43     9        0.000000       -0.107744         1
        42        19        18        43     9      180.000000       12.551764         2
        42        19        18        43     9        0.000000       -0.684442         3
        42        19        18        43     9      180.000000        0.320552         4

[ dihedrals ] ; impropers
;       ai        aj        ak        al funct           phase               k        pn
         2         1         3         4     4      180.000000       27.893333         2
         2         3         4         1     4      180.000000       27.893333         2
         2         4         1         3     4      180.000000       27.893333         2

[ pairs ]
;       ai        aj funct
         1         5     1
         1        12     1
         2         6     1
         2        11     1
         2        13     1
         3         5     1
         3        12     1
         4         7     1
         4        10     1
         4        14     1
         4        25     1
         4        26     1
         5         8     1
         5        10     1
         5        13     1
         5        21     1
         6         9     1
         6        13     1
         6        22     1
         6        24     1
         7        10     1
         7        12     1
         7        23     1
         8        11     1
         8        24     1
         9        12     1
         9        21     1
        10        13     1
        10        22     1
        11        14     1
        11        21     1
        11        23     1
        11        25     1
        11        26     1
        12        15     1
        12        24     1
        12        27     1
        12        28     1
        13        16     1
        13        29     1
        13        30     1
        14        17     1
        15        20     1
        15        25     1
        15        26     1
        15        33     1
        16        19     1
        16        27     1
        16        28     1
        16        31     1
        16        32     1
        16        34     1
        17        18     1
        17        29     1
        17        30     1
        17        35     1
        17        37     1
        17        38     1
        17        42     1
        18        31     1
        18        34     1
        18        36     1
        18        41     1
        19        33     1
        19        37     1
        20        32     1
        20        34     1
        20        43     1
        21        22     1
        22        23     1
        23        24     1
        25        27     1
        25        28     1
        26        27     1
        26        28     1
        27        29     1
        27        30     1
        28        29     1
        28        30     1
        31        33     1
        31        42     1
        32        35     1
        32        38     1
        32        40     1
        32        42     1
        33        36     1
        33        39     1
        33        41     1
        33        43     1
        34        37     1
        34        40     1
        35        41     1
        36        38     1
        37        39     1
        37        43     1
        38        39     1
        39        40     1
        40        41     1
        42        43     1
