; ITP file created by ByteFF-ML, 2026-02-21 08:20:45.750792

[ atomtypes ]
;name           bonded.type        at.num        mass        charge   ptype           sigma         epsilon
 o0bf                                   8      0.0000       0.00000       A     3.04935e-01     6.11516e-01
 c1bf                                   6      0.0000       0.00000       A     3.31315e-01     4.10798e-01
 o2bf                                   8      0.0000       0.00000       A     3.04935e-01     6.11516e-01
 c3bf                                   6      0.0000       0.00000       A     3.31241e-01     4.10520e-01
 c4bf                                   6      0.0000       0.00000       A     3.31670e-01     4.12139e-01
 c5bf                                   6      0.0000       0.00000       A     3.31415e-01     4.13104e-01
 c6bf                                   6      0.0000       0.00000       A     3.31515e-01     4.12501e-01
 c7bf                                   6      0.0000       0.00000       A     3.31489e-01     4.13005e-01
 c8bf                                   6      0.0000       0.00000       A     3.31528e-01     4.13326e-01
 c9bf                                   6      0.0000       0.00000       A     3.31508e-01     4.11823e-01
 c10bf                                  6      0.0000       0.00000       A     3.31245e-01     4.12739e-01
 c11bf                                  6      0.0000       0.00000       A     3.39792e-01     4.53590e-01
 c12bf                                  6      0.0000       0.00000       A     3.39824e-01     4.50735e-01
 c13bf                                  6      0.0000       0.00000       A     3.39754e-01     4.50898e-01
 o14bf                                  8      0.0000       0.00000       A     3.15651e-01     3.02535e-01
 c15bf                                  6      0.0000       0.00000       A     3.31537e-01     4.12716e-01
 c16bf                                  6      0.0000       0.00000       A     3.31524e-01     4.13117e-01
 c17bf                                  6      0.0000       0.00000       A     3.31486e-01     4.13091e-01
 c18bf                                  6      0.0000       0.00000       A     3.31594e-01     4.13024e-01
 h19bf                                  1      0.0000       0.00000       A     2.62522e-01     6.71004e-02
 h20bf                                  1      0.0000       0.00000       A     2.62437e-01     6.70014e-02
 cl21bf                                17      0.0000       0.00000       A     3.46758e-01     1.10611e+00
 h22bf                                  1      0.0000       0.00000       A     2.62532e-01     6.72376e-02
 h23bf                                  1      0.0000       0.00000       A     2.59659e-01     8.71582e-02
 h24bf                                  1      0.0000       0.00000       A     2.59659e-01     8.71582e-02
 h25bf                                  1      0.0000       0.00000       A     2.60066e-01     8.68629e-02
 h26bf                                  1      0.0000       0.00000       A     2.60066e-01     8.68629e-02
 h27bf                                  1      0.0000       0.00000       A     2.42108e-01     8.76817e-02
 h28bf                                  1      0.0000       0.00000       A     2.42108e-01     8.76817e-02
 h29bf                                  1      0.0000       0.00000       A     2.62519e-01     6.71818e-02
 c30bf                                  6      0.0000       0.00000       A     3.31438e-01     4.12965e-01
 c31bf                                  6      0.0000       0.00000       A     3.31417e-01     4.12957e-01
 c32bf                                  6      0.0000       0.00000       A     3.31506e-01     4.12777e-01
 c33bf                                  6      0.0000       0.00000       A     3.31499e-01     4.12734e-01
 c34bf                                  6      0.0000       0.00000       A     3.31524e-01     4.13114e-01
 c35bf                                  6      0.0000       0.00000       A     3.31510e-01     4.13502e-01
 h36bf                                  1      0.0000       0.00000       A     2.62478e-01     6.75951e-02
 h37bf                                  1      0.0000       0.00000       A     2.62489e-01     6.75504e-02
 h38bf                                  1      0.0000       0.00000       A     2.62489e-01     6.75504e-02
 h39bf                                  1      0.0000       0.00000       A     2.62512e-01     6.75552e-02
 h40bf                                  1      0.0000       0.00000       A     2.62574e-01     6.75281e-02
 h41bf                                  1      0.0000       0.00000       A     2.62512e-01     6.75552e-02
 o42bf                                  8      0.0000       0.00000       A     3.15705e-01     3.04993e-01

[ moleculetype ]
;name             nrexcl
 68_flip               3

[ atoms ]
;       nr            type      resi   res      atom      cgnr      charge          mass ; qtot
         1            o0bf         1   UNL        o0         1    -0.71605       15.9990 ; qtot   -0.716
         2            c1bf         1   UNL        c1         2     0.70094       12.0110 ; qtot   -0.015
         3            o2bf         1   UNL        o2         3    -0.71605       15.9990 ; qtot   -0.731
         4            c3bf         1   UNL        c3         4    -0.00659       12.0110 ; qtot   -0.738
         5            c4bf         1   UNL        c4         5     0.03643       12.0110 ; qtot   -0.701
         6            c5bf         1   UNL        c5         6    -0.10081       12.0110 ; qtot   -0.802
         7            c6bf         1   UNL        c6         7    -0.08123       12.0110 ; qtot   -0.883
         8            c7bf         1   UNL        c7         8     0.10107       12.0110 ; qtot   -0.782
         9            c8bf         1   UNL        c8         9    -0.05597       12.0110 ; qtot   -0.838
        10            c9bf         1   UNL        c9        10    -0.10256       12.0110 ; qtot   -0.941
        11           c10bf         1   UNL       c10        11    -0.19324       12.0110 ; qtot   -1.134
        12           c11bf         1   UNL       c11        12    -0.00652       12.0110 ; qtot   -1.141
        13           c12bf         1   UNL       c12        13    -0.08972       12.0110 ; qtot   -1.230
        14           c13bf         1   UNL       c13        14     0.16302       12.0110 ; qtot   -1.067
        15           o14bf         1   UNL       o14        15    -0.35661       15.9990 ; qtot   -1.424
        16           c15bf         1   UNL       c15        16     0.15056       12.0110 ; qtot   -1.273
        17           c16bf         1   UNL       c16        17    -0.12634       12.0110 ; qtot   -1.400
        18           c17bf         1   UNL       c17        18    -0.07425       12.0110 ; qtot   -1.474
        19           c18bf         1   UNL       c18        19    -0.20031       12.0110 ; qtot   -1.674
        20           h19bf         1   UNL       h19        20     0.13947        1.0080 ; qtot   -1.535
        21           h20bf         1   UNL       h20        21     0.13420        1.0080 ; qtot   -1.401
        22          cl21bf         1   UNL      cl21        22    -0.21498       35.4530 ; qtot   -1.616
        23           h22bf         1   UNL       h22        23     0.14262        1.0080 ; qtot   -1.473
        24           h23bf         1   UNL       h23        24     0.04938        1.0080 ; qtot   -1.424
        25           h24bf         1   UNL       h24        25     0.04938        1.0080 ; qtot   -1.374
        26           h25bf         1   UNL       h25        26     0.05597        1.0080 ; qtot   -1.318
        27           h26bf         1   UNL       h26        27     0.05597        1.0080 ; qtot   -1.262
        28           h27bf         1   UNL       h27        28     0.04594        1.0080 ; qtot   -1.216
        29           h28bf         1   UNL       h28        29     0.04594        1.0080 ; qtot   -1.170
        30           h29bf         1   UNL       h29        30     0.12425        1.0080 ; qtot   -1.046
        31           c30bf         1   UNL       c30        31    -0.01913       12.0110 ; qtot   -1.065
        32           c31bf         1   UNL       c31        32    -0.05616       12.0110 ; qtot   -1.121
        33           c32bf         1   UNL       c32        33    -0.08309       12.0110 ; qtot   -1.204
        34           c33bf         1   UNL       c33        34    -0.11798       12.0110 ; qtot   -1.322
        35           c34bf         1   UNL       c34        35    -0.10337       12.0110 ; qtot   -1.426
        36           c35bf         1   UNL       c35        36    -0.10785       12.0110 ; qtot   -1.534
        37           h36bf         1   UNL       h36        37     0.12259        1.0080 ; qtot   -1.411
        38           h37bf         1   UNL       h37        38     0.11645        1.0080 ; qtot   -1.295
        39           h38bf         1   UNL       h38        39     0.11510        1.0080 ; qtot   -1.180
        40           h39bf         1   UNL       h39        40     0.11419        1.0080 ; qtot   -1.065
        41           h40bf         1   UNL       h40        41     0.11744        1.0080 ; qtot   -0.948
        42           h41bf         1   UNL       h41        42     0.11579        1.0080 ; qtot   -0.832
        43           o42bf         1   UNL       o42        43    -0.16789       15.9990 ; qtot   -1.000

[ bonds ]
;       ai        aj funct               r               k
         1         2     1        0.125889   489450.009668
         2         3     1        0.125889   489450.009668
         2         4     1        0.153329   127076.601733
         4        11     1        0.137645   357696.988623
         4        43     1        0.139420   185172.670068
         5         6     1        0.139110   319627.900342
         5        10     1        0.141265   259837.380957
         5        43     1        0.135921   254927.488623
         6         7     1        0.139722   313508.749268
         6        20     1        0.108475   325256.100488
         7         8     1        0.140686   279665.031104
         7        21     1        0.108427   326127.196826
         8         9     1        0.139123   310550.121924
         8        22     1        0.176189   145443.427075
         9        10     1        0.140692   301626.306738
         9        23     1        0.108399   326124.260059
        10        11     1        0.144484   228059.691553
        11        12     1        0.150395   208873.661279
        12        13     1        0.154256   175432.995312
        12        24     1        0.109423   296092.951416
        12        25     1        0.109423   296092.951416
        13        14     1        0.152482   192710.828931
        13        26     1        0.109513   297828.529980
        13        27     1        0.109513   297828.529980
        14        15     1        0.143585   183492.711328
        14        28     1        0.109622   291623.420996
        14        29     1        0.109622   291623.420996
        15        16     1        0.136880   263000.049805
        16        19     1        0.138388   327644.535254
        16        32     1        0.143216   239978.830908
        17        18     1        0.137744   360046.938965
        17        31     1        0.142250   272881.225684
        17        42     1        0.108642   317826.027441
        18        19     1        0.141680   278367.005371
        18        41     1        0.108615   319669.193848
        19        30     1        0.108351   324498.669824
        31        32     1        0.143188   247084.684814
        31        36     1        0.142264   273010.009326
        32        33     1        0.141965   274220.391699
        33        34     1        0.138176   348945.523389
        33        37     1        0.108502   321068.755127
        34        35     1        0.141767   274309.822656
        34        38     1        0.108610   320314.874121
        35        36     1        0.138000   354661.622266
        35        39     1        0.108630   319777.215820
        36        40     1        0.108689   316406.955811

[ angles ]
;       ai        aj        ak funct           theta             cth
         1         2         3     1      130.721115      694.095441
         1         2         4     1      114.659164      331.250975
         2         4        11     1      132.415527      381.636011
         2         4        43     1      117.149612      476.543050
         3         2         4     1      114.659164      331.250975
         4        11        10     1      106.022240      404.603481
         4        11        12     1      127.566795      408.949386
         4        43         5     1      107.077652      606.586215
         5         6         7     1      117.078613      794.685285
         5         6        20     1      121.418579      438.976462
         5        10         9     1      119.146278      715.627501
         5        10        11     1      106.148338      262.898316
         6         5        10     1      123.162010      601.802859
         6         5        43     1      126.609154      522.148689
         6         7         8     1      120.306107      582.455051
         6         7        21     1      120.288223      418.780216
         7         6        20     1      121.396744      430.731104
         7         8         9     1      122.579208      595.278064
         7         8        22     1      118.387039      391.863177
         8         7        21     1      119.560509      427.663395
         8         9        10     1      117.603317      667.611224
         8         9        23     1      120.791077      410.147907
         9         8        22     1      119.119530      332.818283
         9        10        11     1      134.837128      428.220710
        10         5        43     1      110.225204      172.796260
        10         9        23     1      121.624893      429.544395
        10        11        12     1      126.324280      476.528143
        11         4        43     1      110.744774      237.977306
        11        12        13     1      112.640175      554.364742
        11        12        24     1      108.925247      499.442687
        11        12        25     1      108.925247      499.442687
        12        13        14     1      112.548630      592.913327
        12        13        26     1      109.479385      483.924807
        12        13        27     1      109.479385      483.924807
        13        12        24     1      109.076515      483.776628
        13        12        25     1      109.076515      483.776628
        13        14        15     1      109.365952      625.163249
        13        14        28     1      110.814964      493.941483
        13        14        29     1      110.814964      493.941483
        14        13        26     1      108.790001      510.469866
        14        13        27     1      108.790001      510.469866
        14        15        16     1      118.590530      506.055043
        15        14        28     1      108.759766      456.673296
        15        14        29     1      108.759766      456.673296
        15        16        19     1      124.759583      502.766693
        15        16        32     1      115.070114      461.977609
        16        19        18     1      119.907143      732.898568
        16        19        30     1      120.893105      435.016901
        16        32        31     1      118.639671      750.699976
        16        32        33     1      122.054665      490.901386
        17        18        19     1      120.985123      676.416547
        17        18        41     1      120.250893      440.489536
        17        31        32     1      119.276062      748.150159
        17        31        36     1      121.849464      433.121537
        18        17        31     1      120.161377      576.423314
        18        17        42     1      120.729111      441.885266
        18        19        30     1      119.268784      446.130300
        19        16        32     1      120.418556      547.932965
        19        18        41     1      118.739914      440.527075
        24        12        25     1      107.036659      355.599588
        26        13        27     1      107.023048      359.630237
        28        14        29     1      108.062378      344.404310
        31        17        42     1      119.087891      431.442153
        31        32        33     1      119.236160      766.215557
        31        36        35     1      120.870773      597.151211
        31        36        40     1      118.869949      429.537563
        32        31        36     1      118.749863      751.574686
        32        33        34     1      120.646530      615.206330
        32        33        37     1      118.965553      422.804513
        33        34        35     1      120.280899      693.561013
        33        34        38     1      120.042076      443.845878
        34        33        37     1      120.297569      430.608366
        34        35        36     1      120.101517      691.635834
        34        35        39     1      119.701599      442.982277
        35        34        38     1      119.687965      445.462792
        35        36        40     1      120.361694      440.939723
        36        35        39     1      120.194534      439.502239

[ dihedrals ] ; propers for gromacs 4.5 or higher, use funct 9
;       ai        aj        ak        al funct           phase               k        pn
         1         2         4        11     9        0.000000        0.212949         1
         1         2         4        11     9      180.000000        1.726426         2
         1         2         4        11     9        0.000000       -0.047415         3
         1         2         4        11     9      180.000000       -0.142076         4
         1         2         4        43     9        0.000000       -1.086998         1
         1         2         4        43     9      180.000000        3.163045         2
         1         2         4        43     9        0.000000        0.331381         3
         1         2         4        43     9      180.000000       -0.082392         4
         2         4        11        10     9        0.000000       -0.136994         1
         2         4        11        10     9      180.000000       15.383850         2
         2         4        11        10     9        0.000000       -0.888184         3
         2         4        11        10     9      180.000000       -0.853895         4
         2         4        11        12     9        0.000000        0.045725         1
         2         4        11        12     9      180.000000       12.927597         2
         2         4        11        12     9        0.000000        0.375073         3
         2         4        11        12     9      180.000000       -0.645598         4
         2         4        43         5     9        0.000000        0.201261         1
         2         4        43         5     9      180.000000        5.950869         2
         2         4        43         5     9        0.000000        0.094285         3
         2         4        43         5     9      180.000000        0.081380         4
         3         2         4        11     9        0.000000        0.212949         1
         3         2         4        11     9      180.000000        1.726426         2
         3         2         4        11     9        0.000000       -0.047415         3
         3         2         4        11     9      180.000000       -0.142076         4
         3         2         4        43     9        0.000000       -1.086998         1
         3         2         4        43     9      180.000000        3.163045         2
         3         2         4        43     9        0.000000        0.331381         3
         3         2         4        43     9      180.000000       -0.082392         4
         4        11        10         5     9        0.000000        0.077285         1
         4        11        10         5     9      180.000000       22.929096         2
         4        11        10         5     9        0.000000       -8.217999         3
         4        11        10         5     9      180.000000       -0.084964         4
         4        11        10         9     9        0.000000       -0.878696         1
         4        11        10         9     9      180.000000        4.411908         2
         4        11        10         9     9        0.000000       -1.052786         3
         4        11        10         9     9      180.000000        0.457241         4
         4        11        12        13     9        0.000000       -1.940654         1
         4        11        12        13     9      180.000000        0.294865         2
         4        11        12        13     9        0.000000       -0.128689         3
         4        11        12        13     9      180.000000       -0.012707         4
         4        11        12        24     9        0.000000        0.145582         1
         4        11        12        24     9      180.000000        0.061582         2
         4        11        12        24     9        0.000000       -0.559347         3
         4        11        12        24     9      180.000000        0.143339         4
         4        11        12        25     9        0.000000        0.145582         1
         4        11        12        25     9      180.000000        0.061582         2
         4        11        12        25     9        0.000000       -0.559347         3
         4        11        12        25     9      180.000000        0.143339         4
         4        43         5         6     9        0.000000        0.914138         1
         4        43         5         6     9      180.000000        5.043852         2
         4        43         5         6     9        0.000000       -0.413039         3
         4        43         5         6     9      180.000000        0.298721         4
         4        43         5        10     9        0.000000        0.024225         1
         4        43         5        10     9      180.000000       20.627580         2
         4        43         5        10     9        0.000000       -6.048416         3
         4        43         5        10     9      180.000000       -0.426596         4
         5         6         7         8     9        0.000000       -0.166434         1
         5         6         7         8     9      180.000000       20.517653         2
         5         6         7         8     9        0.000000       -1.475594         3
         5         6         7         8     9      180.000000       -0.481765         4
         5         6         7        21     9        0.000000        0.006504         1
         5         6         7        21     9      180.000000       15.825241         2
         5         6         7        21     9        0.000000       -0.550812         3
         5         6         7        21     9      180.000000       -0.020652         4
         5        10         9         8     9        0.000000       -0.042281         1
         5        10         9         8     9      180.000000       18.375592         2
         5        10         9         8     9        0.000000       -1.949180         3
         5        10         9         8     9      180.000000       -0.401086         4
         5        10         9        23     9        0.000000        0.370728         1
         5        10         9        23     9      180.000000       12.626927         2
         5        10         9        23     9        0.000000       -0.264737         3
         5        10         9        23     9      180.000000       -0.019148         4
         5        10        11        12     9        0.000000        0.838493         1
         5        10        11        12     9      180.000000       12.258553         2
         5        10        11        12     9        0.000000        0.444942         3
         5        10        11        12     9      180.000000       -0.348101         4
         5        43         4        11     9        0.000000        0.197779         1
         5        43         4        11     9      180.000000       22.218498         2
         5        43         4        11     9        0.000000       -4.988801         3
         5        43         4        11     9      180.000000       -0.453754         4
         6         5        10         9     9        0.000000       -0.066113         1
         6         5        10         9     9      180.000000       11.115172         2
         6         5        10         9     9        0.000000       -1.557904         3
         6         5        10         9     9      180.000000        0.022175         4
         6         5        10        11     9        0.000000        0.091565         1
         6         5        10        11     9      180.000000       11.132951         2
         6         5        10        11     9        0.000000       -2.520405         3
         6         5        10        11     9      180.000000        0.115510         4
         6         7         8         9     9        0.000000       -0.092808         1
         6         7         8         9     9      180.000000       16.746051         2
         6         7         8         9     9        0.000000       -1.244810         3
         6         7         8         9     9      180.000000       -0.282581         4
         6         7         8        22     9        0.000000        0.319876         1
         6         7         8        22     9      180.000000       18.310008         2
         6         7         8        22     9        0.000000        0.242077         3
         6         7         8        22     9      180.000000       -0.525805         4
         7         6         5        10     9        0.000000       -0.302565         1
         7         6         5        10     9      180.000000       17.389136         2
         7         6         5        10     9        0.000000       -1.808330         3
         7         6         5        10     9      180.000000       -0.328504         4
         7         6         5        43     9        0.000000        0.354275         1
         7         6         5        43     9      180.000000       17.448745         2
         7         6         5        43     9        0.000000       -0.038210         3
         7         6         5        43     9      180.000000       -0.290377         4
         7         8         9        10     9        0.000000       -0.181103         1
         7         8         9        10     9      180.000000       19.948836         2
         7         8         9        10     9        0.000000       -1.450698         3
         7         8         9        10     9      180.000000       -0.471660         4
         7         8         9        23     9        0.000000        0.021794         1
         7         8         9        23     9      180.000000       13.838932         2
         7         8         9        23     9        0.000000       -0.586435         3
         7         8         9        23     9      180.000000        0.112188         4
         8         7         6        20     9        0.000000        0.111998         1
         8         7         6        20     9      180.000000       14.226290         2
         8         7         6        20     9        0.000000       -0.421791         3
         8         7         6        20     9      180.000000        0.131061         4
         8         9        10        11     9        0.000000       -0.268042         1
         8         9        10        11     9      180.000000       13.641746         2
         8         9        10        11     9        0.000000       -0.893180         3
         8         9        10        11     9      180.000000       -0.184434         4
         9         8         7        21     9        0.000000       -0.058858         1
         9         8         7        21     9      180.000000       12.928034         2
         9         8         7        21     9        0.000000       -0.634154         3
         9         8         7        21     9      180.000000        0.123015         4
         9        10         5        43     9        0.000000        0.346289         1
         9        10         5        43     9      180.000000       11.870372         2
         9        10         5        43     9        0.000000       -1.752030         3
         9        10         5        43     9      180.000000        0.081127         4
         9        10        11        12     9        0.000000       -0.352900         1
         9        10        11        12     9      180.000000        6.060536         2
         9        10        11        12     9        0.000000        0.246451         3
         9        10        11        12     9      180.000000        0.125645         4
        10         5         6        20     9        0.000000        0.077308         1
        10         5         6        20     9      180.000000       11.856994         2
        10         5         6        20     9        0.000000       -0.547015         3
        10         5         6        20     9      180.000000        0.020355         4
        10         9         8        22     9        0.000000        0.101655         1
        10         9         8        22     9      180.000000       22.833589         2
        10         9         8        22     9        0.000000        0.239534         3
        10         9         8        22     9      180.000000       -1.075151         4
        10        11         4        43     9        0.000000       -0.421449         1
        10        11         4        43     9      180.000000       33.993524         2
        10        11         4        43     9        0.000000       -6.402226         3
        10        11         4        43     9      180.000000       -0.328859         4
        10        11        12        13     9        0.000000       -0.314658         1
        10        11        12        13     9      180.000000       -0.091817         2
        10        11        12        13     9        0.000000        0.286934         3
        10        11        12        13     9      180.000000        0.029392         4
        10        11        12        24     9        0.000000        0.043835         1
        10        11        12        24     9      180.000000        0.158355         2
        10        11        12        24     9        0.000000        0.347579         3
        10        11        12        24     9      180.000000        0.079339         4
        10        11        12        25     9        0.000000        0.043835         1
        10        11        12        25     9      180.000000        0.158355         2
        10        11        12        25     9        0.000000        0.347579         3
        10        11        12        25     9      180.000000        0.079339         4
        11        10         5        43     9        0.000000       -0.066430         1
        11        10         5        43     9      180.000000       20.576376         2
        11        10         5        43     9        0.000000       -6.621312         3
        11        10         5        43     9      180.000000       -0.133382         4
        11        10         9        23     9        0.000000        0.029645         1
        11        10         9        23     9      180.000000       10.224789         2
        11        10         9        23     9        0.000000       -0.158641         3
        11        10         9        23     9      180.000000        0.129437         4
        11        12        13        14     9        0.000000       -0.716162         1
        11        12        13        14     9      180.000000       -0.171354         2
        11        12        13        14     9        0.000000        0.423777         3
        11        12        13        14     9      180.000000        0.006531         4
        11        12        13        26     9        0.000000        0.070807         1
        11        12        13        26     9      180.000000        0.016696         2
        11        12        13        26     9        0.000000        0.574728         3
        11        12        13        26     9      180.000000        0.018934         4
        11        12        13        27     9        0.000000        0.070807         1
        11        12        13        27     9      180.000000        0.016696         2
        11        12        13        27     9        0.000000        0.574728         3
        11        12        13        27     9      180.000000        0.018934         4
        12        11         4        43     9        0.000000        0.737282         1
        12        11         4        43     9      180.000000       21.026737         2
        12        11         4        43     9        0.000000        0.607280         3
        12        11         4        43     9      180.000000       -1.466273         4
        12        13        14        15     9        0.000000       -1.354286         1
        12        13        14        15     9      180.000000       -0.331588         2
        12        13        14        15     9        0.000000        0.469976         3
        12        13        14        15     9      180.000000        0.007309         4
        12        13        14        28     9        0.000000        0.010346         1
        12        13        14        28     9      180.000000        0.030794         2
        12        13        14        28     9        0.000000        0.658931         3
        12        13        14        28     9      180.000000        0.056909         4
        12        13        14        29     9        0.000000        0.010346         1
        12        13        14        29     9      180.000000        0.030794         2
        12        13        14        29     9        0.000000        0.658931         3
        12        13        14        29     9      180.000000        0.056909         4
        13        14        15        16     9        0.000000        0.180434         1
        13        14        15        16     9      180.000000        0.289102         2
        13        14        15        16     9        0.000000        0.673648         3
        13        14        15        16     9      180.000000        0.032566         4
        14        13        12        24     9        0.000000       -0.140484         1
        14        13        12        24     9      180.000000        0.057203         2
        14        13        12        24     9        0.000000        0.476457         3
        14        13        12        24     9      180.000000        0.026144         4
        14        13        12        25     9        0.000000       -0.140484         1
        14        13        12        25     9      180.000000        0.057203         2
        14        13        12        25     9        0.000000        0.476457         3
        14        13        12        25     9      180.000000        0.026144         4
        14        15        16        19     9        0.000000        0.989666         1
        14        15        16        19     9      180.000000        4.991141         2
        14        15        16        19     9        0.000000       -0.081631         3
        14        15        16        19     9      180.000000        0.346891         4
        14        15        16        32     9        0.000000       -0.998036         1
        14        15        16        32     9      180.000000        5.061945         2
        14        15        16        32     9        0.000000        0.142279         3
        14        15        16        32     9      180.000000        0.368076         4
        15        14        13        26     9        0.000000        0.034226         1
        15        14        13        26     9      180.000000        0.152122         2
        15        14        13        26     9        0.000000        0.480467         3
        15        14        13        26     9      180.000000        0.071074         4
        15        14        13        27     9        0.000000        0.034226         1
        15        14        13        27     9      180.000000        0.152122         2
        15        14        13        27     9        0.000000        0.480467         3
        15        14        13        27     9      180.000000        0.071074         4
        15        16        19        18     9        0.000000        0.481623         1
        15        16        19        18     9      180.000000       20.418200         2
        15        16        19        18     9        0.000000        0.590451         3
        15        16        19        18     9      180.000000       -0.565751         4
        15        16        19        30     9        0.000000        0.138150         1
        15        16        19        30     9      180.000000       15.086427         2
        15        16        19        30     9        0.000000        0.139751         3
        15        16        19        30     9      180.000000        0.208328         4
        15        16        32        31     9        0.000000       -0.005735         1
        15        16        32        31     9      180.000000       14.529224         2
        15        16        32        31     9        0.000000        0.354820         3
        15        16        32        31     9      180.000000       -0.263437         4
        15        16        32        33     9        0.000000        0.020024         1
        15        16        32        33     9      180.000000       13.418359         2
        15        16        32        33     9        0.000000        0.051952         3
        15        16        32        33     9      180.000000        0.001094         4
        16        15        14        28     9        0.000000       -0.242316         1
        16        15        14        28     9      180.000000       -0.036056         2
        16        15        14        28     9        0.000000        0.872445         3
        16        15        14        28     9      180.000000       -0.051326         4
        16        15        14        29     9        0.000000       -0.242316         1
        16        15        14        29     9      180.000000       -0.036056         2
        16        15        14        29     9        0.000000        0.872445         3
        16        15        14        29     9      180.000000       -0.051326         4
        16        19        18        17     9        0.000000        0.073909         1
        16        19        18        17     9      180.000000       16.277140         2
        16        19        18        17     9        0.000000       -1.586820         3
        16        19        18        17     9      180.000000       -0.324542         4
        16        19        18        41     9        0.000000        0.158752         1
        16        19        18        41     9      180.000000       13.357421         2
        16        19        18        41     9        0.000000       -0.573040         3
        16        19        18        41     9      180.000000        0.048496         4
        16        32        31        17     9        0.000000        0.015971         1
        16        32        31        17     9      180.000000       11.729189         2
        16        32        31        17     9        0.000000       -1.013972         3
        16        32        31        17     9      180.000000       -0.306803         4
        16        32        31        36     9        0.000000       -0.008682         1
        16        32        31        36     9      180.000000       11.879791         2
        16        32        31        36     9        0.000000       -1.056186         3
        16        32        31        36     9      180.000000       -0.310674         4
        16        32        33        34     9        0.000000       -0.312967         1
        16        32        33        34     9      180.000000       14.212609         2
        16        32        33        34     9        0.000000       -0.824081         3
        16        32        33        34     9      180.000000       -0.182291         4
        16        32        33        37     9        0.000000       -0.144605         1
        16        32        33        37     9      180.000000       11.875082         2
        16        32        33        37     9        0.000000       -0.442356         3
        16        32        33        37     9      180.000000       -0.026922         4
        17        18        19        30     9        0.000000        0.084573         1
        17        18        19        30     9      180.000000       12.736335         2
        17        18        19        30     9        0.000000       -0.678469         3
        17        18        19        30     9      180.000000        0.191049         4
        17        31        32        33     9        0.000000        0.185988         1
        17        31        32        33     9      180.000000       10.546775         2
        17        31        32        33     9        0.000000       -0.835992         3
        17        31        32        33     9      180.000000       -0.138827         4
        17        31        36        35     9        0.000000       -0.113436         1
        17        31        36        35     9      180.000000       13.522679         2
        17        31        36        35     9        0.000000       -0.712952         3
        17        31        36        35     9      180.000000       -0.152876         4
        17        31        36        40     9        0.000000       -0.135581         1
        17        31        36        40     9      180.000000       11.330076         2
        17        31        36        40     9        0.000000       -0.463425         3
        17        31        36        40     9      180.000000        0.040441         4
        18        17        31        32     9        0.000000       -0.203816         1
        18        17        31        32     9      180.000000       16.988766         2
        18        17        31        32     9        0.000000       -1.304661         3
        18        17        31        32     9      180.000000       -0.352037         4
        18        17        31        36     9        0.000000       -0.137366         1
        18        17        31        36     9      180.000000       13.827414         2
        18        17        31        36     9        0.000000       -0.785596         3
        18        17        31        36     9      180.000000       -0.164843         4
        18        19        16        32     9        0.000000       -0.077092         1
        18        19        16        32     9      180.000000       18.430114         2
        18        19        16        32     9        0.000000       -1.134210         3
        18        19        16        32     9      180.000000       -0.421492         4
        19        16        32        31     9        0.000000       -0.250198         1
        19        16        32        31     9      180.000000       12.049972         2
        19        16        32        31     9        0.000000       -0.530517         3
        19        16        32        31     9      180.000000       -0.100159         4
        19        16        32        33     9        0.000000       -0.280769         1
        19        16        32        33     9      180.000000        9.445296         2
        19        16        32        33     9        0.000000       -0.353382         3
        19        16        32        33     9      180.000000        0.027219         4
        19        18        17        31     9        0.000000       -0.158612         1
        19        18        17        31     9      180.000000       20.438881         2
        19        18        17        31     9        0.000000       -1.773579         3
        19        18        17        31     9      180.000000       -0.436959         4
        19        18        17        42     9        0.000000        0.054439         1
        19        18        17        42     9      180.000000       16.362962         2
        19        18        17        42     9        0.000000       -0.503223         3
        19        18        17        42     9      180.000000       -0.018809         4
        20         6         5        43     9        0.000000        0.063924         1
        20         6         5        43     9      180.000000       12.300287         2
        20         6         5        43     9        0.000000       -0.132612         3
        20         6         5        43     9      180.000000        0.031469         4
        20         6         7        21     9        0.000000       -0.137653         1
        20         6         7        21     9      180.000000       12.033096         2
        20         6         7        21     9        0.000000       -0.797201         3
        20         6         7        21     9      180.000000        0.256068         4
        21         7         8        22     9        0.000000        0.159137         1
        21         7         8        22     9      180.000000       12.858256         2
        21         7         8        22     9        0.000000       -0.110839         3
        21         7         8        22     9      180.000000        0.228873         4
        22         8         9        23     9        0.000000        0.176857         1
        22         8         9        23     9      180.000000       14.012627         2
        22         8         9        23     9        0.000000       -0.031441         3
        22         8         9        23     9      180.000000        0.265712         4
        24        12        13        26     9        0.000000        0.012559         1
        24        12        13        26     9      180.000000        0.029887         2
        24        12        13        26     9        0.000000        0.616589         3
        24        12        13        26     9      180.000000       -0.012539         4
        24        12        13        27     9        0.000000        0.012559         1
        24        12        13        27     9      180.000000        0.029887         2
        24        12        13        27     9        0.000000        0.616589         3
        24        12        13        27     9      180.000000       -0.012539         4
        25        12        13        26     9        0.000000        0.012559         1
        25        12        13        26     9      180.000000        0.029887         2
        25        12        13        26     9        0.000000        0.616589         3
        25        12        13        26     9      180.000000       -0.012539         4
        25        12        13        27     9        0.000000        0.012559         1
        25        12        13        27     9      180.000000        0.029887         2
        25        12        13        27     9        0.000000        0.616589         3
        25        12        13        27     9      180.000000       -0.012539         4
        26        13        14        28     9        0.000000       -0.009272         1
        26        13        14        28     9      180.000000       -0.015959         2
        26        13        14        28     9        0.000000        0.669171         3
        26        13        14        28     9      180.000000       -0.049453         4
        26        13        14        29     9        0.000000       -0.009272         1
        26        13        14        29     9      180.000000       -0.015959         2
        26        13        14        29     9        0.000000        0.669171         3
        26        13        14        29     9      180.000000       -0.049453         4
        27        13        14        28     9        0.000000       -0.009272         1
        27        13        14        28     9      180.000000       -0.015959         2
        27        13        14        28     9        0.000000        0.669171         3
        27        13        14        28     9      180.000000       -0.049453         4
        27        13        14        29     9        0.000000       -0.009272         1
        27        13        14        29     9      180.000000       -0.015959         2
        27        13        14        29     9        0.000000        0.669171         3
        27        13        14        29     9      180.000000       -0.049453         4
        30        19        16        32     9        0.000000       -0.055542         1
        30        19        16        32     9      180.000000       13.881861         2
        30        19        16        32     9        0.000000       -0.474494         3
        30        19        16        32     9      180.000000        0.056181         4
        30        19        18        41     9        0.000000       -0.134258         1
        30        19        18        41     9      180.000000       10.906566         2
        30        19        18        41     9        0.000000       -0.689153         3
        30        19        18        41     9      180.000000        0.149985         4
        31        17        18        41     9        0.000000        0.053465         1
        31        17        18        41     9      180.000000       15.656868         2
        31        17        18        41     9        0.000000       -0.658012         3
        31        17        18        41     9      180.000000        0.055312         4
        31        32        33        34     9        0.000000       -0.264599         1
        31        32        33        34     9      180.000000       16.097750         2
        31        32        33        34     9        0.000000       -1.038734         3
        31        32        33        34     9      180.000000       -0.273847         4
        31        32        33        37     9        0.000000       -0.124299         1
        31        32        33        37     9      180.000000       12.047774         2
        31        32        33        37     9        0.000000       -0.161682         3
        31        32        33        37     9      180.000000        0.012897         4
        31        36        35        34     9        0.000000       -0.116445         1
        31        36        35        34     9      180.000000       20.603116         2
        31        36        35        34     9        0.000000       -1.645623         3
        31        36        35        34     9      180.000000       -0.477479         4
        31        36        35        39     9        0.000000        0.017994         1
        31        36        35        39     9      180.000000       15.819625         2
        31        36        35        39     9        0.000000       -0.633506         3
        31        36        35        39     9      180.000000        0.042057         4
        32        31        17        42     9        0.000000       -0.078717         1
        32        31        17        42     9      180.000000       12.183403         2
        32        31        17        42     9        0.000000       -0.195216         3
        32        31        17        42     9      180.000000       -0.048241         4
        32        31        36        35     9        0.000000       -0.184832         1
        32        31        36        35     9      180.000000       16.596924         2
        32        31        36        35     9        0.000000       -1.231312         3
        32        31        36        35     9      180.000000       -0.332603         4
        32        31        36        40     9        0.000000       -0.106007         1
        32        31        36        40     9      180.000000       12.234859         2
        32        31        36        40     9        0.000000       -0.158135         3
        32        31        36        40     9      180.000000       -0.044648         4
        32        33        34        35     9        0.000000       -0.244725         1
        32        33        34        35     9      180.000000       20.988040         2
        32        33        34        35     9        0.000000       -1.925589         3
        32        33        34        35     9      180.000000       -0.436055         4
        32        33        34        38     9        0.000000       -0.033270         1
        32        33        34        38     9      180.000000       16.238811         2
        32        33        34        38     9        0.000000       -0.722051         3
        32        33        34        38     9      180.000000       -0.017322         4
        33        32        31        36     9        0.000000        0.158517         1
        33        32        31        36     9      180.000000       10.787348         2
        33        32        31        36     9        0.000000       -0.883838         3
        33        32        31        36     9      180.000000       -0.164123         4
        33        34        35        36     9        0.000000        0.085957         1
        33        34        35        36     9      180.000000       16.001228         2
        33        34        35        36     9        0.000000       -1.385545         3
        33        34        35        36     9      180.000000       -0.264925         4
        33        34        35        39     9        0.000000        0.012594         1
        33        34        35        39     9      180.000000       12.768932         2
        33        34        35        39     9        0.000000       -0.653582         3
        33        34        35        39     9      180.000000        0.100990         4
        34        35        36        40     9        0.000000       -0.005467         1
        34        35        36        40     9      180.000000       16.271174         2
        34        35        36        40     9        0.000000       -0.454004         3
        34        35        36        40     9      180.000000        0.071995         4
        35        34        33        37     9        0.000000        0.009681         1
        35        34        33        37     9      180.000000       16.116135         2
        35        34        33        37     9        0.000000       -0.536783         3
        35        34        33        37     9      180.000000        0.113140         4
        36        31        17        42     9        0.000000       -0.101057         1
        36        31        17        42     9      180.000000       11.270216         2
        36        31        17        42     9        0.000000       -0.481052         3
        36        31        17        42     9      180.000000        0.029920         4
        36        35        34        38     9        0.000000        0.009393         1
        36        35        34        38     9      180.000000       12.831087         2
        36        35        34        38     9        0.000000       -0.625437         3
        36        35        34        38     9      180.000000        0.087821         4
        37        33        34        38     9        0.000000       -0.151717         1
        37        33        34        38     9      180.000000       12.624105         2
        37        33        34        38     9        0.000000       -0.668524         3
        37        33        34        38     9      180.000000        0.325216         4
        38        34        35        39     9        0.000000       -0.150958         1
        38        34        35        39     9      180.000000       10.356311         2
        38        34        35        39     9        0.000000       -0.405848         3
        38        34        35        39     9      180.000000        0.128684         4
        39        35        36        40     9        0.000000       -0.103569         1
        39        35        36        40     9      180.000000       12.649581         2
        39        35        36        40     9        0.000000       -0.581061         3
        39        35        36        40     9      180.000000        0.284283         4
        41        18        17        42     9        0.000000       -0.107744         1
        41        18        17        42     9      180.000000       12.551764         2
        41        18        17        42     9        0.000000       -0.684442         3
        41        18        17        42     9      180.000000        0.320552         4

[ dihedrals ] ; impropers
;       ai        aj        ak        al funct           phase               k        pn
         2         1         3         4     4      180.000000       27.893333         2
         2         3         4         1     4      180.000000       27.893333         2
         2         4         1         3     4      180.000000       27.893333         2

[ pairs ]
;       ai        aj funct
         1        11     1
         1        43     1
         2         5     1
         2        10     1
         2        12     1
         3        11     1
         3        43     1
         4         6     1
         4         9     1
         4        13     1
         4        24     1
         4        25     1
         5         8     1
         5        12     1
         5        21     1
         5        23     1
         6         9     1
         6        11     1
         6        22     1
         7        10     1
         7        23     1
         7        43     1
         8        11     1
         8        20     1
         9        12     1
         9        21     1
         9        43     1
        10        13     1
        10        20     1
        10        22     1
        10        24     1
        10        25     1
        11        14     1
        11        23     1
        11        26     1
        11        27     1
        12        15     1
        12        28     1
        12        29     1
        12        43     1
        13        16     1
        14        19     1
        14        24     1
        14        25     1
        14        32     1
        15        18     1
        15        26     1
        15        27     1
        15        30     1
        15        31     1
        15        33     1
        16        17     1
        16        28     1
        16        29     1
        16        34     1
        16        36     1
        16        37     1
        16        41     1
        17        30     1
        17        33     1
        17        35     1
        17        40     1
        18        32     1
        18        36     1
        19        31     1
        19        33     1
        19        42     1
        20        21     1
        20        43     1
        21        22     1
        22        23     1
        24        26     1
        24        27     1
        25        26     1
        25        27     1
        26        28     1
        26        29     1
        27        28     1
        27        29     1
        30        32     1
        30        41     1
        31        34     1
        31        37     1
        31        39     1
        31        41     1
        32        35     1
        32        38     1
        32        40     1
        32        42     1
        33        36     1
        33        39     1
        34        40     1
        35        37     1
        36        38     1
        36        42     1
        37        38     1
        38        39     1
        39        40     1
        41        42     1
