; ITP file created by ByteFF-joint-25, 2025-07-14 11:38:36.961946

[ atomtypes ]
;name           bonded.type        at.num        mass        charge   ptype           sigma         epsilon
 n0bf                                   7      0.0000       0.00000       A     3.38457e-01     3.93745e-01    ;  uncertainty sigma = 0.000033, epsilon = 0.000750
 n1bf                                   7      0.0000       0.00000       A     3.36848e-01     4.69506e-01    ;  uncertainty sigma = 0.000040, epsilon = 0.002139
 c2bf                                   6      0.0000       0.00000       A     3.31515e-01     4.13148e-01    ;  uncertainty sigma = 0.000011, epsilon = 0.000389
 c3bf                                   6      0.0000       0.00000       A     3.39776e-01     4.50920e-01    ;  uncertainty sigma = 0.000007, epsilon = 0.000597
 c4bf                                   6      0.0000       0.00000       A     3.31512e-01     4.13130e-01    ;  uncertainty sigma = 0.000013, epsilon = 0.001184
 c5bf                                   6      0.0000       0.00000       A     3.31520e-01     4.13449e-01    ;  uncertainty sigma = 0.000005, epsilon = 0.000616
 c6bf                                   6      0.0000       0.00000       A     3.31542e-01     4.13361e-01    ;  uncertainty sigma = 0.000008, epsilon = 0.000785
 c7bf                                   6      0.0000       0.00000       A     3.31519e-01     4.13605e-01    ;  uncertainty sigma = 0.000012, epsilon = 0.000634
 c8bf                                   6      0.0000       0.00000       A     3.31514e-01     4.13135e-01    ;  uncertainty sigma = 0.000014, epsilon = 0.000557
 c9bf                                   6      0.0000       0.00000       A     3.31520e-01     4.13466e-01    ;  uncertainty sigma = 0.000016, epsilon = 0.000775
 c10bf                                  6      0.0000       0.00000       A     3.31529e-01     4.13443e-01    ;  uncertainty sigma = 0.000006, epsilon = 0.000844
 c11bf                                  6      0.0000       0.00000       A     3.31509e-01     4.13058e-01    ;  uncertainty sigma = 0.000010, epsilon = 0.001033
 c12bf                                  6      0.0000       0.00000       A     3.31544e-01     4.12876e-01    ;  uncertainty sigma = 0.000019, epsilon = 0.001465
 c13bf                                  6      0.0000       0.00000       A     3.39780e-01     4.50883e-01    ;  uncertainty sigma = 0.000003, epsilon = 0.000560
 n14bf                                  7      0.0000       0.00000       A     3.38472e-01     3.93818e-01    ;  uncertainty sigma = 0.000039, epsilon = 0.001084
 o15bf                                  8      0.0000       0.00000       A     3.15642e-01     3.03426e-01    ;  uncertainty sigma = 0.000016, epsilon = 0.000856
 cl16bf                                17      0.0000       0.00000       A     3.46595e-01     1.10409e+00    ;  uncertainty sigma = 0.000019, epsilon = 0.001026
 cl17bf                                17      0.0000       0.00000       A     3.46623e-01     1.10451e+00    ;  uncertainty sigma = 0.000020, epsilon = 0.000454
 h18bf                                  1      0.0000       0.00000       A     1.10715e-01     4.07951e-02    ;  uncertainty sigma = 0.000035, epsilon = 0.001109
 h19bf                                  1      0.0000       0.00000       A     1.10715e-01     4.07951e-02    ;  uncertainty sigma = 0.000035, epsilon = 0.001109
 h20bf                                  1      0.0000       0.00000       A     2.60034e-01     8.66333e-02    ;  uncertainty sigma = 0.000007, epsilon = 0.000537
 h21bf                                  1      0.0000       0.00000       A     2.60034e-01     8.66333e-02    ;  uncertainty sigma = 0.000007, epsilon = 0.000537
 h22bf                                  1      0.0000       0.00000       A     2.60034e-01     8.66333e-02    ;  uncertainty sigma = 0.000007, epsilon = 0.000537
 h23bf                                  1      0.0000       0.00000       A     2.62565e-01     6.71866e-02    ;  uncertainty sigma = 0.000016, epsilon = 0.000591
 h24bf                                  1      0.0000       0.00000       A     2.62568e-01     6.72295e-02    ;  uncertainty sigma = 0.000012, epsilon = 0.000960
 h25bf                                  1      0.0000       0.00000       A     2.62565e-01     6.69250e-02    ;  uncertainty sigma = 0.000014, epsilon = 0.000484
 h26bf                                  1      0.0000       0.00000       A     2.42205e-01     8.67536e-02    ;  uncertainty sigma = 0.000015, epsilon = 0.000624
 h27bf                                  1      0.0000       0.00000       A     2.42205e-01     8.67536e-02    ;  uncertainty sigma = 0.000015, epsilon = 0.000624
 h28bf                                  1      0.0000       0.00000       A     2.42205e-01     8.67537e-02    ;  uncertainty sigma = 0.000015, epsilon = 0.000624

[ moleculetype ]
;name             nrexcl
 MOL                   3

[ atoms ]
;       nr            type      resi   res      atom      cgnr      charge          mass ; qtot
         1            n0bf         1   UNL        n0         1    -0.76929       14.0070 ; qtot   -0.769
         2            n1bf         1   UNL        n1         2    -0.92950       14.0070 ; qtot   -1.699
         3            c2bf         1   UNL        c2         3     0.49456       12.0110 ; qtot   -1.204
         4            c3bf         1   UNL        c3         4    -0.15048       12.0110 ; qtot   -1.355
         5            c4bf         1   UNL        c4         5    -0.10576       12.0110 ; qtot   -1.460
         6            c5bf         1   UNL        c5         6     0.05003       12.0110 ; qtot   -1.410
         7            c6bf         1   UNL        c6         7    -0.09316       12.0110 ; qtot   -1.504
         8            c7bf         1   UNL        c7         8     0.13671       12.0110 ; qtot   -1.367
         9            c8bf         1   UNL        c8         9    -0.15467       12.0110 ; qtot   -1.522
        10            c9bf         1   UNL        c9        10    -0.40050       12.0110 ; qtot   -1.922
        11           c10bf         1   UNL       c10        11     0.00830       12.0110 ; qtot   -1.914
        12           c11bf         1   UNL       c11        12     0.53910       12.0110 ; qtot   -1.375
        13           c12bf         1   UNL       c12        13     0.87972       12.0110 ; qtot   -0.495
        14           c13bf         1   UNL       c13        14     0.11900       12.0110 ; qtot   -0.376
        15           n14bf         1   UNL       n14        15    -0.77027       14.0070 ; qtot   -1.146
        16           o15bf         1   UNL       o15        16    -0.31262       15.9990 ; qtot   -1.459
        17          cl16bf         1   UNL      cl16        17    -0.09739       35.4530 ; qtot   -1.556
        18          cl17bf         1   UNL      cl17        18    -0.09143       35.4530 ; qtot   -1.648
        19           h18bf         1   UNL       h18        19     0.42537        1.0080 ; qtot   -1.222
        20           h19bf         1   UNL       h19        20     0.42537        1.0080 ; qtot   -0.797
        21           h20bf         1   UNL       h20        21     0.05799        1.0080 ; qtot   -0.739
        22           h21bf         1   UNL       h21        22     0.05799        1.0080 ; qtot   -0.681
        23           h22bf         1   UNL       h22        23     0.05799        1.0080 ; qtot   -0.623
        24           h23bf         1   UNL       h23        24     0.16960        1.0080 ; qtot   -0.453
        25           h24bf         1   UNL       h24        25     0.15819        1.0080 ; qtot   -0.295
        26           h25bf         1   UNL       h25        26     0.15731        1.0080 ; qtot   -0.138
        27           h26bf         1   UNL       h26        27     0.04594        1.0080 ; qtot   -0.092
        28           h27bf         1   UNL       h27        28     0.04594        1.0080 ; qtot   -0.046
        29           h28bf         1   UNL       h28        29     0.04596        1.0080 ; qtot    0.000

[ bonds ]
;       ai        aj funct               r               k
         1         3     1        0.134449   457608.962695    ;  uncertainty r = 0.000092, k = 11.938768
         1        13     1        0.136325   580159.099023    ;  uncertainty r = 0.000103, k = 9.186923
         2        13     1        0.140941   628836.302539    ;  uncertainty r = 0.000193, k = 12.221542
         2        19     1        0.102308   440490.723242    ;  uncertainty r = 0.000029, k = 2.560102
         2        20     1        0.102308   440490.723242    ;  uncertainty r = 0.000029, k = 2.560102
         3         4     1        0.150549   256878.013037    ;  uncertainty r = 0.000055, k = 5.059744
         3        10     1        0.140632   430841.730762    ;  uncertainty r = 0.000077, k = 3.341878
         4        21     1        0.109446   310445.445312    ;  uncertainty r = 0.000014, k = 1.596165
         4        22     1        0.109446   310445.445312    ;  uncertainty r = 0.000014, k = 1.596165
         4        23     1        0.109446   310445.445312    ;  uncertainty r = 0.000014, k = 1.596165
         5         6     1        0.139867   321538.714551    ;  uncertainty r = 0.000049, k = 5.652376
         5         9     1        0.139753   349193.948389    ;  uncertainty r = 0.000070, k = 5.633533
         5        12     1        0.148112   280143.570996    ;  uncertainty r = 0.000181, k = 6.839587
         6         7     1        0.139392   358250.760840    ;  uncertainty r = 0.000055, k = 6.472564
         6        17     1        0.175317   190441.026807    ;  uncertainty r = 0.000051, k = 4.347074
         7        11     1        0.139051   364148.147656    ;  uncertainty r = 0.000048, k = 1.681288
         7        24     1        0.108632   335912.353174    ;  uncertainty r = 0.000023, k = 1.610017
         8         9     1        0.139400   350704.340723    ;  uncertainty r = 0.000044, k = 4.513730
         8        11     1        0.140104   347900.698096    ;  uncertainty r = 0.000029, k = 2.846584
         8        16     1        0.136034   316349.267480    ;  uncertainty r = 0.000007, k = 4.284850
         9        25     1        0.108640   337997.560303    ;  uncertainty r = 0.000042, k = 2.311226
        10        12     1        0.140760   386600.093311    ;  uncertainty r = 0.000071, k = 7.018660
        10        26     1        0.108784   345994.071973    ;  uncertainty r = 0.000038, k = 3.102700
        11        18     1        0.174750   191921.962085    ;  uncertainty r = 0.000074, k = 4.809387
        12        15     1        0.134899   438288.402930    ;  uncertainty r = 0.000188, k = 11.151450
        13        15     1        0.136931   555943.535059    ;  uncertainty r = 0.000136, k = 13.443008
        14        16     1        0.142571   249932.889697    ;  uncertainty r = 0.000015, k = 3.432874
        14        27     1        0.109538   311091.125586    ;  uncertainty r = 0.000018, k = 1.051825
        14        28     1        0.109538   311091.151123    ;  uncertainty r = 0.000018, k = 1.051824
        14        29     1        0.109538   311091.125586    ;  uncertainty r = 0.000018, k = 1.051841

[ angles ]
;       ai        aj        ak funct           theta             cth
         1         3         4     1      118.624779      489.424511    ;  uncertainty theta = 0.002587, k = 0.253132
         1         3        10     1      120.146645      653.558152    ;  uncertainty theta = 0.003709, k = 0.057075
         1        13         2     1      124.883545      810.142258    ;  uncertainty theta = 0.006334, k = 0.040578
         1        13        15     1      128.122269      766.010686    ;  uncertainty theta = 0.006156, k = 0.109385
         2        13        15     1      124.872108      817.172050    ;  uncertainty theta = 0.006963, k = 0.053847
         3         1        13     1      114.972008      422.750502    ;  uncertainty theta = 0.010138, k = 0.169578
         3         4        21     1      108.893776      386.685272    ;  uncertainty theta = 0.001510, k = 0.039030
         3         4        22     1      108.893776      386.685272    ;  uncertainty theta = 0.001510, k = 0.039030
         3         4        23     1      108.893776      386.685272    ;  uncertainty theta = 0.001510, k = 0.039030
         3        10        12     1      117.262550      471.953042    ;  uncertainty theta = 0.006900, k = 0.262647
         3        10        26     1      121.833237      280.059669    ;  uncertainty theta = 0.001366, k = 0.049561
         4         3        10     1      122.051842      412.034109    ;  uncertainty theta = 0.002462, k = 0.147050
         5         6         7     1      124.087791      374.660997    ;  uncertainty theta = 0.002532, k = 0.128096
         5         6        17     1      118.250732      411.010518    ;  uncertainty theta = 0.002257, k = 0.186426
         5         9         8     1      124.348373      486.362835    ;  uncertainty theta = 0.002172, k = 0.162025
         5         9        25     1      117.500954      262.039136    ;  uncertainty theta = 0.002092, k = 0.052743
         5        12        10     1      121.355995      376.566703    ;  uncertainty theta = 0.004748, k = 0.143879
         5        12        15     1      117.813583      445.203590    ;  uncertainty theta = 0.006462, k = 0.129724
         6         5         9     1      121.245644      418.245437    ;  uncertainty theta = 0.002755, k = 0.240710
         6         5        12     1      120.022400      392.357064    ;  uncertainty theta = 0.002421, k = 0.216923
         6         7        11     1      120.944748      480.206955    ;  uncertainty theta = 0.001945, k = 0.085630
         6         7        24     1      121.152992      279.122042    ;  uncertainty theta = 0.001968, k = 0.078641
         7         6        17     1      118.828407      451.731227    ;  uncertainty theta = 0.002911, k = 0.084365
         7        11         8     1      121.539406      352.773013    ;  uncertainty theta = 0.002279, k = 0.201609
         7        11        18     1      120.463600      452.521728    ;  uncertainty theta = 0.001383, k = 0.137282
         8         9        25     1      117.868942      269.869820    ;  uncertainty theta = 0.002508, k = 0.120739
         8        11        18     1      118.638931      418.332933    ;  uncertainty theta = 0.000760, k = 0.095072
         8        16        14     1      110.274010      496.241036    ;  uncertainty theta = 0.001323, k = 0.042009
         9         5        12     1      117.745056      398.904907    ;  uncertainty theta = 0.003801, k = 0.170268
         9         8        11     1      121.009338      366.608603    ;  uncertainty theta = 0.002928, k = 0.186129
         9         8        16     1      120.188210      432.399380    ;  uncertainty theta = 0.003248, k = 0.142371
        10        12        15     1      121.173927      620.442714    ;  uncertainty theta = 0.002301, k = 0.089603
        11         7        24     1      120.723068      279.050219    ;  uncertainty theta = 0.001970, k = 0.013372
        11         8        16     1      118.626022      400.654710    ;  uncertainty theta = 0.004559, k = 0.168601
        12        10        26     1      121.861771      274.639609    ;  uncertainty theta = 0.001277, k = 0.130376
        12        15        13     1      117.345078      412.604640    ;  uncertainty theta = 0.011345, k = 0.284090
        13         2        19     1      119.308617      460.131308    ;  uncertainty theta = 0.002106, k = 0.030089
        13         2        20     1      119.308617      460.131308    ;  uncertainty theta = 0.002106, k = 0.030089
        16        14        27     1      108.817017      444.786378    ;  uncertainty theta = 0.001502, k = 0.019460
        16        14        28     1      108.817017      444.786378    ;  uncertainty theta = 0.001502, k = 0.019460
        16        14        29     1      108.817017      444.786378    ;  uncertainty theta = 0.001502, k = 0.019460
        19         2        20     1      107.602455      267.157028    ;  uncertainty theta = 0.002368, k = 0.036887
        21         4        22     1      107.158325      312.326445    ;  uncertainty theta = 0.001292, k = 0.033442
        21         4        23     1      107.158325      312.326445    ;  uncertainty theta = 0.001292, k = 0.033442
        22         4        23     1      107.158325      312.326445    ;  uncertainty theta = 0.001292, k = 0.033442
        27        14        28     1      109.133141      330.810013    ;  uncertainty theta = 0.001542, k = 0.011144
        27        14        29     1      109.133141      330.810013    ;  uncertainty theta = 0.001542, k = 0.011144
        28        14        29     1      109.133141      330.810013    ;  uncertainty theta = 0.001542, k = 0.011144

[ dihedrals ] ; propers for gromacs 4.5 or higher, use funct 9
;       ai        aj        ak        al funct           phase               k        pn
         1         3         4        21     9        0.000000        0.527355         1    ;  uncertainty k = 0.287888
         1         3         4        21     9      180.000000        3.646187         2    ;  uncertainty k = 0.158381
         1         3         4        21     9        0.000000        0.460339         3    ;  uncertainty k = 0.062801
         1         3         4        21     9      180.000000        0.285520         4    ;  uncertainty k = 0.060376
         1         3         4        22     9        0.000000        0.527355         1    ;  uncertainty k = 0.287888
         1         3         4        22     9      180.000000        3.646187         2    ;  uncertainty k = 0.158381
         1         3         4        22     9        0.000000        0.460339         3    ;  uncertainty k = 0.062801
         1         3         4        22     9      180.000000        0.285520         4    ;  uncertainty k = 0.060376
         1         3         4        23     9        0.000000        0.527355         1    ;  uncertainty k = 0.287888
         1         3         4        23     9      180.000000        3.646187         2    ;  uncertainty k = 0.158381
         1         3         4        23     9        0.000000        0.460339         3    ;  uncertainty k = 0.062801
         1         3         4        23     9      180.000000        0.285520         4    ;  uncertainty k = 0.060376
         1         3        10        12     9        0.000000       -0.165830         1    ;  uncertainty k = 0.221997
         1         3        10        12     9      180.000000       11.580790         2    ;  uncertainty k = 0.367900
         1         3        10        12     9        0.000000       -1.188625         3    ;  uncertainty k = 0.774654
         1         3        10        12     9      180.000000        1.051171         4    ;  uncertainty k = 0.114333
         1         3        10        26     9        0.000000        0.076485         1    ;  uncertainty k = 0.518262
         1         3        10        26     9      180.000000        8.283754         2    ;  uncertainty k = 0.415462
         1         3        10        26     9        0.000000        1.176416         3    ;  uncertainty k = 0.238511
         1         3        10        26     9      180.000000        1.681567         4    ;  uncertainty k = 0.097550
         1        13         2        19     9        0.000000       20.991380         1    ;  uncertainty k = 0.188826
         1        13         2        19     9      180.000000       10.433199         2    ;  uncertainty k = 0.202063
         1        13         2        19     9        0.000000        0.958787         3    ;  uncertainty k = 0.164952
         1        13         2        19     9      180.000000       -0.374516         4    ;  uncertainty k = 0.148971
         1        13         2        20     9        0.000000       20.991380         1    ;  uncertainty k = 0.188826
         1        13         2        20     9      180.000000       10.433199         2    ;  uncertainty k = 0.202063
         1        13         2        20     9        0.000000        0.958787         3    ;  uncertainty k = 0.164952
         1        13         2        20     9      180.000000       -0.374516         4    ;  uncertainty k = 0.148971
         1        13        15        12     9        0.000000       -0.973086         1    ;  uncertainty k = 1.119931
         1        13        15        12     9      180.000000        6.763929         2    ;  uncertainty k = 0.701785
         1        13        15        12     9        0.000000        0.733366         3    ;  uncertainty k = 0.666641
         1        13        15        12     9      180.000000        0.868518         4    ;  uncertainty k = 0.199551
         2        13         1         3     9        0.000000        0.632261         1    ;  uncertainty k = 1.337435
         2        13         1         3     9      180.000000       10.750818         2    ;  uncertainty k = 0.466914
         2        13         1         3     9        0.000000        2.455836         3    ;  uncertainty k = 0.475488
         2        13         1         3     9      180.000000        1.088942         4    ;  uncertainty k = 0.272417
         2        13        15        12     9        0.000000        0.190221         1    ;  uncertainty k = 1.493086
         2        13        15        12     9      180.000000       10.423771         2    ;  uncertainty k = 0.551365
         2        13        15        12     9        0.000000        2.535745         3    ;  uncertainty k = 0.651420
         2        13        15        12     9      180.000000        1.235753         4    ;  uncertainty k = 0.276319
         3         1        13        15     9        0.000000       -0.703915         1    ;  uncertainty k = 0.487398
         3         1        13        15     9      180.000000        8.134141         2    ;  uncertainty k = 1.018126
         3         1        13        15     9        0.000000        0.732015         3    ;  uncertainty k = 0.493287
         3         1        13        15     9      180.000000        0.810666         4    ;  uncertainty k = 0.161951
         3        10        12         5     9        0.000000       -0.192560         1    ;  uncertainty k = 0.309565
         3        10        12         5     9      180.000000        7.301900         2    ;  uncertainty k = 0.687683
         3        10        12         5     9        0.000000        0.562828         3    ;  uncertainty k = 0.323594
         3        10        12         5     9      180.000000        1.281127         4    ;  uncertainty k = 0.272080
         3        10        12        15     9        0.000000       -0.179570         1    ;  uncertainty k = 0.098806
         3        10        12        15     9      180.000000       11.498296         2    ;  uncertainty k = 0.548749
         3        10        12        15     9        0.000000       -1.208148         3    ;  uncertainty k = 0.504949
         3        10        12        15     9      180.000000        1.070785         4    ;  uncertainty k = 0.284360
         4         3         1        13     9        0.000000        0.260072         1    ;  uncertainty k = 0.940629
         4         3         1        13     9      180.000000       14.784938         2    ;  uncertainty k = 0.579280
         4         3         1        13     9        0.000000        2.314380         3    ;  uncertainty k = 0.469299
         4         3         1        13     9      180.000000        1.596292         4    ;  uncertainty k = 0.514276
         4         3        10        12     9        0.000000       -0.051753         1    ;  uncertainty k = 0.461145
         4         3        10        12     9      180.000000        7.452545         2    ;  uncertainty k = 0.207222
         4         3        10        12     9        0.000000        0.889057         3    ;  uncertainty k = 0.235686
         4         3        10        12     9      180.000000        1.314409         4    ;  uncertainty k = 0.184490
         4         3        10        26     9        0.000000       -0.435871         1    ;  uncertainty k = 0.348348
         4         3        10        26     9      180.000000        6.883001         2    ;  uncertainty k = 0.216621
         4         3        10        26     9        0.000000        0.589478         3    ;  uncertainty k = 0.307430
         4         3        10        26     9      180.000000        0.789177         4    ;  uncertainty k = 0.218903
         5         6         7        11     9        0.000000        0.001783         1    ;  uncertainty k = 0.335628
         5         6         7        11     9      180.000000        8.698424         2    ;  uncertainty k = 0.478393
         5         6         7        11     9        0.000000        0.179627         3    ;  uncertainty k = 0.352478
         5         6         7        11     9      180.000000        1.336188         4    ;  uncertainty k = 0.268049
         5         6         7        24     9        0.000000        0.011950         1    ;  uncertainty k = 0.154035
         5         6         7        24     9      180.000000        5.773503         2    ;  uncertainty k = 0.591259
         5         6         7        24     9        0.000000        1.365334         3    ;  uncertainty k = 0.322282
         5         6         7        24     9      180.000000        1.614165         4    ;  uncertainty k = 0.197810
         5         9         8        11     9        0.000000        0.130166         1    ;  uncertainty k = 0.286807
         5         9         8        11     9      180.000000        7.207578         2    ;  uncertainty k = 0.847709
         5         9         8        11     9        0.000000        0.610195         3    ;  uncertainty k = 0.263658
         5         9         8        11     9      180.000000        1.524827         4    ;  uncertainty k = 0.310418
         5         9         8        16     9        0.000000        0.026031         1    ;  uncertainty k = 0.154895
         5         9         8        16     9      180.000000       10.729206         2    ;  uncertainty k = 0.203724
         5         9         8        16     9        0.000000        1.154178         3    ;  uncertainty k = 0.208753
         5         9         8        16     9      180.000000        1.686591         4    ;  uncertainty k = 0.146338
         5        12        10        26     9        0.000000       -0.170699         1    ;  uncertainty k = 0.985429
         5        12        10        26     9      180.000000        6.518941         2    ;  uncertainty k = 0.219977
         5        12        10        26     9        0.000000        0.718966         3    ;  uncertainty k = 0.324204
         5        12        10        26     9      180.000000        0.959604         4    ;  uncertainty k = 0.201445
         5        12        15        13     9        0.000000        0.387714         1    ;  uncertainty k = 1.066297
         5        12        15        13     9      180.000000       15.698526         2    ;  uncertainty k = 0.643802
         5        12        15        13     9        0.000000        1.908370         3    ;  uncertainty k = 0.668083
         5        12        15        13     9      180.000000        1.241102         4    ;  uncertainty k = 0.383261
         6         5         9         8     9        0.000000        0.177366         1    ;  uncertainty k = 0.251093
         6         5         9         8     9      180.000000        9.888561         2    ;  uncertainty k = 0.595441
         6         5         9         8     9        0.000000        0.264588         3    ;  uncertainty k = 0.158519
         6         5         9         8     9      180.000000        1.308340         4    ;  uncertainty k = 0.321857
         6         5         9        25     9        0.000000        0.229983         1    ;  uncertainty k = 0.176370
         6         5         9        25     9      180.000000        7.072084         2    ;  uncertainty k = 0.231841
         6         5         9        25     9        0.000000        1.368461         3    ;  uncertainty k = 0.355562
         6         5         9        25     9      180.000000        1.656306         4    ;  uncertainty k = 0.136861
         6         5        12        10     9        0.000000       -0.021983         1    ;  uncertainty k = 0.268147
         6         5        12        10     9      180.000000        3.740852         2    ;  uncertainty k = 0.303906
         6         5        12        10     9        0.000000        0.004136         3    ;  uncertainty k = 0.240553
         6         5        12        10     9      180.000000        0.073561         4    ;  uncertainty k = 0.160088
         6         5        12        15     9        0.000000        0.256297         1    ;  uncertainty k = 1.111115
         6         5        12        15     9      180.000000        4.244737         2    ;  uncertainty k = 0.132528
         6         5        12        15     9        0.000000        1.008993         3    ;  uncertainty k = 0.259853
         6         5        12        15     9      180.000000        0.164401         4    ;  uncertainty k = 0.040527
         6         7        11         8     9        0.000000       -0.055046         1    ;  uncertainty k = 0.262088
         6         7        11         8     9      180.000000        8.894020         2    ;  uncertainty k = 0.465572
         6         7        11         8     9        0.000000        0.393039         3    ;  uncertainty k = 0.382287
         6         7        11         8     9      180.000000        1.399451         4    ;  uncertainty k = 0.231807
         6         7        11        18     9        0.000000        0.009689         1    ;  uncertainty k = 0.207895
         6         7        11        18     9      180.000000        9.680011         2    ;  uncertainty k = 0.582644
         6         7        11        18     9        0.000000        1.519875         3    ;  uncertainty k = 0.409840
         6         7        11        18     9      180.000000        1.739005         4    ;  uncertainty k = 0.186802
         7         6         5         9     9        0.000000       -0.136073         1    ;  uncertainty k = 0.444360
         7         6         5         9     9      180.000000        7.458647         2    ;  uncertainty k = 0.719629
         7         6         5         9     9        0.000000        0.079236         3    ;  uncertainty k = 0.413540
         7         6         5         9     9      180.000000        1.233654         4    ;  uncertainty k = 0.318905
         7         6         5        12     9        0.000000        0.061448         1    ;  uncertainty k = 0.491190
         7         6         5        12     9      180.000000        6.345576         2    ;  uncertainty k = 0.541437
         7         6         5        12     9        0.000000        1.323347         3    ;  uncertainty k = 0.321153
         7         6         5        12     9      180.000000        1.719676         4    ;  uncertainty k = 0.176052
         7        11         8         9     9        0.000000       -0.169224         1    ;  uncertainty k = 0.371459
         7        11         8         9     9      180.000000        5.776165         2    ;  uncertainty k = 1.017894
         7        11         8         9     9        0.000000        0.433589         3    ;  uncertainty k = 0.191959
         7        11         8         9     9      180.000000        1.292631         4    ;  uncertainty k = 0.384653
         7        11         8        16     9        0.000000        0.180307         1    ;  uncertainty k = 0.144939
         7        11         8        16     9      180.000000        7.968838         2    ;  uncertainty k = 0.494108
         7        11         8        16     9        0.000000        1.223475         3    ;  uncertainty k = 0.246094
         7        11         8        16     9      180.000000        1.691909         4    ;  uncertainty k = 0.125922
         8         9         5        12     9        0.000000        0.200416         1    ;  uncertainty k = 0.169301
         8         9         5        12     9      180.000000        8.441701         2    ;  uncertainty k = 0.527221
         8         9         5        12     9        0.000000        1.438062         3    ;  uncertainty k = 0.355706
         8         9         5        12     9      180.000000        1.807615         4    ;  uncertainty k = 0.168123
         8        11         7        24     9        0.000000        0.031541         1    ;  uncertainty k = 0.202505
         8        11         7        24     9      180.000000        6.665951         2    ;  uncertainty k = 0.605277
         8        11         7        24     9        0.000000        1.327828         3    ;  uncertainty k = 0.397529
         8        11         7        24     9      180.000000        1.585428         4    ;  uncertainty k = 0.152788
         8        16        14        27     9        0.000000        1.126619         1    ;  uncertainty k = 0.211102
         8        16        14        27     9      180.000000       -2.017517         2    ;  uncertainty k = 0.262140
         8        16        14        27     9        0.000000        1.021707         3    ;  uncertainty k = 0.023918
         8        16        14        27     9      180.000000        0.257419         4    ;  uncertainty k = 0.036199
         8        16        14        28     9        0.000000        1.126619         1    ;  uncertainty k = 0.211102
         8        16        14        28     9      180.000000       -2.017517         2    ;  uncertainty k = 0.262140
         8        16        14        28     9        0.000000        1.021707         3    ;  uncertainty k = 0.023918
         8        16        14        28     9      180.000000        0.257419         4    ;  uncertainty k = 0.036199
         8        16        14        29     9        0.000000        1.126619         1    ;  uncertainty k = 0.211102
         8        16        14        29     9      180.000000       -2.017517         2    ;  uncertainty k = 0.262140
         8        16        14        29     9        0.000000        1.021707         3    ;  uncertainty k = 0.023918
         8        16        14        29     9      180.000000        0.257419         4    ;  uncertainty k = 0.036199
         9         5         6        17     9        0.000000       -0.038632         1    ;  uncertainty k = 0.330389
         9         5         6        17     9      180.000000        7.726173         2    ;  uncertainty k = 0.367246
         9         5         6        17     9        0.000000        1.366044         3    ;  uncertainty k = 0.295127
         9         5         6        17     9      180.000000        1.484967         4    ;  uncertainty k = 0.152683
         9         5        12        10     9        0.000000       -0.401565         1    ;  uncertainty k = 0.713807
         9         5        12        10     9      180.000000        4.206015         2    ;  uncertainty k = 0.410722
         9         5        12        10     9        0.000000        0.544808         3    ;  uncertainty k = 0.066596
         9         5        12        10     9      180.000000        0.051199         4    ;  uncertainty k = 0.051468
         9         5        12        15     9        0.000000        1.336848         1    ;  uncertainty k = 1.335846
         9         5        12        15     9      180.000000        5.160576         2    ;  uncertainty k = 0.399273
         9         5        12        15     9        0.000000        0.495716         3    ;  uncertainty k = 0.305870
         9         5        12        15     9      180.000000        0.122087         4    ;  uncertainty k = 0.072891
         9         8        11        18     9        0.000000        0.256693         1    ;  uncertainty k = 0.412625
         9         8        11        18     9      180.000000        6.808888         2    ;  uncertainty k = 0.699414
         9         8        11        18     9        0.000000        1.429180         3    ;  uncertainty k = 0.312173
         9         8        11        18     9      180.000000        1.483156         4    ;  uncertainty k = 0.217166
         9         8        16        14     9        0.000000        0.036494         1    ;  uncertainty k = 0.422615
         9         8        16        14     9      180.000000        6.418815         2    ;  uncertainty k = 0.198946
         9         8        16        14     9        0.000000       -0.359652         3    ;  uncertainty k = 0.122082
         9         8        16        14     9      180.000000        0.083295         4    ;  uncertainty k = 0.103011
        10         3         1        13     9        0.000000       -0.520350         1    ;  uncertainty k = 0.253370
        10         3         1        13     9      180.000000       14.733115         2    ;  uncertainty k = 0.483183
        10         3         1        13     9        0.000000        0.208259         3    ;  uncertainty k = 0.429682
        10         3         1        13     9      180.000000        1.119286         4    ;  uncertainty k = 0.188462
        10         3         4        21     9        0.000000       -0.153216         1    ;  uncertainty k = 0.353650
        10         3         4        21     9      180.000000        2.269576         2    ;  uncertainty k = 0.202083
        10         3         4        21     9        0.000000        0.264484         3    ;  uncertainty k = 0.050020
        10         3         4        21     9      180.000000        0.158557         4    ;  uncertainty k = 0.025498
        10         3         4        22     9        0.000000       -0.153216         1    ;  uncertainty k = 0.353650
        10         3         4        22     9      180.000000        2.269576         2    ;  uncertainty k = 0.202083
        10         3         4        22     9        0.000000        0.264484         3    ;  uncertainty k = 0.050020
        10         3         4        22     9      180.000000        0.158557         4    ;  uncertainty k = 0.025498
        10         3         4        23     9        0.000000       -0.153216         1    ;  uncertainty k = 0.353650
        10         3         4        23     9      180.000000        2.269576         2    ;  uncertainty k = 0.202083
        10         3         4        23     9        0.000000        0.264484         3    ;  uncertainty k = 0.050020
        10         3         4        23     9      180.000000        0.158557         4    ;  uncertainty k = 0.025498
        10        12        15        13     9        0.000000       -0.119073         1    ;  uncertainty k = 0.347247
        10        12        15        13     9      180.000000       14.914810         2    ;  uncertainty k = 0.383880
        10        12        15        13     9        0.000000        0.101332         3    ;  uncertainty k = 0.678079
        10        12        15        13     9      180.000000        1.076273         4    ;  uncertainty k = 0.264023
        11         7         6        17     9        0.000000        0.032788         1    ;  uncertainty k = 0.136929
        11         7         6        17     9      180.000000        9.396601         2    ;  uncertainty k = 0.370008
        11         7         6        17     9        0.000000        1.370182         3    ;  uncertainty k = 0.372024
        11         7         6        17     9      180.000000        1.716954         4    ;  uncertainty k = 0.133940
        11         8         9        25     9        0.000000        0.219893         1    ;  uncertainty k = 0.232430
        11         8         9        25     9      180.000000        5.942703         2    ;  uncertainty k = 0.306208
        11         8         9        25     9        0.000000        1.500543         3    ;  uncertainty k = 0.313534
        11         8         9        25     9      180.000000        1.835114         4    ;  uncertainty k = 0.144593
        11         8        16        14     9        0.000000        2.236655         1    ;  uncertainty k = 0.473400
        11         8        16        14     9      180.000000        5.833080         2    ;  uncertainty k = 0.119031
        11         8        16        14     9        0.000000        1.181639         3    ;  uncertainty k = 0.200731
        11         8        16        14     9      180.000000        0.094750         4    ;  uncertainty k = 0.052042
        12         5         6        17     9        0.000000       -0.310340         1    ;  uncertainty k = 0.700577
        12         5         6        17     9      180.000000        7.577262         2    ;  uncertainty k = 0.459950
        12         5         6        17     9        0.000000        1.142578         3    ;  uncertainty k = 0.294203
        12         5         6        17     9      180.000000        1.398501         4    ;  uncertainty k = 0.191341
        12         5         9        25     9        0.000000       -0.126592         1    ;  uncertainty k = 0.150076
        12         5         9        25     9      180.000000        7.841196         2    ;  uncertainty k = 0.242738
        12         5         9        25     9        0.000000        0.766660         3    ;  uncertainty k = 0.196145
        12         5         9        25     9      180.000000        1.333394         4    ;  uncertainty k = 0.074775
        15        12        10        26     9        0.000000        0.143079         1    ;  uncertainty k = 0.347858
        15        12        10        26     9      180.000000        8.548793         2    ;  uncertainty k = 0.429235
        15        12        10        26     9        0.000000        1.149833         3    ;  uncertainty k = 0.241487
        15        12        10        26     9      180.000000        1.602115         4    ;  uncertainty k = 0.063574
        15        13         2        19     9        0.000000       21.229602         1    ;  uncertainty k = 0.233217
        15        13         2        19     9      180.000000       10.598441         2    ;  uncertainty k = 0.160992
        15        13         2        19     9        0.000000        0.878989         3    ;  uncertainty k = 0.137390
        15        13         2        19     9      180.000000       -0.388688         4    ;  uncertainty k = 0.183825
        15        13         2        20     9        0.000000       21.229602         1    ;  uncertainty k = 0.233217
        15        13         2        20     9      180.000000       10.598441         2    ;  uncertainty k = 0.160992
        15        13         2        20     9        0.000000        0.878989         3    ;  uncertainty k = 0.137390
        15        13         2        20     9      180.000000       -0.388688         4    ;  uncertainty k = 0.183825
        16         8         9        25     9        0.000000        0.006392         1    ;  uncertainty k = 0.272217
        16         8         9        25     9      180.000000        9.090218         2    ;  uncertainty k = 0.417983
        16         8         9        25     9        0.000000        0.798249         3    ;  uncertainty k = 0.166928
        16         8         9        25     9      180.000000        1.352106         4    ;  uncertainty k = 0.292124
        16         8        11        18     9        0.000000       -0.202381         1    ;  uncertainty k = 0.727895
        16         8        11        18     9      180.000000        9.534397         2    ;  uncertainty k = 0.390315
        16         8        11        18     9        0.000000        0.866297         3    ;  uncertainty k = 0.258129
        16         8        11        18     9      180.000000        1.376479         4    ;  uncertainty k = 0.181452
        17         6         7        24     9        0.000000       -0.116012         1    ;  uncertainty k = 0.425123
        17         6         7        24     9      180.000000        7.575508         2    ;  uncertainty k = 0.582338
        17         6         7        24     9        0.000000        0.620031         3    ;  uncertainty k = 0.274163
        17         6         7        24     9      180.000000        1.157994         4    ;  uncertainty k = 0.303477
        18        11         7        24     9        0.000000       -0.202528         1    ;  uncertainty k = 0.248654
        18        11         7        24     9      180.000000        7.589645         2    ;  uncertainty k = 0.532448
        18        11         7        24     9        0.000000        0.579514         3    ;  uncertainty k = 0.282329
        18        11         7        24     9      180.000000        1.056730         4    ;  uncertainty k = 0.245753

[ dihedrals ] ; impropers
;       ai        aj        ak        al funct           phase               k        pn
         2        13        19        20     4      180.000000        0.351409         2    ;  uncertainty k = 0.512004
         2        19        20        13     4      180.000000        0.351409         2    ;  uncertainty k = 0.512004
         2        20        13        19     4      180.000000        0.351409         2    ;  uncertainty k = 0.512004
         3         1         4        10     4      180.000000       31.337603         2    ;  uncertainty k = 0.060542
         3         4        10         1     4      180.000000       31.337603         2    ;  uncertainty k = 0.060542
         3        10         1         4     4      180.000000       31.337603         2    ;  uncertainty k = 0.060542
         5         6         9        12     4      180.000000       11.811583         2    ;  uncertainty k = 0.185321
         5         9        12         6     4      180.000000       11.811583         2    ;  uncertainty k = 0.185321
         5        12         6         9     4      180.000000       11.811583         2    ;  uncertainty k = 0.185321
         6         5         7        17     4      180.000000       13.919108         2    ;  uncertainty k = 0.072908
         6         7        17         5     4      180.000000       13.919108         2    ;  uncertainty k = 0.072908
         6        17         5         7     4      180.000000       13.919108         2    ;  uncertainty k = 0.072908
         7         6        11        24     4      180.000000        2.738927         2    ;  uncertainty k = 0.365801
         7        11        24         6     4      180.000000        2.738927         2    ;  uncertainty k = 0.365801
         7        24         6        11     4      180.000000        2.738927         2    ;  uncertainty k = 0.365801
         8         9        11        16     4      180.000000       17.833526         2    ;  uncertainty k = 0.066281
         8        11        16         9     4      180.000000       17.833526         2    ;  uncertainty k = 0.066281
         8        16         9        11     4      180.000000       17.833526         2    ;  uncertainty k = 0.066281
         9         5         8        25     4      180.000000        2.691300         2    ;  uncertainty k = 0.155934
         9         8        25         5     4      180.000000        2.691300         2    ;  uncertainty k = 0.155934
         9        25         5         8     4      180.000000        2.691300         2    ;  uncertainty k = 0.155934
        10         3        12        26     4      180.000000        1.026355         2    ;  uncertainty k = 0.654068
        10        12        26         3     4      180.000000        1.026355         2    ;  uncertainty k = 0.654068
        10        26         3        12     4      180.000000        1.026355         2    ;  uncertainty k = 0.654068
        11         7         8        18     4      180.000000       11.808838         2    ;  uncertainty k = 0.094070
        11         8        18         7     4      180.000000       11.808838         2    ;  uncertainty k = 0.094070
        11        18         7         8     4      180.000000       11.808838         2    ;  uncertainty k = 0.094070
        12         5        10        15     4      180.000000       28.717778         2    ;  uncertainty k = 0.079685
        12        10        15         5     4      180.000000       28.717778         2    ;  uncertainty k = 0.079685
        12        15         5        10     4      180.000000       28.717778         2    ;  uncertainty k = 0.079685
        13         1         2        15     4      180.000000       46.476576         2    ;  uncertainty k = 0.053192
        13         2        15         1     4      180.000000       46.476576         2    ;  uncertainty k = 0.053192
        13        15         1         2     4      180.000000       46.476576         2    ;  uncertainty k = 0.053192

[ pairs ]
;       ai        aj funct
         1        12     1
         1        19     1
         1        20     1
         1        21     1
         1        22     1
         1        23     1
         1        26     1
         2         3     1
         2        12     1
         3         5     1
         3        15     1
         4        12     1
         4        13     1
         4        26     1
         5        11     1
         5        13     1
         5        16     1
         5        24     1
         5        26     1
         6         8     1
         6        10     1
         6        15     1
         6        18     1
         6        25     1
         7         9     1
         7        12     1
         7        16     1
         8        12     1
         8        24     1
         8        27     1
         8        28     1
         8        29     1
         9        10     1
         9        14     1
         9        15     1
         9        17     1
         9        18     1
        10        13     1
        10        21     1
        10        22     1
        10        23     1
        11        14     1
        11        17     1
        11        25     1
        12        17     1
        12        25     1
        15        19     1
        15        20     1
        15        26     1
        16        18     1
        16        25     1
        17        24     1
        18        24     1
