; ITP file created by ByteFF-joint-25, 2025-07-14 11:38:37.453602

[ atomtypes ]
;name           bonded.type        at.num        mass        charge   ptype           sigma         epsilon
 n0bf                                   7      0.0000       0.00000       A     3.38400e-01     3.93513e-01    ;  uncertainty sigma = 0.000013, epsilon = 0.000602
 n1bf                                   7      0.0000       0.00000       A     3.20659e-01     8.54215e-01    ;  uncertainty sigma = 0.000013, epsilon = 0.001622
 c2bf                                   6      0.0000       0.00000       A     3.31565e-01     4.12992e-01    ;  uncertainty sigma = 0.000011, epsilon = 0.001443
 c3bf                                   6      0.0000       0.00000       A     3.31507e-01     4.13205e-01    ;  uncertainty sigma = 0.000007, epsilon = 0.001095
 c4bf                                   6      0.0000       0.00000       A     3.31512e-01     4.13247e-01    ;  uncertainty sigma = 0.000011, epsilon = 0.001047
 c5bf                                   6      0.0000       0.00000       A     3.39771e-01     4.51015e-01    ;  uncertainty sigma = 0.000004, epsilon = 0.000513
 c6bf                                   6      0.0000       0.00000       A     3.31516e-01     4.13279e-01    ;  uncertainty sigma = 0.000012, epsilon = 0.000764
 c7bf                                   6      0.0000       0.00000       A     3.31541e-01     4.13380e-01    ;  uncertainty sigma = 0.000008, epsilon = 0.000747
 c8bf                                   6      0.0000       0.00000       A     3.31505e-01     4.13231e-01    ;  uncertainty sigma = 0.000015, epsilon = 0.000497
 c9bf                                   6      0.0000       0.00000       A     3.31518e-01     4.13613e-01    ;  uncertainty sigma = 0.000012, epsilon = 0.000598
 c10bf                                  6      0.0000       0.00000       A     3.31525e-01     4.13420e-01    ;  uncertainty sigma = 0.000006, epsilon = 0.000415
 c11bf                                  6      0.0000       0.00000       A     3.31529e-01     4.13443e-01    ;  uncertainty sigma = 0.000006, epsilon = 0.000844
 c12bf                                  6      0.0000       0.00000       A     3.31511e-01     4.12124e-01    ;  uncertainty sigma = 0.000017, epsilon = 0.001001
 c13bf                                  6      0.0000       0.00000       A     3.31529e-01     4.13206e-01    ;  uncertainty sigma = 0.000019, epsilon = 0.000926
 c14bf                                  6      0.0000       0.00000       A     3.31516e-01     4.13399e-01    ;  uncertainty sigma = 0.000004, epsilon = 0.000382
 c15bf                                  6      0.0000       0.00000       A     3.39780e-01     4.50883e-01    ;  uncertainty sigma = 0.000003, epsilon = 0.000560
 n16bf                                  7      0.0000       0.00000       A     3.38414e-01     3.93153e-01    ;  uncertainty sigma = 0.000011, epsilon = 0.000436
 o17bf                                  8      0.0000       0.00000       A     3.15642e-01     3.03426e-01    ;  uncertainty sigma = 0.000016, epsilon = 0.000856
 cl18bf                                17      0.0000       0.00000       A     3.46592e-01     1.10386e+00    ;  uncertainty sigma = 0.000019, epsilon = 0.001119
 cl19bf                                17      0.0000       0.00000       A     3.46623e-01     1.10451e+00    ;  uncertainty sigma = 0.000020, epsilon = 0.000454
 c20bf                                  6      0.0000       0.00000       A     3.39771e-01     4.50686e-01    ;  uncertainty sigma = 0.000003, epsilon = 0.000470
 cl21bf                                17      0.0000       0.00000       A     3.46514e-01     1.10237e+00    ;  uncertainty sigma = 0.000040, epsilon = 0.004377
 h22bf                                  1      0.0000       0.00000       A     1.10622e-01     4.11042e-02    ;  uncertainty sigma = 0.000069, epsilon = 0.001052
 h23bf                                  1      0.0000       0.00000       A     2.60030e-01     8.67232e-02    ;  uncertainty sigma = 0.000008, epsilon = 0.000464
 h24bf                                  1      0.0000       0.00000       A     2.60030e-01     8.67232e-02    ;  uncertainty sigma = 0.000008, epsilon = 0.000464
 h25bf                                  1      0.0000       0.00000       A     2.60030e-01     8.67232e-02    ;  uncertainty sigma = 0.000008, epsilon = 0.000464
 h26bf                                  1      0.0000       0.00000       A     2.62565e-01     6.71866e-02    ;  uncertainty sigma = 0.000016, epsilon = 0.000591
 h27bf                                  1      0.0000       0.00000       A     2.62570e-01     6.72218e-02    ;  uncertainty sigma = 0.000012, epsilon = 0.000970
 h28bf                                  1      0.0000       0.00000       A     2.42205e-01     8.67536e-02    ;  uncertainty sigma = 0.000015, epsilon = 0.000624
 h29bf                                  1      0.0000       0.00000       A     2.42205e-01     8.67536e-02    ;  uncertainty sigma = 0.000015, epsilon = 0.000624
 h30bf                                  1      0.0000       0.00000       A     2.42205e-01     8.67536e-02    ;  uncertainty sigma = 0.000015, epsilon = 0.000624
 h31bf                                  1      0.0000       0.00000       A     2.60029e-01     8.67295e-02    ;  uncertainty sigma = 0.000007, epsilon = 0.000384
 h32bf                                  1      0.0000       0.00000       A     2.60029e-01     8.67297e-02    ;  uncertainty sigma = 0.000007, epsilon = 0.000384
 h33bf                                  1      0.0000       0.00000       A     2.60029e-01     8.67296e-02    ;  uncertainty sigma = 0.000007, epsilon = 0.000384

[ moleculetype ]
;name             nrexcl
 MOL                   3

[ atoms ]
;       nr            type      resi   res      atom      cgnr      charge          mass ; qtot
         1            n0bf         1   UNL        n0         1    -0.71735       14.0070 ; qtot   -0.717
         2            n1bf         1   UNL        n1         2    -0.28467       14.0070 ; qtot   -1.002
         3            c2bf         1   UNL        c2         3    -0.29630       12.0110 ; qtot   -1.298
         4            c3bf         1   UNL        c3         4     0.00034       12.0110 ; qtot   -1.298
         5            c4bf         1   UNL        c4         5    -0.03434       12.0110 ; qtot   -1.332
         6            c5bf         1   UNL        c5         6    -0.13140       12.0110 ; qtot   -1.464
         7            c6bf         1   UNL        c6         7    -0.10776       12.0110 ; qtot   -1.571
         8            c7bf         1   UNL        c7         8    -0.09258       12.0110 ; qtot   -1.664
         9            c8bf         1   UNL        c8         9    -0.15022       12.0110 ; qtot   -1.814
        10            c9bf         1   UNL        c9        10     0.13648       12.0110 ; qtot   -1.678
        11           c10bf         1   UNL       c10        11     0.05210       12.0110 ; qtot   -1.626
        12           c11bf         1   UNL       c11        12     0.00923       12.0110 ; qtot   -1.616
        13           c12bf         1   UNL       c12        13     0.55775       12.0110 ; qtot   -1.059
        14           c13bf         1   UNL       c13        14     0.46931       12.0110 ; qtot   -0.589
        15           c14bf         1   UNL       c14        15     0.68080       12.0110 ; qtot    0.091
        16           c15bf         1   UNL       c15        16     0.11900       12.0110 ; qtot    0.210
        17           n16bf         1   UNL       n16        17    -0.73010       14.0070 ; qtot   -0.520
        18           o17bf         1   UNL       o17        18    -0.31291       15.9990 ; qtot   -0.833
        19          cl18bf         1   UNL      cl18        19    -0.09673       35.4530 ; qtot   -0.929
        20          cl19bf         1   UNL      cl19        20    -0.09143       35.4530 ; qtot   -1.021
        21           c20bf         1   UNL       c20        21    -0.03761       12.0110 ; qtot   -1.058
        22          cl21bf         1   UNL      cl21        22    -0.08064       35.4530 ; qtot   -1.139
        23           h22bf         1   UNL       h22        23     0.31851        1.0080 ; qtot   -0.821
        24           h23bf         1   UNL       h23        24     0.06163        1.0080 ; qtot   -0.759
        25           h24bf         1   UNL       h24        25     0.06163        1.0080 ; qtot   -0.697
        26           h25bf         1   UNL       h25        26     0.06163        1.0080 ; qtot   -0.636
        27           h26bf         1   UNL       h26        27     0.16962        1.0080 ; qtot   -0.466
        28           h27bf         1   UNL       h27        28     0.15838        1.0080 ; qtot   -0.308
        29           h28bf         1   UNL       h28        29     0.04594        1.0080 ; qtot   -0.262
        30           h29bf         1   UNL       h29        30     0.04594        1.0080 ; qtot   -0.216
        31           h30bf         1   UNL       h30        31     0.04594        1.0080 ; qtot   -0.170
        32           h31bf         1   UNL       h31        32     0.05661        1.0080 ; qtot   -0.113
        33           h32bf         1   UNL       h32        33     0.05661        1.0080 ; qtot   -0.057
        34           h33bf         1   UNL       h33        34     0.05659        1.0080 ; qtot   -0.000

[ bonds ]
;       ai        aj funct               r               k
         1        14     1        0.133460   462783.955762    ;  uncertainty r = 0.000141, k = 13.970429
         1        15     1        0.134123   400383.262891    ;  uncertainty r = 0.000056, k = 8.781662
         2         5     1        0.139270   324684.401221    ;  uncertainty r = 0.000082, k = 12.514314
         2        14     1        0.137555   362756.834863    ;  uncertainty r = 0.000055, k = 22.087668
         2        23     1        0.101476   419240.221973    ;  uncertainty r = 0.000072, k = 1.715629
         3         4     1        0.144117   249365.429590    ;  uncertainty r = 0.000044, k = 20.816349
         3        13     1        0.140780   363399.935889    ;  uncertainty r = 0.000088, k = 23.965277
         3        14     1        0.142472   460907.642188    ;  uncertainty r = 0.000096, k = 11.597938
         4         5     1        0.137977   401139.084717    ;  uncertainty r = 0.000051, k = 8.397940
         4        22     1        0.173808   201034.190063    ;  uncertainty r = 0.000122, k = 6.904927
         5        21     1        0.149132   245433.659619    ;  uncertainty r = 0.000076, k = 10.886713
         6        15     1        0.150613   262921.523193    ;  uncertainty r = 0.000031, k = 4.130415
         6        24     1        0.109388   311699.266309    ;  uncertainty r = 0.000011, k = 2.209894
         6        25     1        0.109388   311699.266309    ;  uncertainty r = 0.000011, k = 2.209894
         6        26     1        0.109388   311699.266309    ;  uncertainty r = 0.000011, k = 2.209894
         7         9     1        0.139555   350638.735889    ;  uncertainty r = 0.000066, k = 3.616687
         7        11     1        0.139582   325098.485449    ;  uncertainty r = 0.000066, k = 8.287655
         7        13     1        0.148448   297818.008691    ;  uncertainty r = 0.000110, k = 9.223281
         8        11     1        0.139372   358825.064893    ;  uncertainty r = 0.000070, k = 5.253291
         8        12     1        0.139047   363992.422363    ;  uncertainty r = 0.000043, k = 1.798210
         8        27     1        0.108639   335863.500684    ;  uncertainty r = 0.000024, k = 1.681150
         9        10     1        0.139396   350257.262549    ;  uncertainty r = 0.000042, k = 3.783835
         9        28     1        0.108657   337664.581934    ;  uncertainty r = 0.000055, k = 2.064159
        10        12     1        0.140093   348142.049316    ;  uncertainty r = 0.000031, k = 2.825288
        10        18     1        0.136027   316431.548047    ;  uncertainty r = 0.000024, k = 4.257478
        11        19     1        0.175205   190382.048853    ;  uncertainty r = 0.000072, k = 2.957322
        12        20     1        0.174750   191921.936548    ;  uncertainty r = 0.000074, k = 4.809387
        13        17     1        0.134304   388376.531250    ;  uncertainty r = 0.000225, k = 3.807826
        15        17     1        0.135430   457087.188477    ;  uncertainty r = 0.000116, k = 15.112800
        16        18     1        0.142571   249932.915234    ;  uncertainty r = 0.000015, k = 3.432874
        16        29     1        0.109538   311091.125586    ;  uncertainty r = 0.000018, k = 1.051825
        16        30     1        0.109538   311091.125586    ;  uncertainty r = 0.000018, k = 1.051825
        16        31     1        0.109538   311091.125586    ;  uncertainty r = 0.000018, k = 1.051825
        21        32     1        0.109499   310611.819580    ;  uncertainty r = 0.000009, k = 1.959120
        21        33     1        0.109499   310611.819580    ;  uncertainty r = 0.000009, k = 1.959120
        21        34     1        0.109499   310611.819580    ;  uncertainty r = 0.000009, k = 1.959120

[ angles ]
;       ai        aj        ak funct           theta             cth
         1        14         2     1      127.788818      495.008679    ;  uncertainty theta = 0.002846, k = 0.121283
         1        14         3     1      125.489502      549.631758    ;  uncertainty theta = 0.002593, k = 0.168726
         1        15         6     1      118.655724      464.715187    ;  uncertainty theta = 0.001844, k = 0.189029
         1        15        17     1      125.917809      809.208494    ;  uncertainty theta = 0.002996, k = 0.146360
         2         5         4     1      109.388931      682.891545    ;  uncertainty theta = 0.003506, k = 0.161969
         2         5        21     1      120.996384      414.881657    ;  uncertainty theta = 0.001871, k = 0.261063
         2        14         3     1      108.616135      624.561978    ;  uncertainty theta = 0.003648, k = 0.133138
         3         4         5     1      109.032669      695.635328    ;  uncertainty theta = 0.003077, k = 0.219065
         3         4        22     1      124.391518      346.600310    ;  uncertainty theta = 0.006659, k = 0.418655
         3        13         7     1      121.740158      355.466890    ;  uncertainty theta = 0.005089, k = 0.205399
         3        13        17     1      121.669571      620.516389    ;  uncertainty theta = 0.004479, k = 0.199520
         4         3        13     1      131.640396      329.643797    ;  uncertainty theta = 0.004586, k = 0.235208
         4         3        14     1      106.566444      688.479000    ;  uncertainty theta = 0.004544, k = 0.132312
         4         5        21     1      130.216599      323.409359    ;  uncertainty theta = 0.002831, k = 0.323092
         5         2        14     1      105.327209      849.353341    ;  uncertainty theta = 0.004703, k = 0.150870
         5         2        23     1      115.670914      285.079243    ;  uncertainty theta = 0.006526, k = 0.034198
         5         4        22     1      123.103943      363.913385    ;  uncertainty theta = 0.005261, k = 0.116991
         5        21        32     1      109.341019      408.055683    ;  uncertainty theta = 0.000863, k = 0.069966
         5        21        33     1      109.341019      408.055683    ;  uncertainty theta = 0.000863, k = 0.069966
         5        21        34     1      109.341019      408.055683    ;  uncertainty theta = 0.000863, k = 0.069966
         6        15        17     1      118.564919      476.427303    ;  uncertainty theta = 0.001702, k = 0.281970
         7         9        10     1      123.824120      497.203880    ;  uncertainty theta = 0.003213, k = 0.097912
         7         9        28     1      118.305275      268.617863    ;  uncertainty theta = 0.003779, k = 0.040408
         7        11         8     1      123.517929      369.395468    ;  uncertainty theta = 0.003378, k = 0.167111
         7        11        19     1      118.138870      414.344005    ;  uncertainty theta = 0.001244, k = 0.073818
         7        13        17     1      119.078995      461.143407    ;  uncertainty theta = 0.003631, k = 0.166626
         8        11        19     1      119.085228      446.648703    ;  uncertainty theta = 0.002071, k = 0.106371
         8        12        10     1      121.501175      353.154250    ;  uncertainty theta = 0.002433, k = 0.195299
         8        12        20     1      120.459961      452.128999    ;  uncertainty theta = 0.001274, k = 0.141642
         9         7        11     1      120.919846      421.263700    ;  uncertainty theta = 0.003538, k = 0.168674
         9         7        13     1      119.135025      380.199996    ;  uncertainty theta = 0.004797, k = 0.067099
         9        10        12     1      120.902573      365.213958    ;  uncertainty theta = 0.003018, k = 0.170113
         9        10        18     1      120.189964      431.211042    ;  uncertainty theta = 0.003028, k = 0.111724
        10         9        28     1      117.825455      268.979947    ;  uncertainty theta = 0.002672, k = 0.093872
        10        12        20     1      118.634056      418.836365    ;  uncertainty theta = 0.000762, k = 0.093560
        10        18        16     1      110.262283      495.977078    ;  uncertainty theta = 0.001418, k = 0.043039
        11         7        13     1      120.584450      380.460347    ;  uncertainty theta = 0.004019, k = 0.187085
        11         8        12     1      120.770584      483.562180    ;  uncertainty theta = 0.001505, k = 0.051061
        11         8        27     1      121.148056      281.654078    ;  uncertainty theta = 0.001355, k = 0.059808
        12         8        27     1      120.726456      279.438096    ;  uncertainty theta = 0.002115, k = 0.024758
        12        10        18     1      118.643044      401.650338    ;  uncertainty theta = 0.004738, k = 0.175701
        13         3        14     1      116.671982      366.068526    ;  uncertainty theta = 0.005834, k = 0.688298
        13        17        15     1      120.257324      409.037074    ;  uncertainty theta = 0.006187, k = 0.209615
        14         1        15     1      110.358871      447.675040    ;  uncertainty theta = 0.005010, k = 0.112646
        14         2        23     1      118.725121      325.058737    ;  uncertainty theta = 0.003330, k = 0.093898
        15         6        24     1      108.763405      392.028274    ;  uncertainty theta = 0.001366, k = 0.025646
        15         6        25     1      108.763405      392.028274    ;  uncertainty theta = 0.001366, k = 0.025646
        15         6        26     1      108.763405      392.028274    ;  uncertainty theta = 0.001366, k = 0.025646
        18        16        29     1      108.817017      444.786378    ;  uncertainty theta = 0.001502, k = 0.019460
        18        16        30     1      108.817017      444.786378    ;  uncertainty theta = 0.001502, k = 0.019460
        18        16        31     1      108.817017      444.786378    ;  uncertainty theta = 0.001502, k = 0.019460
        24         6        25     1      107.320633      312.556885    ;  uncertainty theta = 0.001808, k = 0.035510
        24         6        26     1      107.320633      312.556885    ;  uncertainty theta = 0.001808, k = 0.035510
        25         6        26     1      107.320633      312.556885    ;  uncertainty theta = 0.001808, k = 0.035510
        29        16        30     1      109.133141      330.810013    ;  uncertainty theta = 0.001542, k = 0.011144
        29        16        31     1      109.133141      330.810013    ;  uncertainty theta = 0.001542, k = 0.011144
        30        16        31     1      109.133141      330.810013    ;  uncertainty theta = 0.001542, k = 0.011144
        32        21        33     1      106.741623      313.443693    ;  uncertainty theta = 0.001040, k = 0.037860
        32        21        34     1      106.741623      313.443693    ;  uncertainty theta = 0.001040, k = 0.037860
        33        21        34     1      106.741623      313.443693    ;  uncertainty theta = 0.001040, k = 0.037860

[ dihedrals ] ; propers for gromacs 4.5 or higher, use funct 9
;       ai        aj        ak        al funct           phase               k        pn
         1        14         2         5     9        0.000000       -0.252170         1    ;  uncertainty k = 0.965267
         1        14         2         5     9      180.000000        8.844754         2    ;  uncertainty k = 0.566804
         1        14         2         5     9        0.000000       -0.587991         3    ;  uncertainty k = 1.083931
         1        14         2         5     9      180.000000        0.341350         4    ;  uncertainty k = 0.414302
         1        14         2        23     9        0.000000        4.605172         1    ;  uncertainty k = 1.218428
         1        14         2        23     9      180.000000        4.335611         2    ;  uncertainty k = 0.870538
         1        14         2        23     9        0.000000        1.525389         3    ;  uncertainty k = 0.599960
         1        14         2        23     9      180.000000        0.112577         4    ;  uncertainty k = 0.120110
         1        14         3         4     9        0.000000       -0.024290         1    ;  uncertainty k = 0.666618
         1        14         3         4     9      180.000000        9.040524         2    ;  uncertainty k = 0.512548
         1        14         3         4     9        0.000000       -1.078858         3    ;  uncertainty k = 0.656845
         1        14         3         4     9      180.000000        1.367159         4    ;  uncertainty k = 0.333953
         1        14         3        13     9        0.000000       -0.570637         1    ;  uncertainty k = 0.581619
         1        14         3        13     9      180.000000        8.221818         2    ;  uncertainty k = 0.321072
         1        14         3        13     9        0.000000       -0.264384         3    ;  uncertainty k = 0.290972
         1        14         3        13     9      180.000000        1.183067         4    ;  uncertainty k = 0.171788
         1        15         6        24     9        0.000000        0.432795         1    ;  uncertainty k = 0.399118
         1        15         6        24     9      180.000000        3.580835         2    ;  uncertainty k = 0.083645
         1        15         6        24     9        0.000000        0.455358         3    ;  uncertainty k = 0.080236
         1        15         6        24     9      180.000000        0.228388         4    ;  uncertainty k = 0.023482
         1        15         6        25     9        0.000000        0.432795         1    ;  uncertainty k = 0.399118
         1        15         6        25     9      180.000000        3.580835         2    ;  uncertainty k = 0.083645
         1        15         6        25     9        0.000000        0.455358         3    ;  uncertainty k = 0.080236
         1        15         6        25     9      180.000000        0.228388         4    ;  uncertainty k = 0.023482
         1        15         6        26     9        0.000000        0.432795         1    ;  uncertainty k = 0.399118
         1        15         6        26     9      180.000000        3.580835         2    ;  uncertainty k = 0.083645
         1        15         6        26     9        0.000000        0.455358         3    ;  uncertainty k = 0.080236
         1        15         6        26     9      180.000000        0.228388         4    ;  uncertainty k = 0.023482
         1        15        17        13     9        0.000000       -1.098645         1    ;  uncertainty k = 0.730505
         1        15        17        13     9      180.000000       11.721551         2    ;  uncertainty k = 0.233706
         1        15        17        13     9        0.000000        1.001108         3    ;  uncertainty k = 0.586010
         1        15        17        13     9      180.000000        1.074373         4    ;  uncertainty k = 0.126230
         2         5         4         3     9        0.000000        0.201150         1    ;  uncertainty k = 0.394176
         2         5         4         3     9      180.000000       20.708862         2    ;  uncertainty k = 0.344203
         2         5         4         3     9        0.000000       -4.343055         3    ;  uncertainty k = 0.470004
         2         5         4         3     9      180.000000        1.032569         4    ;  uncertainty k = 0.560911
         2         5         4        22     9        0.000000        0.294396         1    ;  uncertainty k = 0.695005
         2         5         4        22     9      180.000000       17.292677         2    ;  uncertainty k = 0.575405
         2         5         4        22     9        0.000000        1.998465         3    ;  uncertainty k = 0.505673
         2         5         4        22     9      180.000000        0.746816         4    ;  uncertainty k = 0.299543
         2         5        21        32     9        0.000000       -0.755653         1    ;  uncertainty k = 0.451484
         2         5        21        32     9      180.000000        0.171152         2    ;  uncertainty k = 0.236677
         2         5        21        32     9        0.000000        0.840340         3    ;  uncertainty k = 0.071689
         2         5        21        32     9      180.000000        0.184574         4    ;  uncertainty k = 0.045445
         2         5        21        33     9        0.000000       -0.755653         1    ;  uncertainty k = 0.451484
         2         5        21        33     9      180.000000        0.171152         2    ;  uncertainty k = 0.236677
         2         5        21        33     9        0.000000        0.840340         3    ;  uncertainty k = 0.071689
         2         5        21        33     9      180.000000        0.184574         4    ;  uncertainty k = 0.045445
         2         5        21        34     9        0.000000       -0.755653         1    ;  uncertainty k = 0.451484
         2         5        21        34     9      180.000000        0.171152         2    ;  uncertainty k = 0.236677
         2         5        21        34     9        0.000000        0.840340         3    ;  uncertainty k = 0.071689
         2         5        21        34     9      180.000000        0.184574         4    ;  uncertainty k = 0.045445
         2        14         1        15     9        0.000000       -0.392036         1    ;  uncertainty k = 0.784767
         2        14         1        15     9      180.000000       17.379388         2    ;  uncertainty k = 0.389511
         2        14         1        15     9        0.000000        1.392233         3    ;  uncertainty k = 0.457776
         2        14         1        15     9      180.000000        1.261915         4    ;  uncertainty k = 0.452080
         2        14         3         4     9        0.000000       -0.183254         1    ;  uncertainty k = 0.451634
         2        14         3         4     9      180.000000       11.137951         2    ;  uncertainty k = 0.842698
         2        14         3         4     9        0.000000       -3.674788         3    ;  uncertainty k = 0.963018
         2        14         3         4     9      180.000000        1.509078         4    ;  uncertainty k = 0.674251
         2        14         3        13     9        0.000000       -0.349209         1    ;  uncertainty k = 0.730536
         2        14         3        13     9      180.000000        6.892026         2    ;  uncertainty k = 0.562103
         2        14         3        13     9        0.000000       -0.622026         3    ;  uncertainty k = 0.669108
         2        14         3        13     9      180.000000        1.056710         4    ;  uncertainty k = 0.376232
         3         4         5        21     9        0.000000       -0.200621         1    ;  uncertainty k = 1.428013
         3         4         5        21     9      180.000000       11.760248         2    ;  uncertainty k = 0.662126
         3         4         5        21     9        0.000000        2.229985         3    ;  uncertainty k = 0.413383
         3         4         5        21     9      180.000000        0.978577         4    ;  uncertainty k = 0.336190
         3        13         7         9     9        0.000000       -0.192238         1    ;  uncertainty k = 0.803141
         3        13         7         9     9      180.000000        4.459353         2    ;  uncertainty k = 0.496623
         3        13         7         9     9        0.000000        0.399498         3    ;  uncertainty k = 0.273222
         3        13         7         9     9      180.000000        0.430054         4    ;  uncertainty k = 0.160158
         3        13         7        11     9        0.000000       -0.684319         1    ;  uncertainty k = 1.499731
         3        13         7        11     9      180.000000        3.556909         2    ;  uncertainty k = 0.643559
         3        13         7        11     9        0.000000        0.684033         3    ;  uncertainty k = 0.478272
         3        13         7        11     9      180.000000        0.247261         4    ;  uncertainty k = 0.200149
         3        13        17        15     9        0.000000       -0.064771         1    ;  uncertainty k = 0.790929
         3        13        17        15     9      180.000000       15.480138         2    ;  uncertainty k = 0.468180
         3        13        17        15     9        0.000000        0.653262         3    ;  uncertainty k = 0.797671
         3        13        17        15     9      180.000000        1.613548         4    ;  uncertainty k = 0.516005
         3        14         1        15     9        0.000000       -0.209778         1    ;  uncertainty k = 0.815276
         3        14         1        15     9      180.000000       12.728605         2    ;  uncertainty k = 0.586625
         3        14         1        15     9        0.000000       -0.330548         3    ;  uncertainty k = 0.270434
         3        14         1        15     9      180.000000        0.952147         4    ;  uncertainty k = 0.228859
         3        14         2         5     9        0.000000        0.438238         1    ;  uncertainty k = 0.687207
         3        14         2         5     9      180.000000       15.083089         2    ;  uncertainty k = 0.786021
         3        14         2         5     9        0.000000       -7.355832         3    ;  uncertainty k = 1.884175
         3        14         2         5     9      180.000000        0.630407         4    ;  uncertainty k = 0.287947
         3        14         2        23     9        0.000000        4.582092         1    ;  uncertainty k = 1.715346
         3        14         2        23     9      180.000000        6.744106         2    ;  uncertainty k = 0.760053
         3        14         2        23     9        0.000000        1.227535         3    ;  uncertainty k = 0.253696
         3        14         2        23     9      180.000000        0.113610         4    ;  uncertainty k = 0.255984
         4         3        13         7     9        0.000000        0.093592         1    ;  uncertainty k = 1.292026
         4         3        13         7     9      180.000000        4.955754         2    ;  uncertainty k = 0.408190
         4         3        13         7     9        0.000000        1.087995         3    ;  uncertainty k = 0.290174
         4         3        13         7     9      180.000000        0.701023         4    ;  uncertainty k = 0.143877
         4         3        13        17     9        0.000000       -0.232932         1    ;  uncertainty k = 0.614705
         4         3        13        17     9      180.000000        7.964337         2    ;  uncertainty k = 0.932709
         4         3        13        17     9        0.000000        0.241199         3    ;  uncertainty k = 0.346945
         4         3        13        17     9      180.000000        0.965185         4    ;  uncertainty k = 0.507847
         4         5         2        14     9        0.000000       -0.638038         1    ;  uncertainty k = 0.523254
         4         5         2        14     9      180.000000       13.950757         2    ;  uncertainty k = 0.356168
         4         5         2        14     9        0.000000       -6.378975         3    ;  uncertainty k = 1.137368
         4         5         2        14     9      180.000000        1.031322         4    ;  uncertainty k = 0.279460
         4         5         2        23     9        0.000000        3.167923         1    ;  uncertainty k = 1.066874
         4         5         2        23     9      180.000000        7.862513         2    ;  uncertainty k = 0.534484
         4         5         2        23     9        0.000000        1.923533         3    ;  uncertainty k = 0.801940
         4         5         2        23     9      180.000000       -0.123647         4    ;  uncertainty k = 0.252576
         4         5        21        32     9        0.000000        0.669206         1    ;  uncertainty k = 0.292942
         4         5        21        32     9      180.000000        1.034355         2    ;  uncertainty k = 0.141480
         4         5        21        32     9        0.000000        0.193688         3    ;  uncertainty k = 0.049016
         4         5        21        32     9      180.000000        0.117247         4    ;  uncertainty k = 0.046059
         4         5        21        33     9        0.000000        0.669206         1    ;  uncertainty k = 0.292942
         4         5        21        33     9      180.000000        1.034355         2    ;  uncertainty k = 0.141480
         4         5        21        33     9        0.000000        0.193688         3    ;  uncertainty k = 0.049016
         4         5        21        33     9      180.000000        0.117247         4    ;  uncertainty k = 0.046059
         4         5        21        34     9        0.000000        0.669206         1    ;  uncertainty k = 0.292942
         4         5        21        34     9      180.000000        1.034355         2    ;  uncertainty k = 0.141480
         4         5        21        34     9        0.000000        0.193688         3    ;  uncertainty k = 0.049016
         4         5        21        34     9      180.000000        0.117247         4    ;  uncertainty k = 0.046059
         5         4         3        13     9        0.000000        0.822544         1    ;  uncertainty k = 0.685609
         5         4         3        13     9      180.000000        4.427866         2    ;  uncertainty k = 0.804484
         5         4         3        13     9        0.000000        0.702657         3    ;  uncertainty k = 0.352740
         5         4         3        13     9      180.000000        0.586211         4    ;  uncertainty k = 0.381785
         5         4         3        14     9        0.000000        0.248070         1    ;  uncertainty k = 1.169374
         5         4         3        14     9      180.000000       10.969389         2    ;  uncertainty k = 1.010865
         5         4         3        14     9        0.000000      -10.038723         3    ;  uncertainty k = 2.302363
         5         4         3        14     9      180.000000        1.776509         4    ;  uncertainty k = 0.506711
         6        15         1        14     9        0.000000        0.634112         1    ;  uncertainty k = 1.124678
         6        15         1        14     9      180.000000       14.752549         2    ;  uncertainty k = 0.479112
         6        15         1        14     9        0.000000        2.468848         3    ;  uncertainty k = 0.264376
         6        15         1        14     9      180.000000        1.354678         4    ;  uncertainty k = 0.352670
         6        15        17        13     9        0.000000        0.216349         1    ;  uncertainty k = 0.625637
         6        15        17        13     9      180.000000       10.144429         2    ;  uncertainty k = 0.247952
         6        15        17        13     9        0.000000        1.791058         3    ;  uncertainty k = 0.558128
         6        15        17        13     9      180.000000        1.241208         4    ;  uncertainty k = 0.335599
         7         9        10        12     9        0.000000        0.065198         1    ;  uncertainty k = 0.346044
         7         9        10        12     9      180.000000        7.291470         2    ;  uncertainty k = 0.784115
         7         9        10        12     9        0.000000        0.561294         3    ;  uncertainty k = 0.233570
         7         9        10        12     9      180.000000        1.531863         4    ;  uncertainty k = 0.330810
         7         9        10        18     9        0.000000        0.025076         1    ;  uncertainty k = 0.206117
         7         9        10        18     9      180.000000       10.747622         2    ;  uncertainty k = 0.201940
         7         9        10        18     9        0.000000        1.135231         3    ;  uncertainty k = 0.209219
         7         9        10        18     9      180.000000        1.686382         4    ;  uncertainty k = 0.144653
         7        11         8        12     9        0.000000       -0.010188         1    ;  uncertainty k = 0.304789
         7        11         8        12     9      180.000000        8.900271         2    ;  uncertainty k = 0.449686
         7        11         8        12     9        0.000000        0.153592         3    ;  uncertainty k = 0.354397
         7        11         8        12     9      180.000000        1.309339         4    ;  uncertainty k = 0.330617
         7        11         8        27     9        0.000000        0.019628         1    ;  uncertainty k = 0.187667
         7        11         8        27     9      180.000000        5.846183         2    ;  uncertainty k = 0.702231
         7        11         8        27     9        0.000000        1.334838         3    ;  uncertainty k = 0.324109
         7        11         8        27     9      180.000000        1.621210         4    ;  uncertainty k = 0.233739
         7        13         3        14     9        0.000000        0.164769         1    ;  uncertainty k = 0.724535
         7        13         3        14     9      180.000000        7.391832         2    ;  uncertainty k = 0.711965
         7        13         3        14     9        0.000000        0.653125         3    ;  uncertainty k = 0.289198
         7        13         3        14     9      180.000000        0.862773         4    ;  uncertainty k = 0.350934
         7        13        17        15     9        0.000000       -0.522499         1    ;  uncertainty k = 0.677068
         7        13        17        15     9      180.000000       16.335051         2    ;  uncertainty k = 0.731972
         7        13        17        15     9        0.000000        2.198105         3    ;  uncertainty k = 0.641951
         7        13        17        15     9      180.000000        1.757345         4    ;  uncertainty k = 0.431954
         8        11         7         9     9        0.000000       -0.222555         1    ;  uncertainty k = 0.458531
         8        11         7         9     9      180.000000        7.832678         2    ;  uncertainty k = 0.753452
         8        11         7         9     9        0.000000       -0.007415         3    ;  uncertainty k = 0.353453
         8        11         7         9     9      180.000000        1.216409         4    ;  uncertainty k = 0.308455
         8        11         7        13     9        0.000000       -0.006296         1    ;  uncertainty k = 0.489977
         8        11         7        13     9      180.000000        6.516913         2    ;  uncertainty k = 0.583810
         8        11         7        13     9        0.000000        1.374285         3    ;  uncertainty k = 0.319103
         8        11         7        13     9      180.000000        1.775558         4    ;  uncertainty k = 0.172670
         8        12        10         9     9        0.000000       -0.160112         1    ;  uncertainty k = 0.365456
         8        12        10         9     9      180.000000        5.802140         2    ;  uncertainty k = 0.973452
         8        12        10         9     9        0.000000        0.439924         3    ;  uncertainty k = 0.180992
         8        12        10         9     9      180.000000        1.284193         4    ;  uncertainty k = 0.381519
         8        12        10        18     9        0.000000        0.168677         1    ;  uncertainty k = 0.147161
         8        12        10        18     9      180.000000        7.998622         2    ;  uncertainty k = 0.496512
         8        12        10        18     9        0.000000        1.217222         3    ;  uncertainty k = 0.240785
         8        12        10        18     9      180.000000        1.684817         4    ;  uncertainty k = 0.129999
         9         7        11        19     9        0.000000       -0.033887         1    ;  uncertainty k = 0.261635
         9         7        11        19     9      180.000000        7.927518         2    ;  uncertainty k = 0.298150
         9         7        11        19     9        0.000000        1.346965         3    ;  uncertainty k = 0.357294
         9         7        11        19     9      180.000000        1.530426         4    ;  uncertainty k = 0.130700
         9         7        13        17     9        0.000000        1.719759         1    ;  uncertainty k = 1.361192
         9         7        13        17     9      180.000000        6.230377         2    ;  uncertainty k = 0.206900
         9         7        13        17     9        0.000000        0.465692         3    ;  uncertainty k = 0.194668
         9         7        13        17     9      180.000000        0.447485         4    ;  uncertainty k = 0.151482
         9        10        12        20     9        0.000000        0.246617         1    ;  uncertainty k = 0.379115
         9        10        12        20     9      180.000000        6.909539         2    ;  uncertainty k = 0.691172
         9        10        12        20     9        0.000000        1.419799         3    ;  uncertainty k = 0.301860
         9        10        12        20     9      180.000000        1.464056         4    ;  uncertainty k = 0.209372
         9        10        18        16     9        0.000000       -0.042244         1    ;  uncertainty k = 0.307327
         9        10        18        16     9      180.000000        6.518517         2    ;  uncertainty k = 0.219686
         9        10        18        16     9        0.000000       -0.371907         3    ;  uncertainty k = 0.148397
         9        10        18        16     9      180.000000        0.073097         4    ;  uncertainty k = 0.099372
        10         9         7        11     9        0.000000        0.058421         1    ;  uncertainty k = 0.193442
        10         9         7        11     9      180.000000       10.065540         2    ;  uncertainty k = 0.527410
        10         9         7        11     9        0.000000        0.092139         3    ;  uncertainty k = 0.184137
        10         9         7        11     9      180.000000        1.274336         4    ;  uncertainty k = 0.327745
        10         9         7        13     9        0.000000        0.112589         1    ;  uncertainty k = 0.187357
        10         9         7        13     9      180.000000        8.326515         2    ;  uncertainty k = 0.533191
        10         9         7        13     9        0.000000        1.460048         3    ;  uncertainty k = 0.354330
        10         9         7        13     9      180.000000        1.907510         4    ;  uncertainty k = 0.205246
        10        12         8        11     9        0.000000       -0.051246         1    ;  uncertainty k = 0.265356
        10        12         8        11     9      180.000000        8.906679         2    ;  uncertainty k = 0.444345
        10        12         8        11     9        0.000000        0.373666         3    ;  uncertainty k = 0.412984
        10        12         8        11     9      180.000000        1.383742         4    ;  uncertainty k = 0.241518
        10        12         8        27     9        0.000000        0.026970         1    ;  uncertainty k = 0.201681
        10        12         8        27     9      180.000000        6.665757         2    ;  uncertainty k = 0.606409
        10        12         8        27     9        0.000000        1.325554         3    ;  uncertainty k = 0.393768
        10        12         8        27     9      180.000000        1.580156         4    ;  uncertainty k = 0.149897
        10        18        16        29     9        0.000000        1.124364         1    ;  uncertainty k = 0.199625
        10        18        16        29     9      180.000000       -2.017544         2    ;  uncertainty k = 0.263863
        10        18        16        29     9        0.000000        1.022273         3    ;  uncertainty k = 0.022119
        10        18        16        29     9      180.000000        0.258390         4    ;  uncertainty k = 0.036975
        10        18        16        30     9        0.000000        1.124364         1    ;  uncertainty k = 0.199625
        10        18        16        30     9      180.000000       -2.017544         2    ;  uncertainty k = 0.263863
        10        18        16        30     9        0.000000        1.022273         3    ;  uncertainty k = 0.022119
        10        18        16        30     9      180.000000        0.258390         4    ;  uncertainty k = 0.036975
        10        18        16        31     9        0.000000        1.124364         1    ;  uncertainty k = 0.199625
        10        18        16        31     9      180.000000       -2.017544         2    ;  uncertainty k = 0.263863
        10        18        16        31     9        0.000000        1.022273         3    ;  uncertainty k = 0.022119
        10        18        16        31     9      180.000000        0.258390         4    ;  uncertainty k = 0.036975
        11         7         9        28     9        0.000000        0.204584         1    ;  uncertainty k = 0.196353
        11         7         9        28     9      180.000000        7.427554         2    ;  uncertainty k = 0.204942
        11         7         9        28     9        0.000000        1.321450         3    ;  uncertainty k = 0.357789
        11         7         9        28     9      180.000000        1.637680         4    ;  uncertainty k = 0.098107
        11         7        13        17     9        0.000000        1.130160         1    ;  uncertainty k = 0.663523
        11         7        13        17     9      180.000000        5.335583         2    ;  uncertainty k = 0.191817
        11         7        13        17     9        0.000000        1.005568         3    ;  uncertainty k = 0.253824
        11         7        13        17     9      180.000000        0.378702         4    ;  uncertainty k = 0.121179
        11         8        12        20     9        0.000000       -0.011355         1    ;  uncertainty k = 0.190662
        11         8        12        20     9      180.000000        9.747868         2    ;  uncertainty k = 0.618011
        11         8        12        20     9        0.000000        1.512293         3    ;  uncertainty k = 0.404646
        11         8        12        20     9      180.000000        1.724437         4    ;  uncertainty k = 0.192266
        12         8        11        19     9        0.000000        0.060056         1    ;  uncertainty k = 0.110838
        12         8        11        19     9      180.000000        9.377505         2    ;  uncertainty k = 0.372753
        12         8        11        19     9        0.000000        1.351015         3    ;  uncertainty k = 0.364493
        12         8        11        19     9      180.000000        1.708250         4    ;  uncertainty k = 0.122914
        12        10         9        28     9        0.000000        0.252864         1    ;  uncertainty k = 0.226630
        12        10         9        28     9      180.000000        5.954042         2    ;  uncertainty k = 0.292010
        12        10         9        28     9        0.000000        1.494457         3    ;  uncertainty k = 0.316005
        12        10         9        28     9      180.000000        1.825252         4    ;  uncertainty k = 0.132671
        12        10        18        16     9        0.000000        2.249741         1    ;  uncertainty k = 0.466203
        12        10        18        16     9      180.000000        5.839435         2    ;  uncertainty k = 0.118861
        12        10        18        16     9        0.000000        1.185093         3    ;  uncertainty k = 0.203567
        12        10        18        16     9      180.000000        0.095406         4    ;  uncertainty k = 0.053427
        13         3         4        22     9        0.000000        0.229604         1    ;  uncertainty k = 1.510882
        13         3         4        22     9      180.000000        3.481642         2    ;  uncertainty k = 1.091257
        13         3         4        22     9        0.000000        1.355915         3    ;  uncertainty k = 0.290165
        13         3         4        22     9      180.000000        0.029654         4    ;  uncertainty k = 0.289253
        13         7         9        28     9        0.000000       -0.068517         1    ;  uncertainty k = 0.204486
        13         7         9        28     9      180.000000        8.004808         2    ;  uncertainty k = 0.312757
        13         7         9        28     9        0.000000        0.753421         3    ;  uncertainty k = 0.275534
        13         7         9        28     9      180.000000        1.326809         4    ;  uncertainty k = 0.065728
        13         7        11        19     9        0.000000       -0.266313         1    ;  uncertainty k = 0.554881
        13         7        11        19     9      180.000000        7.869889         2    ;  uncertainty k = 0.393061
        13         7        11        19     9        0.000000        1.245857         3    ;  uncertainty k = 0.212034
        13         7        11        19     9      180.000000        1.450352         4    ;  uncertainty k = 0.181603
        14         1        15        17     9        0.000000       -0.392367         1    ;  uncertainty k = 0.552350
        14         1        15        17     9      180.000000       16.504075         2    ;  uncertainty k = 0.222199
        14         1        15        17     9        0.000000        1.346997         3    ;  uncertainty k = 0.306033
        14         1        15        17     9      180.000000        1.206069         4    ;  uncertainty k = 0.163032
        14         2         5        21     9        0.000000        1.312296         1    ;  uncertainty k = 0.734884
        14         2         5        21     9      180.000000        8.334302         2    ;  uncertainty k = 0.228784
        14         2         5        21     9        0.000000        1.643146         3    ;  uncertainty k = 0.058839
        14         2         5        21     9      180.000000        0.025156         4    ;  uncertainty k = 0.088592
        14         3         4        22     9        0.000000        0.973388         1    ;  uncertainty k = 0.735001
        14         3         4        22     9      180.000000        9.598869         2    ;  uncertainty k = 0.431137
        14         3         4        22     9        0.000000        1.918969         3    ;  uncertainty k = 0.112800
        14         3         4        22     9      180.000000        0.244569         4    ;  uncertainty k = 0.313755
        14         3        13        17     9        0.000000       -0.599701         1    ;  uncertainty k = 0.564230
        14         3        13        17     9      180.000000       11.278669         2    ;  uncertainty k = 0.262386
        14         3        13        17     9        0.000000       -1.247960         3    ;  uncertainty k = 0.440584
        14         3        13        17     9      180.000000        0.846058         4    ;  uncertainty k = 0.126964
        17        15         6        24     9        0.000000        0.285302         1    ;  uncertainty k = 0.218194
        17        15         6        24     9      180.000000        3.671810         2    ;  uncertainty k = 0.138420
        17        15         6        24     9        0.000000        0.534210         3    ;  uncertainty k = 0.051426
        17        15         6        24     9      180.000000        0.248682         4    ;  uncertainty k = 0.041398
        17        15         6        25     9        0.000000        0.285302         1    ;  uncertainty k = 0.218194
        17        15         6        25     9      180.000000        3.671810         2    ;  uncertainty k = 0.138420
        17        15         6        25     9        0.000000        0.534210         3    ;  uncertainty k = 0.051426
        17        15         6        25     9      180.000000        0.248682         4    ;  uncertainty k = 0.041398
        17        15         6        26     9        0.000000        0.285302         1    ;  uncertainty k = 0.218194
        17        15         6        26     9      180.000000        3.671810         2    ;  uncertainty k = 0.138420
        17        15         6        26     9        0.000000        0.534210         3    ;  uncertainty k = 0.051426
        17        15         6        26     9      180.000000        0.248682         4    ;  uncertainty k = 0.041398
        18        10         9        28     9        0.000000        0.005613         1    ;  uncertainty k = 0.270060
        18        10         9        28     9      180.000000        9.115472         2    ;  uncertainty k = 0.424603
        18        10         9        28     9        0.000000        0.801237         3    ;  uncertainty k = 0.159315
        18        10         9        28     9      180.000000        1.345057         4    ;  uncertainty k = 0.285009
        18        10        12        20     9        0.000000       -0.208518         1    ;  uncertainty k = 0.727865
        18        10        12        20     9      180.000000        9.554306         2    ;  uncertainty k = 0.396275
        18        10        12        20     9        0.000000        0.864518         3    ;  uncertainty k = 0.255533
        18        10        12        20     9      180.000000        1.371781         4    ;  uncertainty k = 0.179734
        19        11         8        27     9        0.000000       -0.133254         1    ;  uncertainty k = 0.421231
        19        11         8        27     9      180.000000        7.579307         2    ;  uncertainty k = 0.497753
        19        11         8        27     9        0.000000        0.609942         3    ;  uncertainty k = 0.285419
        19        11         8        27     9      180.000000        1.137636         4    ;  uncertainty k = 0.276633
        20        12         8        27     9        0.000000       -0.204169         1    ;  uncertainty k = 0.240359
        20        12         8        27     9      180.000000        7.600901         2    ;  uncertainty k = 0.534725
        20        12         8        27     9        0.000000        0.578093         3    ;  uncertainty k = 0.285093
        20        12         8        27     9      180.000000        1.053978         4    ;  uncertainty k = 0.242327
        21         5         2        23     9        0.000000        0.798454         1    ;  uncertainty k = 1.023217
        21         5         2        23     9      180.000000        1.550946         2    ;  uncertainty k = 0.724505
        21         5         2        23     9        0.000000        1.344691         3    ;  uncertainty k = 0.500012
        21         5         2        23     9      180.000000        0.138496         4    ;  uncertainty k = 0.232105
        21         5         4        22     9        0.000000       -0.253138         1    ;  uncertainty k = 0.621618
        21         5         4        22     9      180.000000        9.348106         2    ;  uncertainty k = 0.541581
        21         5         4        22     9        0.000000        1.522825         3    ;  uncertainty k = 0.125896
        21         5         4        22     9      180.000000        0.787813         4    ;  uncertainty k = 0.180858

[ dihedrals ] ; impropers
;       ai        aj        ak        al funct           phase               k        pn
         3         4        13        14     4      180.000000        0.114927         2    ;  uncertainty k = 0.256984
         3        13        14         4     4      180.000000        0.114927         2    ;  uncertainty k = 0.256984
         3        14         4        13     4      180.000000        0.114927         2    ;  uncertainty k = 0.256984
         4         3         5        22     4      180.000000        3.181823         2    ;  uncertainty k = 0.804457
         4         5        22         3     4      180.000000        3.181823         2    ;  uncertainty k = 0.804457
         4        22         3         5     4      180.000000        3.181823         2    ;  uncertainty k = 0.804457
         5         2         4        21     4      180.000000        9.833113         2    ;  uncertainty k = 0.304463
         5         4        21         2     4      180.000000        9.833113         2    ;  uncertainty k = 0.304463
         5        21         2         4     4      180.000000        9.833113         2    ;  uncertainty k = 0.304463
         7         9        11        13     4      180.000000       12.057556         2    ;  uncertainty k = 0.171065
         7        11        13         9     4      180.000000       12.057556         2    ;  uncertainty k = 0.171065
         7        13         9        11     4      180.000000       12.057556         2    ;  uncertainty k = 0.171065
         8        11        12        27     4      180.000000        2.942476         2    ;  uncertainty k = 0.290343
         8        12        27        11     4      180.000000        2.942476         2    ;  uncertainty k = 0.290343
         8        27        11        12     4      180.000000        2.942476         2    ;  uncertainty k = 0.290343
         9         7        10        28     4      180.000000        2.806981         2    ;  uncertainty k = 0.189155
         9        10        28         7     4      180.000000        2.806981         2    ;  uncertainty k = 0.189155
         9        28         7        10     4      180.000000        2.806981         2    ;  uncertainty k = 0.189155
        10         9        12        18     4      180.000000       17.975412         2    ;  uncertainty k = 0.072472
        10        12        18         9     4      180.000000       17.975412         2    ;  uncertainty k = 0.072472
        10        18         9        12     4      180.000000       17.975412         2    ;  uncertainty k = 0.072472
        11         7         8        19     4      180.000000       13.608989         2    ;  uncertainty k = 0.075133
        11         8        19         7     4      180.000000       13.608989         2    ;  uncertainty k = 0.075133
        11        19         7         8     4      180.000000       13.608989         2    ;  uncertainty k = 0.075133
        12         8        10        20     4      180.000000       11.859023         2    ;  uncertainty k = 0.093671
        12        10        20         8     4      180.000000       11.859023         2    ;  uncertainty k = 0.093671
        12        20         8        10     4      180.000000       11.859023         2    ;  uncertainty k = 0.093671
        13         3         7        17     4      180.000000       28.235507         2    ;  uncertainty k = 0.078943
        13         7        17         3     4      180.000000       28.235507         2    ;  uncertainty k = 0.078943
        13        17         3         7     4      180.000000       28.235507         2    ;  uncertainty k = 0.078943
        14         1         2         3     4      180.000000       11.428966         2    ;  uncertainty k = 0.220334
        14         2         3         1     4      180.000000       11.428966         2    ;  uncertainty k = 0.220334
        14         3         1         2     4      180.000000       11.428966         2    ;  uncertainty k = 0.220334
        15         1         6        17     4      180.000000       36.380778         2    ;  uncertainty k = 0.032897
        15         6        17         1     4      180.000000       36.380778         2    ;  uncertainty k = 0.032897
        15        17         1         6     4      180.000000       36.380778         2    ;  uncertainty k = 0.032897

[ pairs ]
;       ai        aj funct
         1         4     1
         1         5     1
         1        13     1
         1        23     1
         1        24     1
         1        25     1
         1        26     1
         2        13     1
         2        15     1
         2        22     1
         2        32     1
         2        33     1
         2        34     1
         3         9     1
         3        11     1
         3        15     1
         3        21     1
         3        23     1
         4         7     1
         4        17     1
         4        23     1
         4        32     1
         4        33     1
         4        34     1
         5        13     1
         6        13     1
         6        14     1
         7        12     1
         7        14     1
         7        15     1
         7        18     1
         7        27     1
         8         9     1
         8        13     1
         8        18     1
         9        16     1
         9        17     1
         9        19     1
         9        20     1
        10        11     1
        10        13     1
        10        27     1
        10        29     1
        10        30     1
        10        31     1
        11        17     1
        11        20     1
        11        28     1
        12        16     1
        12        19     1
        12        28     1
        13        19     1
        13        22     1
        13        28     1
        14        17     1
        14        21     1
        14        22     1
        17        24     1
        17        25     1
        17        26     1
        18        20     1
        18        28     1
        19        27     1
        20        27     1
        21        22     1
        21        23     1
