; ITP file created by ByteFF-joint-25, 2025-07-14 11:38:36.491892

[ atomtypes ]
;name           bonded.type        at.num        mass        charge   ptype           sigma         epsilon
 n0bf                                   7      0.0000       0.00000       A     3.38459e-01     3.93567e-01    ;  uncertainty sigma = 0.000020, epsilon = 0.000513
 n1bf                                   7      0.0000       0.00000       A     3.36924e-01     4.68097e-01    ;  uncertainty sigma = 0.000039, epsilon = 0.003482
 c2bf                                   6      0.0000       0.00000       A     3.31509e-01     4.13233e-01    ;  uncertainty sigma = 0.000007, epsilon = 0.000481
 c3bf                                   6      0.0000       0.00000       A     3.39775e-01     4.50909e-01    ;  uncertainty sigma = 0.000006, epsilon = 0.000556
 c4bf                                   6      0.0000       0.00000       A     3.31512e-01     4.12900e-01    ;  uncertainty sigma = 0.000010, epsilon = 0.000665
 c5bf                                   6      0.0000       0.00000       A     3.31523e-01     4.13442e-01    ;  uncertainty sigma = 0.000006, epsilon = 0.000884
 c6bf                                   6      0.0000       0.00000       A     3.31541e-01     4.13351e-01    ;  uncertainty sigma = 0.000008, epsilon = 0.000781
 c7bf                                   6      0.0000       0.00000       A     3.31519e-01     4.13519e-01    ;  uncertainty sigma = 0.000013, epsilon = 0.000623
 c8bf                                   6      0.0000       0.00000       A     3.31512e-01     4.13017e-01    ;  uncertainty sigma = 0.000008, epsilon = 0.000514
 c9bf                                   6      0.0000       0.00000       A     3.31514e-01     4.13319e-01    ;  uncertainty sigma = 0.000011, epsilon = 0.000539
 c10bf                                  6      0.0000       0.00000       A     3.31529e-01     4.13443e-01    ;  uncertainty sigma = 0.000006, epsilon = 0.000844
 c11bf                                  6      0.0000       0.00000       A     3.31511e-01     4.12759e-01    ;  uncertainty sigma = 0.000009, epsilon = 0.000930
 c12bf                                  6      0.0000       0.00000       A     3.31547e-01     4.12822e-01    ;  uncertainty sigma = 0.000025, epsilon = 0.000517
 c13bf                                  6      0.0000       0.00000       A     3.39780e-01     4.50883e-01    ;  uncertainty sigma = 0.000003, epsilon = 0.000560
 c14bf                                  6      0.0000       0.00000       A     3.31537e-01     4.13425e-01    ;  uncertainty sigma = 0.000008, epsilon = 0.001033
 o15bf                                  8      0.0000       0.00000       A     3.15642e-01     3.03426e-01    ;  uncertainty sigma = 0.000016, epsilon = 0.000856
 cl16bf                                17      0.0000       0.00000       A     3.46597e-01     1.10440e+00    ;  uncertainty sigma = 0.000019, epsilon = 0.001044
 cl17bf                                17      0.0000       0.00000       A     3.46623e-01     1.10451e+00    ;  uncertainty sigma = 0.000020, epsilon = 0.000454
 h18bf                                  1      0.0000       0.00000       A     1.10719e-01     4.14216e-02    ;  uncertainty sigma = 0.000063, epsilon = 0.000205
 h19bf                                  1      0.0000       0.00000       A     1.10719e-01     4.14216e-02    ;  uncertainty sigma = 0.000063, epsilon = 0.000205
 h20bf                                  1      0.0000       0.00000       A     2.60034e-01     8.66333e-02    ;  uncertainty sigma = 0.000007, epsilon = 0.000537
 h21bf                                  1      0.0000       0.00000       A     2.60034e-01     8.66333e-02    ;  uncertainty sigma = 0.000007, epsilon = 0.000537
 h22bf                                  1      0.0000       0.00000       A     2.60034e-01     8.66333e-02    ;  uncertainty sigma = 0.000007, epsilon = 0.000537
 h23bf                                  1      0.0000       0.00000       A     2.62565e-01     6.71866e-02    ;  uncertainty sigma = 0.000016, epsilon = 0.000591
 h24bf                                  1      0.0000       0.00000       A     2.62563e-01     6.72081e-02    ;  uncertainty sigma = 0.000011, epsilon = 0.000809
 h25bf                                  1      0.0000       0.00000       A     2.62558e-01     6.69416e-02    ;  uncertainty sigma = 0.000007, epsilon = 0.000435
 h26bf                                  1      0.0000       0.00000       A     2.42205e-01     8.67536e-02    ;  uncertainty sigma = 0.000015, epsilon = 0.000624
 h27bf                                  1      0.0000       0.00000       A     2.42205e-01     8.67536e-02    ;  uncertainty sigma = 0.000015, epsilon = 0.000624
 h28bf                                  1      0.0000       0.00000       A     2.42205e-01     8.67537e-02    ;  uncertainty sigma = 0.000015, epsilon = 0.000624
 h29bf                                  1      0.0000       0.00000       A     2.62550e-01     6.67727e-02    ;  uncertainty sigma = 0.000029, epsilon = 0.000747

[ moleculetype ]
;name             nrexcl
 MOL                   3

[ atoms ]
;       nr            type      resi   res      atom      cgnr      charge          mass ; qtot
         1            n0bf         1   UNL        n0         1    -0.74268       14.0070 ; qtot   -0.743
         2            n1bf         1   UNL        n1         2    -0.92799       14.0070 ; qtot   -1.671
         3            c2bf         1   UNL        c2         3     0.46281       12.0110 ; qtot   -1.208
         4            c3bf         1   UNL        c3         4    -0.14477       12.0110 ; qtot   -1.353
         5            c4bf         1   UNL        c4         5     0.00540       12.0110 ; qtot   -1.347
         6            c5bf         1   UNL        c5         6     0.03485       12.0110 ; qtot   -1.312
         7            c6bf         1   UNL        c6         7    -0.08900       12.0110 ; qtot   -1.401
         8            c7bf         1   UNL        c7         8     0.14137       12.0110 ; qtot   -1.260
         9            c8bf         1   UNL        c8         9    -0.17417       12.0110 ; qtot   -1.434
        10            c9bf         1   UNL        c9        10    -0.27214       12.0110 ; qtot   -1.706
        11           c10bf         1   UNL       c10        11     0.00177       12.0110 ; qtot   -1.705
        12           c11bf         1   UNL       c11        12     0.03419       12.0110 ; qtot   -1.670
        13           c12bf         1   UNL       c12        13     0.64039       12.0110 ; qtot   -1.030
        14           c13bf         1   UNL       c13        14     0.11900       12.0110 ; qtot   -0.911
        15           c14bf         1   UNL       c14        15    -0.29666       12.0110 ; qtot   -1.208
        16           o15bf         1   UNL       o15        16    -0.31277       15.9990 ; qtot   -1.520
        17          cl16bf         1   UNL      cl16        17    -0.10424       35.4530 ; qtot   -1.625
        18          cl17bf         1   UNL      cl17        18    -0.09143       35.4530 ; qtot   -1.716
        19           h18bf         1   UNL       h18        19     0.40586        1.0080 ; qtot   -1.310
        20           h19bf         1   UNL       h19        20     0.40586        1.0080 ; qtot   -0.904
        21           h20bf         1   UNL       h20        21     0.05233        1.0080 ; qtot   -0.852
        22           h21bf         1   UNL       h21        22     0.05233        1.0080 ; qtot   -0.800
        23           h22bf         1   UNL       h22        23     0.05233        1.0080 ; qtot   -0.747
        24           h23bf         1   UNL       h23        24     0.16874        1.0080 ; qtot   -0.579
        25           h24bf         1   UNL       h24        25     0.14982        1.0080 ; qtot   -0.429
        26           h25bf         1   UNL       h25        26     0.14725        1.0080 ; qtot   -0.282
        27           h26bf         1   UNL       h26        27     0.04594        1.0080 ; qtot   -0.236
        28           h27bf         1   UNL       h27        28     0.04594        1.0080 ; qtot   -0.190
        29           h28bf         1   UNL       h28        29     0.04594        1.0080 ; qtot   -0.144
        30           h29bf         1   UNL       h29        30     0.14373        1.0080 ; qtot    0.000

[ bonds ]
;       ai        aj funct               r               k
         1         3     1        0.134568   401835.532764    ;  uncertainty r = 0.000122, k = 7.723043
         1        13     1        0.135592   538701.338477    ;  uncertainty r = 0.000103, k = 8.177598
         2        13     1        0.141251   517630.975977    ;  uncertainty r = 0.000089, k = 9.157382
         2        19     1        0.101813   429931.434961    ;  uncertainty r = 0.000031, k = 1.634082
         2        20     1        0.101813   429931.434961    ;  uncertainty r = 0.000031, k = 1.634082
         3         4     1        0.150867   260654.159863    ;  uncertainty r = 0.000011, k = 4.930764
         3        10     1        0.140013   365631.598340    ;  uncertainty r = 0.000071, k = 7.043834
         4        21     1        0.109469   309893.894824    ;  uncertainty r = 0.000015, k = 1.246973
         4        22     1        0.109469   309893.894824    ;  uncertainty r = 0.000015, k = 1.246973
         4        23     1        0.109469   309893.894824    ;  uncertainty r = 0.000015, k = 1.246973
         5         6     1        0.139862   329884.165283    ;  uncertainty r = 0.000063, k = 7.950650
         5         9     1        0.139940   347961.016748    ;  uncertainty r = 0.000035, k = 4.747306
         5        12     1        0.148210   288590.429590    ;  uncertainty r = 0.000090, k = 10.106200
         6         7     1        0.139394   359160.290527    ;  uncertainty r = 0.000037, k = 3.840371
         6        17     1        0.175454   189793.507861    ;  uncertainty r = 0.000095, k = 5.494282
         7        11     1        0.139080   364166.279004    ;  uncertainty r = 0.000044, k = 1.286084
         7        24     1        0.108629   335967.589941    ;  uncertainty r = 0.000021, k = 1.625033
         8         9     1        0.139549   351679.909375    ;  uncertainty r = 0.000026, k = 4.989388
         8        11     1        0.140109   347981.574121    ;  uncertainty r = 0.000029, k = 2.077992
         8        16     1        0.136062   316569.295215    ;  uncertainty r = 0.000027, k = 4.074544
         9        25     1        0.108702   339443.548047    ;  uncertainty r = 0.000025, k = 2.394281
        10        12     1        0.140312   359225.742139    ;  uncertainty r = 0.000109, k = 3.664613
        10        26     1        0.108813   340237.190332    ;  uncertainty r = 0.000026, k = 0.808345
        11        18     1        0.174750   191921.962085    ;  uncertainty r = 0.000074, k = 4.809387
        12        15     1        0.139299   374797.990527    ;  uncertainty r = 0.000088, k = 9.719881
        13        15     1        0.141429   398426.252051    ;  uncertainty r = 0.000068, k = 10.908776
        14        16     1        0.142571   249932.889697    ;  uncertainty r = 0.000015, k = 3.432874
        14        27     1        0.109538   311091.125586    ;  uncertainty r = 0.000018, k = 1.051825
        14        28     1        0.109538   311091.151123    ;  uncertainty r = 0.000018, k = 1.051824
        14        29     1        0.109538   311091.125586    ;  uncertainty r = 0.000018, k = 1.051841
        15        30     1        0.108981   343038.841064    ;  uncertainty r = 0.000032, k = 1.746686

[ angles ]
;       ai        aj        ak funct           theta             cth
         1         3         4     1      118.081421      481.510369    ;  uncertainty theta = 0.001753, k = 0.485704
         1         3        10     1      121.904312      641.756816    ;  uncertainty theta = 0.002101, k = 0.038098
         1        13         2     1      124.411926      850.841707    ;  uncertainty theta = 0.003725, k = 0.109995
         1        13        15     1      121.503563      557.245583    ;  uncertainty theta = 0.002785, k = 0.141732
         2        13        15     1      126.707138      541.492825    ;  uncertainty theta = 0.004989, k = 0.229242
         3         1        13     1      114.983261      439.069832    ;  uncertainty theta = 0.005781, k = 0.101070
         3         4        21     1      109.194214      389.218298    ;  uncertainty theta = 0.001379, k = 0.036568
         3         4        22     1      109.194214      389.218298    ;  uncertainty theta = 0.001379, k = 0.036568
         3         4        23     1      109.194214      389.218298    ;  uncertainty theta = 0.001379, k = 0.036568
         3        10        12     1      118.049881      505.154508    ;  uncertainty theta = 0.002931, k = 0.137080
         3        10        26     1      120.751480      282.177206    ;  uncertainty theta = 0.000463, k = 0.055389
         4         3        10     1      120.939659      412.733762    ;  uncertainty theta = 0.003022, k = 0.071071
         5         6         7     1      123.721024      373.502346    ;  uncertainty theta = 0.002621, k = 0.087336
         5         6        17     1      118.664978      421.155518    ;  uncertainty theta = 0.003067, k = 0.092689
         5         9         8     1      124.153908      495.262007    ;  uncertainty theta = 0.001626, k = 0.133368
         5         9        25     1      118.154236      268.407022    ;  uncertainty theta = 0.002101, k = 0.079223
         5        12        10     1      121.272179      397.795639    ;  uncertainty theta = 0.001296, k = 0.107880
         5        12        15     1      121.034096      401.401447    ;  uncertainty theta = 0.003822, k = 0.173884
         6         5         9     1      120.133888      414.811525    ;  uncertainty theta = 0.002275, k = 0.179785
         6         5        12     1      121.008713      380.364550    ;  uncertainty theta = 0.003434, k = 0.103328
         6         7        11     1      120.839928      484.857678    ;  uncertainty theta = 0.001835, k = 0.095961
         6         7        24     1      121.144760      280.996242    ;  uncertainty theta = 0.001452, k = 0.071812
         7         6        17     1      118.989296      457.064397    ;  uncertainty theta = 0.002626, k = 0.106340
         7        11         8     1      121.637680      351.717755    ;  uncertainty theta = 0.002348, k = 0.204511
         7        11        18     1      120.445816      453.446299    ;  uncertainty theta = 0.001376, k = 0.135142
         8         9        25     1      117.505264      271.188205    ;  uncertainty theta = 0.001567, k = 0.085019
         8        11        18     1      118.649307      418.324729    ;  uncertainty theta = 0.000618, k = 0.096022
         8        16        14     1      110.317459      496.696426    ;  uncertainty theta = 0.001298, k = 0.043445
         9         5        12     1      120.268906      409.696953    ;  uncertainty theta = 0.005989, k = 0.078101
         9         8        11     1      120.983566      364.943680    ;  uncertainty theta = 0.002909, k = 0.161559
         9         8        16     1      120.256271      431.508901    ;  uncertainty theta = 0.001894, k = 0.134958
        10        12        15     1      118.250977      425.129890    ;  uncertainty theta = 0.001745, k = 0.196471
        11         7        24     1      120.706558      278.724716    ;  uncertainty theta = 0.002096, k = 0.021371
        11         8        16     1      118.679359      397.966961    ;  uncertainty theta = 0.004441, k = 0.166121
        12        10        26     1      121.091415      276.736972    ;  uncertainty theta = 0.000964, k = 0.054767
        12        15        13     1      115.308495      511.478007    ;  uncertainty theta = 0.004491, k = 0.224725
        12        15        30     1      121.866112      271.845626    ;  uncertainty theta = 0.002261, k = 0.077987
        13         2        19     1      116.767960      416.605316    ;  uncertainty theta = 0.001504, k = 0.078925
        13         2        20     1      116.767960      416.605316    ;  uncertainty theta = 0.001504, k = 0.078925
        13        15        30     1      122.500938      284.279453    ;  uncertainty theta = 0.002861, k = 0.132063
        16        14        27     1      108.817017      444.786378    ;  uncertainty theta = 0.001502, k = 0.019460
        16        14        28     1      108.817017      444.786378    ;  uncertainty theta = 0.001502, k = 0.019460
        16        14        29     1      108.817017      444.786378    ;  uncertainty theta = 0.001502, k = 0.019460
        19         2        20     1      107.463089      284.568245    ;  uncertainty theta = 0.001503, k = 0.074185
        21         4        22     1      107.109818      312.935313    ;  uncertainty theta = 0.001345, k = 0.029451
        21         4        23     1      107.109818      312.935313    ;  uncertainty theta = 0.001345, k = 0.029451
        22         4        23     1      107.109818      312.935313    ;  uncertainty theta = 0.001345, k = 0.029451
        27        14        28     1      109.133141      330.810013    ;  uncertainty theta = 0.001542, k = 0.011144
        27        14        29     1      109.133141      330.809949    ;  uncertainty theta = 0.001542, k = 0.011144
        28        14        29     1      109.133141      330.809949    ;  uncertainty theta = 0.001542, k = 0.011144

[ dihedrals ] ; propers for gromacs 4.5 or higher, use funct 9
;       ai        aj        ak        al funct           phase               k        pn
         1         3         4        21     9        0.000000        0.478518         1    ;  uncertainty k = 0.337494
         1         3         4        21     9      180.000000        3.265629         2    ;  uncertainty k = 0.210251
         1         3         4        21     9        0.000000        0.466126         3    ;  uncertainty k = 0.054386
         1         3         4        21     9      180.000000        0.262006         4    ;  uncertainty k = 0.052517
         1         3         4        22     9        0.000000        0.478518         1    ;  uncertainty k = 0.337494
         1         3         4        22     9      180.000000        3.265629         2    ;  uncertainty k = 0.210251
         1         3         4        22     9        0.000000        0.466126         3    ;  uncertainty k = 0.054386
         1         3         4        22     9      180.000000        0.262006         4    ;  uncertainty k = 0.052517
         1         3         4        23     9        0.000000        0.478518         1    ;  uncertainty k = 0.337494
         1         3         4        23     9      180.000000        3.265629         2    ;  uncertainty k = 0.210251
         1         3         4        23     9        0.000000        0.466126         3    ;  uncertainty k = 0.054386
         1         3         4        23     9      180.000000        0.262006         4    ;  uncertainty k = 0.052517
         1         3        10        12     9        0.000000       -0.209817         1    ;  uncertainty k = 0.388470
         1         3        10        12     9      180.000000       13.482846         2    ;  uncertainty k = 0.434818
         1         3        10        12     9        0.000000       -0.823824         3    ;  uncertainty k = 0.537602
         1         3        10        12     9      180.000000        0.845658         4    ;  uncertainty k = 0.232663
         1         3        10        26     9        0.000000       -0.015106         1    ;  uncertainty k = 0.243670
         1         3        10        26     9      180.000000        8.206882         2    ;  uncertainty k = 0.443888
         1         3        10        26     9        0.000000        1.140169         3    ;  uncertainty k = 0.261129
         1         3        10        26     9      180.000000        1.653666         4    ;  uncertainty k = 0.099841
         1        13         2        19     9        0.000000       18.932774         1    ;  uncertainty k = 0.144405
         1        13         2        19     9      180.000000        9.933930         2    ;  uncertainty k = 0.199680
         1        13         2        19     9        0.000000        0.615807         3    ;  uncertainty k = 0.093216
         1        13         2        19     9      180.000000       -0.216430         4    ;  uncertainty k = 0.079777
         1        13         2        20     9        0.000000       18.932774         1    ;  uncertainty k = 0.144405
         1        13         2        20     9      180.000000        9.933930         2    ;  uncertainty k = 0.199680
         1        13         2        20     9        0.000000        0.615807         3    ;  uncertainty k = 0.093216
         1        13         2        20     9      180.000000       -0.216430         4    ;  uncertainty k = 0.079777
         1        13        15        12     9        0.000000       -0.140016         1    ;  uncertainty k = 0.293163
         1        13        15        12     9      180.000000        8.580670         2    ;  uncertainty k = 0.825346
         1        13        15        12     9        0.000000       -0.542475         3    ;  uncertainty k = 0.580238
         1        13        15        12     9      180.000000        1.015900         4    ;  uncertainty k = 0.259563
         1        13        15        30     9        0.000000        0.062038         1    ;  uncertainty k = 0.315022
         1        13        15        30     9      180.000000        6.383502         2    ;  uncertainty k = 0.632031
         1        13        15        30     9        0.000000        1.209163         3    ;  uncertainty k = 0.415771
         1        13        15        30     9      180.000000        1.378044         4    ;  uncertainty k = 0.225443
         2        13         1         3     9        0.000000        0.526515         1    ;  uncertainty k = 1.425476
         2        13         1         3     9      180.000000       14.502064         2    ;  uncertainty k = 0.275335
         2        13         1         3     9        0.000000        2.563449         3    ;  uncertainty k = 0.416061
         2        13         1         3     9      180.000000        1.683911         4    ;  uncertainty k = 0.101568
         2        13        15        12     9        0.000000       -0.007843         1    ;  uncertainty k = 0.850749
         2        13        15        12     9      180.000000        6.967061         2    ;  uncertainty k = 0.541119
         2        13        15        12     9        0.000000        0.466310         3    ;  uncertainty k = 0.333164
         2        13        15        12     9      180.000000        1.077321         4    ;  uncertainty k = 0.212086
         2        13        15        30     9        0.000000       -0.351098         1    ;  uncertainty k = 0.447061
         2        13        15        30     9      180.000000        6.069766         2    ;  uncertainty k = 0.407348
         2        13        15        30     9        0.000000        0.921430         3    ;  uncertainty k = 0.316220
         2        13        15        30     9      180.000000        0.809625         4    ;  uncertainty k = 0.309901
         3         1        13        15     9        0.000000       -0.290014         1    ;  uncertainty k = 0.720850
         3         1        13        15     9      180.000000        8.877375         2    ;  uncertainty k = 0.797750
         3         1        13        15     9        0.000000        1.100239         3    ;  uncertainty k = 0.565056
         3         1        13        15     9      180.000000        1.049384         4    ;  uncertainty k = 0.151451
         3        10        12         5     9        0.000000       -0.062586         1    ;  uncertainty k = 0.332286
         3        10        12         5     9      180.000000        8.584413         2    ;  uncertainty k = 0.598578
         3        10        12         5     9        0.000000        1.068259         3    ;  uncertainty k = 0.265166
         3        10        12         5     9      180.000000        1.651289         4    ;  uncertainty k = 0.151915
         3        10        12        15     9        0.000000        0.199551         1    ;  uncertainty k = 0.442378
         3        10        12        15     9      180.000000       11.625523         2    ;  uncertainty k = 0.322230
         3        10        12        15     9        0.000000       -0.752348         3    ;  uncertainty k = 0.357995
         3        10        12        15     9      180.000000        0.861919         4    ;  uncertainty k = 0.342510
         4         3         1        13     9        0.000000        0.415655         1    ;  uncertainty k = 0.378121
         4         3         1        13     9      180.000000       14.388126         2    ;  uncertainty k = 0.605123
         4         3         1        13     9        0.000000        2.482118         3    ;  uncertainty k = 0.489106
         4         3         1        13     9      180.000000        1.650126         4    ;  uncertainty k = 0.508259
         4         3        10        12     9        0.000000        0.118103         1    ;  uncertainty k = 0.329533
         4         3        10        12     9      180.000000        8.010343         2    ;  uncertainty k = 0.221488
         4         3        10        12     9        0.000000        1.054762         3    ;  uncertainty k = 0.132809
         4         3        10        12     9      180.000000        1.556019         4    ;  uncertainty k = 0.205875
         4         3        10        26     9        0.000000       -0.459317         1    ;  uncertainty k = 0.360047
         4         3        10        26     9      180.000000        6.989319         2    ;  uncertainty k = 0.188991
         4         3        10        26     9        0.000000        0.557427         3    ;  uncertainty k = 0.238233
         4         3        10        26     9      180.000000        0.835031         4    ;  uncertainty k = 0.201404
         5         6         7        11     9        0.000000        0.043689         1    ;  uncertainty k = 0.304550
         5         6         7        11     9      180.000000        8.783068         2    ;  uncertainty k = 0.452185
         5         6         7        11     9        0.000000        0.255478         3    ;  uncertainty k = 0.241114
         5         6         7        11     9      180.000000        1.368971         4    ;  uncertainty k = 0.267694
         5         6         7        24     9        0.000000        0.022506         1    ;  uncertainty k = 0.177525
         5         6         7        24     9      180.000000        5.941661         2    ;  uncertainty k = 0.599218
         5         6         7        24     9        0.000000        1.398702         3    ;  uncertainty k = 0.288174
         5         6         7        24     9      180.000000        1.586659         4    ;  uncertainty k = 0.182068
         5         9         8        11     9        0.000000        0.188355         1    ;  uncertainty k = 0.230777
         5         9         8        11     9      180.000000        7.537375         2    ;  uncertainty k = 0.718385
         5         9         8        11     9        0.000000        0.547534         3    ;  uncertainty k = 0.270565
         5         9         8        11     9      180.000000        1.518477         4    ;  uncertainty k = 0.277654
         5         9         8        16     9        0.000000        0.069041         1    ;  uncertainty k = 0.264909
         5         9         8        16     9      180.000000       10.707439         2    ;  uncertainty k = 0.182896
         5         9         8        16     9        0.000000        1.127905         3    ;  uncertainty k = 0.201843
         5         9         8        16     9      180.000000        1.701875         4    ;  uncertainty k = 0.112194
         5        12        10        26     9        0.000000       -0.094065         1    ;  uncertainty k = 0.463781
         5        12        10        26     9      180.000000        7.110288         2    ;  uncertainty k = 0.343915
         5        12        10        26     9        0.000000        0.927458         3    ;  uncertainty k = 0.197860
         5        12        10        26     9      180.000000        1.171695         4    ;  uncertainty k = 0.144731
         5        12        15        13     9        0.000000       -0.126508         1    ;  uncertainty k = 0.450459
         5        12        15        13     9      180.000000        9.475686         2    ;  uncertainty k = 0.769513
         5        12        15        13     9        0.000000        1.299372         3    ;  uncertainty k = 0.393302
         5        12        15        13     9      180.000000        1.543331         4    ;  uncertainty k = 0.222043
         5        12        15        30     9        0.000000       -0.073514         1    ;  uncertainty k = 0.303569
         5        12        15        30     9      180.000000        7.633719         2    ;  uncertainty k = 0.377227
         5        12        15        30     9        0.000000        0.898507         3    ;  uncertainty k = 0.241035
         5        12        15        30     9      180.000000        1.134935         4    ;  uncertainty k = 0.134849
         6         5         9         8     9        0.000000        0.141704         1    ;  uncertainty k = 0.324206
         6         5         9         8     9      180.000000       10.129767         2    ;  uncertainty k = 0.629777
         6         5         9         8     9        0.000000        0.295437         3    ;  uncertainty k = 0.206508
         6         5         9         8     9      180.000000        1.255337         4    ;  uncertainty k = 0.334592
         6         5         9        25     9        0.000000        0.256144         1    ;  uncertainty k = 0.242776
         6         5         9        25     9      180.000000        7.230810         2    ;  uncertainty k = 0.358255
         6         5         9        25     9        0.000000        1.478658         3    ;  uncertainty k = 0.373747
         6         5         9        25     9      180.000000        1.643170         4    ;  uncertainty k = 0.090237
         6         5        12        10     9        0.000000        0.647360         1    ;  uncertainty k = 0.412677
         6         5        12        10     9      180.000000        3.675745         2    ;  uncertainty k = 0.215203
         6         5        12        10     9        0.000000        0.324943         3    ;  uncertainty k = 0.177102
         6         5        12        10     9      180.000000        0.320509         4    ;  uncertainty k = 0.083362
         6         5        12        15     9        0.000000        0.589633         1    ;  uncertainty k = 0.625604
         6         5        12        15     9      180.000000        3.626458         2    ;  uncertainty k = 0.241689
         6         5        12        15     9        0.000000        0.358672         3    ;  uncertainty k = 0.101809
         6         5        12        15     9      180.000000        0.304306         4    ;  uncertainty k = 0.077895
         6         7        11         8     9        0.000000       -0.068510         1    ;  uncertainty k = 0.290045
         6         7        11         8     9      180.000000        9.104570         2    ;  uncertainty k = 0.505649
         6         7        11         8     9        0.000000        0.300688         3    ;  uncertainty k = 0.422154
         6         7        11         8     9      180.000000        1.335449         4    ;  uncertainty k = 0.284663
         6         7        11        18     9        0.000000        0.024601         1    ;  uncertainty k = 0.195678
         6         7        11        18     9      180.000000        9.796445         2    ;  uncertainty k = 0.551153
         6         7        11        18     9        0.000000        1.487530         3    ;  uncertainty k = 0.396616
         6         7        11        18     9      180.000000        1.737029         4    ;  uncertainty k = 0.171368
         7         6         5         9     9        0.000000       -0.152270         1    ;  uncertainty k = 0.450660
         7         6         5         9     9      180.000000        7.505781         2    ;  uncertainty k = 0.706773
         7         6         5         9     9        0.000000        0.092008         3    ;  uncertainty k = 0.504434
         7         6         5         9     9      180.000000        1.194788         4    ;  uncertainty k = 0.371343
         7         6         5        12     9        0.000000        0.072288         1    ;  uncertainty k = 0.248663
         7         6         5        12     9      180.000000        6.547953         2    ;  uncertainty k = 0.489953
         7         6         5        12     9        0.000000        1.345164         3    ;  uncertainty k = 0.322731
         7         6         5        12     9      180.000000        1.599196         4    ;  uncertainty k = 0.214547
         7        11         8         9     9        0.000000       -0.168320         1    ;  uncertainty k = 0.405609
         7        11         8         9     9      180.000000        5.782241         2    ;  uncertainty k = 1.082183
         7        11         8         9     9        0.000000        0.416316         3    ;  uncertainty k = 0.211817
         7        11         8         9     9      180.000000        1.294989         4    ;  uncertainty k = 0.380323
         7        11         8        16     9        0.000000        0.181353         1    ;  uncertainty k = 0.135275
         7        11         8        16     9      180.000000        7.967330         2    ;  uncertainty k = 0.476725
         7        11         8        16     9        0.000000        1.230038         3    ;  uncertainty k = 0.233577
         7        11         8        16     9      180.000000        1.691488         4    ;  uncertainty k = 0.119315
         8         9         5        12     9        0.000000        0.028310         1    ;  uncertainty k = 0.203856
         8         9         5        12     9      180.000000        8.850497         2    ;  uncertainty k = 0.531856
         8         9         5        12     9        0.000000        1.260789         3    ;  uncertainty k = 0.351007
         8         9         5        12     9      180.000000        1.735892         4    ;  uncertainty k = 0.123646
         8        11         7        24     9        0.000000        0.024448         1    ;  uncertainty k = 0.219949
         8        11         7        24     9      180.000000        6.635262         2    ;  uncertainty k = 0.608089
         8        11         7        24     9        0.000000        1.340240         3    ;  uncertainty k = 0.405287
         8        11         7        24     9      180.000000        1.575050         4    ;  uncertainty k = 0.144171
         8        16        14        27     9        0.000000        1.114547         1    ;  uncertainty k = 0.215113
         8        16        14        27     9      180.000000       -2.033978         2    ;  uncertainty k = 0.275903
         8        16        14        27     9        0.000000        1.029224         3    ;  uncertainty k = 0.026081
         8        16        14        27     9      180.000000        0.253426         4    ;  uncertainty k = 0.035615
         8        16        14        28     9        0.000000        1.114547         1    ;  uncertainty k = 0.215113
         8        16        14        28     9      180.000000       -2.033978         2    ;  uncertainty k = 0.275903
         8        16        14        28     9        0.000000        1.029224         3    ;  uncertainty k = 0.026081
         8        16        14        28     9      180.000000        0.253426         4    ;  uncertainty k = 0.035615
         8        16        14        29     9        0.000000        1.114547         1    ;  uncertainty k = 0.215113
         8        16        14        29     9      180.000000       -2.033978         2    ;  uncertainty k = 0.275903
         8        16        14        29     9        0.000000        1.029224         3    ;  uncertainty k = 0.026081
         8        16        14        29     9      180.000000        0.253426         4    ;  uncertainty k = 0.035615
         9         5         6        17     9        0.000000        0.073697         1    ;  uncertainty k = 0.189341
         9         5         6        17     9      180.000000        7.918692         2    ;  uncertainty k = 0.478543
         9         5         6        17     9        0.000000        1.462378         3    ;  uncertainty k = 0.351060
         9         5         6        17     9      180.000000        1.508767         4    ;  uncertainty k = 0.139300
         9         5        12        10     9        0.000000       -0.150516         1    ;  uncertainty k = 0.460552
         9         5        12        10     9      180.000000        4.283055         2    ;  uncertainty k = 0.246351
         9         5        12        10     9        0.000000        0.263708         3    ;  uncertainty k = 0.122810
         9         5        12        10     9      180.000000        0.262653         4    ;  uncertainty k = 0.104451
         9         5        12        15     9        0.000000        0.251857         1    ;  uncertainty k = 0.351903
         9         5        12        15     9      180.000000        4.213417         2    ;  uncertainty k = 0.271167
         9         5        12        15     9        0.000000        0.376229         3    ;  uncertainty k = 0.089855
         9         5        12        15     9      180.000000        0.287416         4    ;  uncertainty k = 0.108215
         9         8        11        18     9        0.000000        0.235383         1    ;  uncertainty k = 0.392071
         9         8        11        18     9      180.000000        6.827633         2    ;  uncertainty k = 0.724421
         9         8        11        18     9        0.000000        1.390104         3    ;  uncertainty k = 0.313840
         9         8        11        18     9      180.000000        1.487868         4    ;  uncertainty k = 0.207473
         9         8        16        14     9        0.000000        0.216217         1    ;  uncertainty k = 0.406627
         9         8        16        14     9      180.000000        6.478530         2    ;  uncertainty k = 0.160599
         9         8        16        14     9        0.000000       -0.331389         3    ;  uncertainty k = 0.157941
         9         8        16        14     9      180.000000        0.083012         4    ;  uncertainty k = 0.097843
        10         3         1        13     9        0.000000       -0.160575         1    ;  uncertainty k = 0.507656
        10         3         1        13     9      180.000000       13.010705         2    ;  uncertainty k = 0.490998
        10         3         1        13     9        0.000000        1.267911         3    ;  uncertainty k = 0.379955
        10         3         1        13     9      180.000000        1.050841         4    ;  uncertainty k = 0.190137
        10         3         4        21     9        0.000000       -0.049414         1    ;  uncertainty k = 0.251944
        10         3         4        21     9      180.000000        1.865957         2    ;  uncertainty k = 0.245809
        10         3         4        21     9        0.000000        0.291730         3    ;  uncertainty k = 0.056433
        10         3         4        21     9      180.000000        0.150979         4    ;  uncertainty k = 0.026044
        10         3         4        22     9        0.000000       -0.049414         1    ;  uncertainty k = 0.251944
        10         3         4        22     9      180.000000        1.865957         2    ;  uncertainty k = 0.245809
        10         3         4        22     9        0.000000        0.291730         3    ;  uncertainty k = 0.056433
        10         3         4        22     9      180.000000        0.150979         4    ;  uncertainty k = 0.026044
        10         3         4        23     9        0.000000       -0.049414         1    ;  uncertainty k = 0.251944
        10         3         4        23     9      180.000000        1.865957         2    ;  uncertainty k = 0.245809
        10         3         4        23     9        0.000000        0.291730         3    ;  uncertainty k = 0.056433
        10         3         4        23     9      180.000000        0.150979         4    ;  uncertainty k = 0.026044
        10        12        15        13     9        0.000000        0.068328         1    ;  uncertainty k = 0.534996
        10        12        15        13     9      180.000000       13.331116         2    ;  uncertainty k = 0.406115
        10        12        15        13     9        0.000000       -0.753389         3    ;  uncertainty k = 0.168271
        10        12        15        13     9      180.000000        0.790402         4    ;  uncertainty k = 0.243571
        10        12        15        30     9        0.000000        0.495428         1    ;  uncertainty k = 0.414429
        10        12        15        30     9      180.000000        8.124626         2    ;  uncertainty k = 0.604151
        10        12        15        30     9        0.000000        1.701003         3    ;  uncertainty k = 0.267067
        10        12        15        30     9      180.000000        1.652405         4    ;  uncertainty k = 0.197784
        11         7         6        17     9        0.000000        0.068859         1    ;  uncertainty k = 0.149791
        11         7         6        17     9      180.000000        9.426204         2    ;  uncertainty k = 0.418194
        11         7         6        17     9        0.000000        1.392603         3    ;  uncertainty k = 0.394432
        11         7         6        17     9      180.000000        1.704865         4    ;  uncertainty k = 0.132986
        11         8         9        25     9        0.000000        0.228315         1    ;  uncertainty k = 0.266367
        11         8         9        25     9      180.000000        5.966409         2    ;  uncertainty k = 0.436373
        11         8         9        25     9        0.000000        1.513110         3    ;  uncertainty k = 0.331056
        11         8         9        25     9      180.000000        1.809562         4    ;  uncertainty k = 0.153543
        11         8        16        14     9        0.000000        2.160174         1    ;  uncertainty k = 0.432449
        11         8        16        14     9      180.000000        5.823389         2    ;  uncertainty k = 0.122220
        11         8        16        14     9        0.000000        1.197930         3    ;  uncertainty k = 0.201611
        11         8        16        14     9      180.000000        0.096377         4    ;  uncertainty k = 0.050188
        12         5         6        17     9        0.000000       -0.361628         1    ;  uncertainty k = 0.527376
        12         5         6        17     9      180.000000        7.751058         2    ;  uncertainty k = 0.347062
        12         5         6        17     9        0.000000        1.096660         3    ;  uncertainty k = 0.259613
        12         5         6        17     9      180.000000        1.340982         4    ;  uncertainty k = 0.215340
        12         5         9        25     9        0.000000       -0.165076         1    ;  uncertainty k = 0.131063
        12         5         9        25     9      180.000000        7.543488         2    ;  uncertainty k = 0.277344
        12         5         9        25     9        0.000000        0.846392         3    ;  uncertainty k = 0.215460
        12         5         9        25     9      180.000000        1.216124         4    ;  uncertainty k = 0.164857
        15        12        10        26     9        0.000000        0.372990         1    ;  uncertainty k = 0.211392
        15        12        10        26     9      180.000000        7.271979         2    ;  uncertainty k = 0.625956
        15        12        10        26     9        0.000000        1.595465         3    ;  uncertainty k = 0.296775
        15        12        10        26     9      180.000000        1.692977         4    ;  uncertainty k = 0.249705
        15        13         2        19     9        0.000000        9.751535         1    ;  uncertainty k = 0.369391
        15        13         2        19     9      180.000000        6.333757         2    ;  uncertainty k = 0.319003
        15        13         2        19     9        0.000000        0.961105         3    ;  uncertainty k = 0.097520
        15        13         2        19     9      180.000000        0.018620         4    ;  uncertainty k = 0.049937
        15        13         2        20     9        0.000000        9.751535         1    ;  uncertainty k = 0.369391
        15        13         2        20     9      180.000000        6.333757         2    ;  uncertainty k = 0.319003
        15        13         2        20     9        0.000000        0.961105         3    ;  uncertainty k = 0.097520
        15        13         2        20     9      180.000000        0.018620         4    ;  uncertainty k = 0.049937
        16         8         9        25     9        0.000000       -0.044887         1    ;  uncertainty k = 0.296163
        16         8         9        25     9      180.000000        9.016360         2    ;  uncertainty k = 0.431684
        16         8         9        25     9        0.000000        0.772801         3    ;  uncertainty k = 0.130385
        16         8         9        25     9      180.000000        1.312864         4    ;  uncertainty k = 0.305553
        16         8        11        18     9        0.000000       -0.192114         1    ;  uncertainty k = 0.727506
        16         8        11        18     9      180.000000        9.528289         2    ;  uncertainty k = 0.372457
        16         8        11        18     9        0.000000        0.863746         3    ;  uncertainty k = 0.261177
        16         8        11        18     9      180.000000        1.376985         4    ;  uncertainty k = 0.184747
        17         6         7        24     9        0.000000       -0.166304         1    ;  uncertainty k = 0.305169
        17         6         7        24     9      180.000000        7.623205         2    ;  uncertainty k = 0.505306
        17         6         7        24     9        0.000000        0.614298         3    ;  uncertainty k = 0.296559
        17         6         7        24     9      180.000000        1.101374         4    ;  uncertainty k = 0.271070
        18        11         7        24     9        0.000000       -0.181205         1    ;  uncertainty k = 0.253551
        18        11         7        24     9      180.000000        7.553084         2    ;  uncertainty k = 0.527785
        18        11         7        24     9        0.000000        0.586990         3    ;  uncertainty k = 0.291736
        18        11         7        24     9      180.000000        1.058531         4    ;  uncertainty k = 0.245564

[ dihedrals ] ; impropers
;       ai        aj        ak        al funct           phase               k        pn
         2        13        19        20     4      180.000000        0.092832         2    ;  uncertainty k = 0.131013
         2        19        20        13     4      180.000000        0.092832         2    ;  uncertainty k = 0.131013
         2        20        13        19     4      180.000000        0.092832         2    ;  uncertainty k = 0.131013
         3         1         4        10     4      180.000000       28.592723         2    ;  uncertainty k = 0.053069
         3         4        10         1     4      180.000000       28.592723         2    ;  uncertainty k = 0.053069
         3        10         1         4     4      180.000000       28.592723         2    ;  uncertainty k = 0.053069
         5         6         9        12     4      180.000000       14.802603         2    ;  uncertainty k = 0.109792
         5         9        12         6     4      180.000000       14.802603         2    ;  uncertainty k = 0.109792
         5        12         6         9     4      180.000000       14.802603         2    ;  uncertainty k = 0.109792
         6         5         7        17     4      180.000000       13.243662         2    ;  uncertainty k = 0.056718
         6         7        17         5     4      180.000000       13.243662         2    ;  uncertainty k = 0.056718
         6        17         5         7     4      180.000000       13.243662         2    ;  uncertainty k = 0.056718
         7         6        11        24     4      180.000000        2.922847         2    ;  uncertainty k = 0.368937
         7        11        24         6     4      180.000000        2.922847         2    ;  uncertainty k = 0.368937
         7        24         6        11     4      180.000000        2.922847         2    ;  uncertainty k = 0.368937
         8         9        11        16     4      180.000000       18.129738         2    ;  uncertainty k = 0.067281
         8        11        16         9     4      180.000000       18.129738         2    ;  uncertainty k = 0.067281
         8        16         9        11     4      180.000000       18.129738         2    ;  uncertainty k = 0.067281
         9         5         8        25     4      180.000000        2.239550         2    ;  uncertainty k = 0.141734
         9         8        25         5     4      180.000000        2.239550         2    ;  uncertainty k = 0.141734
         9        25         5         8     4      180.000000        2.239550         2    ;  uncertainty k = 0.141734
        10         3        12        26     4      180.000000        1.511173         2    ;  uncertainty k = 0.802186
        10        12        26         3     4      180.000000        1.511173         2    ;  uncertainty k = 0.802186
        10        26         3        12     4      180.000000        1.511173         2    ;  uncertainty k = 0.802186
        11         7         8        18     4      180.000000       11.539228         2    ;  uncertainty k = 0.094372
        11         8        18         7     4      180.000000       11.539228         2    ;  uncertainty k = 0.094372
        11        18         7         8     4      180.000000       11.539228         2    ;  uncertainty k = 0.094372
        12         5        10        15     4      180.000000       18.176051         2    ;  uncertainty k = 0.084094
        12        10        15         5     4      180.000000       18.176051         2    ;  uncertainty k = 0.084094
        12        15         5        10     4      180.000000       18.176051         2    ;  uncertainty k = 0.084094
        13         1         2        15     4      180.000000       32.062333         2    ;  uncertainty k = 0.068332
        13         2        15         1     4      180.000000       32.062333         2    ;  uncertainty k = 0.068332
        13        15         1         2     4      180.000000       32.062333         2    ;  uncertainty k = 0.068332
        15        12        13        30     4      180.000000        1.097270         2    ;  uncertainty k = 0.600445
        15        13        30        12     4      180.000000        1.097270         2    ;  uncertainty k = 0.600445
        15        30        12        13     4      180.000000        1.097270         2    ;  uncertainty k = 0.600445

[ pairs ]
;       ai        aj funct
         1        12     1
         1        19     1
         1        20     1
         1        21     1
         1        22     1
         1        23     1
         1        26     1
         1        30     1
         2         3     1
         2        12     1
         2        30     1
         3         5     1
         3        15     1
         4        12     1
         4        13     1
         4        26     1
         5        11     1
         5        13     1
         5        16     1
         5        24     1
         5        26     1
         5        30     1
         6         8     1
         6        10     1
         6        15     1
         6        18     1
         6        25     1
         7         9     1
         7        12     1
         7        16     1
         8        12     1
         8        24     1
         8        27     1
         8        28     1
         8        29     1
         9        10     1
         9        14     1
         9        15     1
         9        17     1
         9        18     1
        10        13     1
        10        21     1
        10        22     1
        10        23     1
        10        30     1
        11        14     1
        11        17     1
        11        25     1
        12        17     1
        12        25     1
        15        19     1
        15        20     1
        15        26     1
        16        18     1
        16        25     1
        17        24     1
        18        24     1
