; ITP file created by ByteFF-joint-25, 2025-07-14 11:38:38.226737

[ atomtypes ]
;name           bonded.type        at.num        mass        charge   ptype           sigma         epsilon
 n0bf                                   7      0.0000       0.00000       A     3.38400e-01     3.93512e-01    ;  uncertainty sigma = 0.000011, epsilon = 0.000464
 n1bf                                   7      0.0000       0.00000       A     3.20622e-01     8.53166e-01    ;  uncertainty sigma = 0.000023, epsilon = 0.001285
 c2bf                                   6      0.0000       0.00000       A     3.31506e-01     4.12085e-01    ;  uncertainty sigma = 0.000023, epsilon = 0.001244
 c3bf                                   6      0.0000       0.00000       A     3.31547e-01     4.12879e-01    ;  uncertainty sigma = 0.000009, epsilon = 0.001355
 c4bf                                   6      0.0000       0.00000       A     3.31519e-01     4.12961e-01    ;  uncertainty sigma = 0.000012, epsilon = 0.000524
 c5bf                                   6      0.0000       0.00000       A     3.39771e-01     4.51015e-01    ;  uncertainty sigma = 0.000004, epsilon = 0.000513
 c6bf                                   6      0.0000       0.00000       A     3.31518e-01     4.13324e-01    ;  uncertainty sigma = 0.000010, epsilon = 0.000862
 c7bf                                   6      0.0000       0.00000       A     3.31541e-01     4.13380e-01    ;  uncertainty sigma = 0.000008, epsilon = 0.000747
 c8bf                                   6      0.0000       0.00000       A     3.31505e-01     4.13231e-01    ;  uncertainty sigma = 0.000015, epsilon = 0.000497
 c9bf                                   6      0.0000       0.00000       A     3.31518e-01     4.13613e-01    ;  uncertainty sigma = 0.000012, epsilon = 0.000598
 c10bf                                  6      0.0000       0.00000       A     3.31525e-01     4.13420e-01    ;  uncertainty sigma = 0.000006, epsilon = 0.000415
 c11bf                                  6      0.0000       0.00000       A     3.31529e-01     4.13443e-01    ;  uncertainty sigma = 0.000006, epsilon = 0.000844
 c12bf                                  6      0.0000       0.00000       A     3.31535e-01     4.12333e-01    ;  uncertainty sigma = 0.000020, epsilon = 0.001487
 c13bf                                  6      0.0000       0.00000       A     3.31516e-01     4.13271e-01    ;  uncertainty sigma = 0.000017, epsilon = 0.001247
 c14bf                                  6      0.0000       0.00000       A     3.31516e-01     4.13399e-01    ;  uncertainty sigma = 0.000004, epsilon = 0.000382
 c15bf                                  6      0.0000       0.00000       A     3.39780e-01     4.50883e-01    ;  uncertainty sigma = 0.000003, epsilon = 0.000560
 n16bf                                  7      0.0000       0.00000       A     3.38402e-01     3.93101e-01    ;  uncertainty sigma = 0.000012, epsilon = 0.000504
 o17bf                                  8      0.0000       0.00000       A     3.15642e-01     3.03426e-01    ;  uncertainty sigma = 0.000016, epsilon = 0.000856
 cl18bf                                17      0.0000       0.00000       A     3.46592e-01     1.10386e+00    ;  uncertainty sigma = 0.000019, epsilon = 0.001119
 cl19bf                                17      0.0000       0.00000       A     3.46623e-01     1.10451e+00    ;  uncertainty sigma = 0.000020, epsilon = 0.000454
 c20bf                                  6      0.0000       0.00000       A     3.31508e-01     4.13799e-01    ;  uncertainty sigma = 0.000008, epsilon = 0.001063
 c21bf                                  6      0.0000       0.00000       A     3.39759e-01     4.50851e-01    ;  uncertainty sigma = 0.000005, epsilon = 0.000478
 o22bf                                  8      0.0000       0.00000       A     3.04766e-01     6.11982e-01    ;  uncertainty sigma = 0.000020, epsilon = 0.001065
 h23bf                                  1      0.0000       0.00000       A     1.10666e-01     4.12578e-02    ;  uncertainty sigma = 0.000061, epsilon = 0.001051
 h24bf                                  1      0.0000       0.00000       A     2.53618e-01     6.68298e-02    ;  uncertainty sigma = 0.000020, epsilon = 0.001090
 h25bf                                  1      0.0000       0.00000       A     2.60030e-01     8.67232e-02    ;  uncertainty sigma = 0.000008, epsilon = 0.000464
 h26bf                                  1      0.0000       0.00000       A     2.60030e-01     8.67232e-02    ;  uncertainty sigma = 0.000008, epsilon = 0.000464
 h27bf                                  1      0.0000       0.00000       A     2.60030e-01     8.67232e-02    ;  uncertainty sigma = 0.000008, epsilon = 0.000464
 h28bf                                  1      0.0000       0.00000       A     2.62565e-01     6.71866e-02    ;  uncertainty sigma = 0.000016, epsilon = 0.000591
 h29bf                                  1      0.0000       0.00000       A     2.62570e-01     6.72218e-02    ;  uncertainty sigma = 0.000012, epsilon = 0.000970
 h30bf                                  1      0.0000       0.00000       A     2.42205e-01     8.67536e-02    ;  uncertainty sigma = 0.000015, epsilon = 0.000624
 h31bf                                  1      0.0000       0.00000       A     2.42205e-01     8.67536e-02    ;  uncertainty sigma = 0.000015, epsilon = 0.000624
 h32bf                                  1      0.0000       0.00000       A     2.42205e-01     8.67536e-02    ;  uncertainty sigma = 0.000015, epsilon = 0.000624
 h33bf                                  1      0.0000       0.00000       A     2.60027e-01     8.66444e-02    ;  uncertainty sigma = 0.000005, epsilon = 0.000641
 h34bf                                  1      0.0000       0.00000       A     2.60027e-01     8.66444e-02    ;  uncertainty sigma = 0.000005, epsilon = 0.000641
 h35bf                                  1      0.0000       0.00000       A     2.60027e-01     8.66444e-02    ;  uncertainty sigma = 0.000005, epsilon = 0.000641

[ moleculetype ]
;name             nrexcl
 MOL                   3

[ atoms ]
;       nr            type      resi   res      atom      cgnr      charge          mass ; qtot
         1            n0bf         1   UNL        n0         1    -0.71384       14.0070 ; qtot   -0.714
         2            n1bf         1   UNL        n1         2    -0.28171       14.0070 ; qtot   -0.996
         3            c2bf         1   UNL        c2         3    -0.25635       12.0110 ; qtot   -1.252
         4            c3bf         1   UNL        c3         4    -0.20880       12.0110 ; qtot   -1.461
         5            c4bf         1   UNL        c4         5    -0.03950       12.0110 ; qtot   -1.500
         6            c5bf         1   UNL        c5         6    -0.13140       12.0110 ; qtot   -1.632
         7            c6bf         1   UNL        c6         7    -0.10662       12.0110 ; qtot   -1.738
         8            c7bf         1   UNL        c7         8    -0.09258       12.0110 ; qtot   -1.831
         9            c8bf         1   UNL        c8         9    -0.15374       12.0110 ; qtot   -1.985
        10            c9bf         1   UNL        c9        10     0.13648       12.0110 ; qtot   -1.848
        11           c10bf         1   UNL       c10        11     0.04809       12.0110 ; qtot   -1.800
        12           c11bf         1   UNL       c11        12     0.00923       12.0110 ; qtot   -1.791
        13           c12bf         1   UNL       c12        13     0.55932       12.0110 ; qtot   -1.231
        14           c13bf         1   UNL       c13        14     0.45083       12.0110 ; qtot   -0.781
        15           c14bf         1   UNL       c14        15     0.67575       12.0110 ; qtot   -0.105
        16           c15bf         1   UNL       c15        16     0.11900       12.0110 ; qtot    0.014
        17           n16bf         1   UNL       n16        17    -0.72925       14.0070 ; qtot   -0.715
        18           o17bf         1   UNL       o17        18    -0.31291       15.9990 ; qtot   -1.028
        19          cl18bf         1   UNL      cl18        19    -0.09673       35.4530 ; qtot   -1.125
        20          cl19bf         1   UNL      cl19        20    -0.09143       35.4530 ; qtot   -1.216
        21           c20bf         1   UNL       c20        21     0.60392       12.0110 ; qtot   -0.612
        22           c21bf         1   UNL       c21        22    -0.18949       12.0110 ; qtot   -0.802
        23           o22bf         1   UNL       o22        23    -0.53901       15.9990 ; qtot   -1.341
        24           h23bf         1   UNL       h23        24     0.32346        1.0080 ; qtot   -1.017
        25           h24bf         1   UNL       h24        25     0.18285        1.0080 ; qtot   -0.834
        26           h25bf         1   UNL       h25        26     0.06163        1.0080 ; qtot   -0.773
        27           h26bf         1   UNL       h26        27     0.06163        1.0080 ; qtot   -0.711
        28           h27bf         1   UNL       h27        28     0.06163        1.0080 ; qtot   -0.650
        29           h28bf         1   UNL       h28        29     0.16962        1.0080 ; qtot   -0.480
        30           h29bf         1   UNL       h29        30     0.15838        1.0080 ; qtot   -0.322
        31           h30bf         1   UNL       h30        31     0.04594        1.0080 ; qtot   -0.276
        32           h31bf         1   UNL       h31        32     0.04594        1.0080 ; qtot   -0.230
        33           h32bf         1   UNL       h32        33     0.04594        1.0080 ; qtot   -0.184
        34           h33bf         1   UNL       h33        34     0.06124        1.0080 ; qtot   -0.122
        35           h34bf         1   UNL       h34        35     0.06124        1.0080 ; qtot   -0.061
        36           h35bf         1   UNL       h35        36     0.06124        1.0080 ; qtot    0.000

[ bonds ]
;       ai        aj funct               r               k
         1        14     1        0.133374   460066.603027    ;  uncertainty r = 0.000130, k = 3.971492
         1        15     1        0.134114   399520.593799    ;  uncertainty r = 0.000064, k = 9.975059
         2         5     1        0.137186   320524.176270    ;  uncertainty r = 0.000081, k = 13.877990
         2        14     1        0.138337   362673.200830    ;  uncertainty r = 0.000022, k = 15.388917
         2        24     1        0.101532   420076.204785    ;  uncertainty r = 0.000066, k = 2.486143
         3         4     1        0.145352   242049.532959    ;  uncertainty r = 0.000144, k = 25.248416
         3        13     1        0.141191   362339.584033    ;  uncertainty r = 0.000157, k = 9.634245
         3        14     1        0.142413   454948.864160    ;  uncertainty r = 0.000110, k = 11.610132
         4         5     1        0.138630   403390.155371    ;  uncertainty r = 0.000131, k = 10.932787
         4        21     1        0.147604   285514.254932    ;  uncertainty r = 0.000116, k = 16.027364
         5        25     1        0.108047   337549.486182    ;  uncertainty r = 0.000054, k = 1.009119
         6        15     1        0.150613   262921.523193    ;  uncertainty r = 0.000031, k = 4.130415
         6        26     1        0.109388   311699.266309    ;  uncertainty r = 0.000011, k = 2.209894
         6        27     1        0.109388   311699.266309    ;  uncertainty r = 0.000011, k = 2.209894
         6        28     1        0.109388   311699.266309    ;  uncertainty r = 0.000011, k = 2.209894
         7         9     1        0.139601   351135.994482    ;  uncertainty r = 0.000068, k = 4.369380
         7        11     1        0.139599   325159.621289    ;  uncertainty r = 0.000049, k = 7.737224
         7        13     1        0.148510   300396.873682    ;  uncertainty r = 0.000137, k = 8.587288
         8        11     1        0.139372   358825.064893    ;  uncertainty r = 0.000070, k = 5.253291
         8        12     1        0.139047   363992.422363    ;  uncertainty r = 0.000043, k = 1.798210
         8        29     1        0.108639   335863.500684    ;  uncertainty r = 0.000024, k = 1.681150
         9        10     1        0.139396   350257.262549    ;  uncertainty r = 0.000042, k = 3.783835
         9        30     1        0.108657   337664.581934    ;  uncertainty r = 0.000055, k = 2.064159
        10        12     1        0.140093   348142.049316    ;  uncertainty r = 0.000031, k = 2.825288
        10        18     1        0.136027   316431.548047    ;  uncertainty r = 0.000024, k = 4.257478
        11        19     1        0.175205   190382.048853    ;  uncertainty r = 0.000072, k = 2.957322
        12        20     1        0.174750   191921.936548    ;  uncertainty r = 0.000074, k = 4.809387
        13        17     1        0.134381   387697.295215    ;  uncertainty r = 0.000193, k = 3.261782
        15        17     1        0.135357   451770.770898    ;  uncertainty r = 0.000103, k = 11.742634
        16        18     1        0.142571   249932.915234    ;  uncertainty r = 0.000015, k = 3.432874
        16        31     1        0.109538   311091.125586    ;  uncertainty r = 0.000018, k = 1.051825
        16        32     1        0.109538   311091.125586    ;  uncertainty r = 0.000018, k = 1.051825
        16        33     1        0.109538   311091.125586    ;  uncertainty r = 0.000018, k = 1.051825
        21        22     1        0.152091   195914.535913    ;  uncertainty r = 0.000032, k = 5.069528
        21        23     1        0.123141   720855.649902    ;  uncertainty r = 0.000096, k = 9.432073
        22        34     1        0.109472   314338.271191    ;  uncertainty r = 0.000025, k = 1.314321
        22        35     1        0.109472   314338.271191    ;  uncertainty r = 0.000025, k = 1.314321
        22        36     1        0.109472   314338.271191    ;  uncertainty r = 0.000025, k = 1.314321

[ angles ]
;       ai        aj        ak funct           theta             cth
         1        14         2     1      127.021255      493.717427    ;  uncertainty theta = 0.002209, k = 0.133431
         1        14         3     1      126.425186      539.151902    ;  uncertainty theta = 0.003364, k = 0.269061
         1        15         6     1      118.690575      467.858741    ;  uncertainty theta = 0.002156, k = 0.175054
         1        15        17     1      125.849716      809.668992    ;  uncertainty theta = 0.002470, k = 0.143418
         2         5         4     1      110.929886      760.355493    ;  uncertainty theta = 0.002216, k = 0.205900
         2         5        25     1      117.787659      294.081329    ;  uncertainty theta = 0.002331, k = 0.139367
         2        14         3     1      109.105148      638.860461    ;  uncertainty theta = 0.002882, k = 0.140079
         3         4         5     1      108.973740      760.078352    ;  uncertainty theta = 0.003556, k = 0.153361
         3         4        21     1      125.393936      309.526875    ;  uncertainty theta = 0.005298, k = 0.341961
         3        13         7     1      121.943436      361.377837    ;  uncertainty theta = 0.005728, k = 0.240738
         3        13        17     1      121.827835      618.690805    ;  uncertainty theta = 0.003134, k = 0.109752
         4         3        13     1      130.937042      326.651455    ;  uncertainty theta = 0.004722, k = 0.191702
         4         3        14     1      107.929955      680.554388    ;  uncertainty theta = 0.004049, k = 0.148315
         4         5        25     1      126.577759      233.285277    ;  uncertainty theta = 0.003558, k = 0.092291
         4        21        22     1      116.193771      359.764818    ;  uncertainty theta = 0.005249, k = 0.259315
         4        21        23     1      123.387863      600.627833    ;  uncertainty theta = 0.005589, k = 0.075887
         5         2        14     1      104.769226      859.588678    ;  uncertainty theta = 0.003711, k = 0.114296
         5         2        24     1      116.064209      287.544404    ;  uncertainty theta = 0.005428, k = 0.110678
         5         4        21     1      121.752831      316.089849    ;  uncertainty theta = 0.007303, k = 0.260352
         6        15        17     1      118.573265      477.356184    ;  uncertainty theta = 0.001334, k = 0.251144
         7         9        10     1      123.867592      497.727710    ;  uncertainty theta = 0.003292, k = 0.107500
         7         9        30     1      118.411461      268.611957    ;  uncertainty theta = 0.003755, k = 0.047125
         7        11         8     1      123.572159      370.386851    ;  uncertainty theta = 0.003352, k = 0.163488
         7        11        19     1      118.222801      414.459816    ;  uncertainty theta = 0.000863, k = 0.070977
         7        13        17     1      118.749496      460.271506    ;  uncertainty theta = 0.003588, k = 0.172695
         8        11        19     1      119.085228      446.648703    ;  uncertainty theta = 0.002071, k = 0.106371
         8        12        10     1      121.501175      353.154250    ;  uncertainty theta = 0.002433, k = 0.195299
         8        12        20     1      120.459961      452.128999    ;  uncertainty theta = 0.001274, k = 0.141642
         9         7        11     1      120.723526      420.176010    ;  uncertainty theta = 0.003371, k = 0.185510
         9         7        13     1      119.087540      377.368569    ;  uncertainty theta = 0.005333, k = 0.134682
         9        10        12     1      120.902573      365.213958    ;  uncertainty theta = 0.003018, k = 0.170113
         9        10        18     1      120.189964      431.211042    ;  uncertainty theta = 0.003028, k = 0.111724
        10         9        30     1      117.825455      268.979947    ;  uncertainty theta = 0.002672, k = 0.093872
        10        12        20     1      118.634056      418.836365    ;  uncertainty theta = 0.000762, k = 0.093560
        10        18        16     1      110.262283      495.977078    ;  uncertainty theta = 0.001418, k = 0.043039
        11         7        13     1      120.557884      379.434617    ;  uncertainty theta = 0.004041, k = 0.165911
        11         8        12     1      120.770584      483.562180    ;  uncertainty theta = 0.001505, k = 0.051061
        11         8        29     1      121.148056      281.654078    ;  uncertainty theta = 0.001355, k = 0.059808
        12         8        29     1      120.726456      279.438096    ;  uncertainty theta = 0.002115, k = 0.024758
        12        10        18     1      118.643044      401.650338    ;  uncertainty theta = 0.004738, k = 0.175701
        13         3        14     1      115.750389      388.428467    ;  uncertainty theta = 0.004794, k = 0.404330
        13        17        15     1      120.297836      406.591800    ;  uncertainty theta = 0.007128, k = 0.206393
        14         1        15     1      110.257080      442.711743    ;  uncertainty theta = 0.005479, k = 0.124092
        14         2        24     1      118.724854      321.803298    ;  uncertainty theta = 0.002512, k = 0.097147
        15         6        26     1      108.763405      392.028274    ;  uncertainty theta = 0.001366, k = 0.025646
        15         6        27     1      108.763405      392.028274    ;  uncertainty theta = 0.001366, k = 0.025646
        15         6        28     1      108.763405      392.028274    ;  uncertainty theta = 0.001366, k = 0.025646
        18        16        31     1      108.817017      444.786378    ;  uncertainty theta = 0.001502, k = 0.019460
        18        16        32     1      108.817017      444.786378    ;  uncertainty theta = 0.001502, k = 0.019460
        18        16        33     1      108.817017      444.786378    ;  uncertainty theta = 0.001502, k = 0.019460
        21        22        34     1      108.411987      361.797923    ;  uncertainty theta = 0.001815, k = 0.051128
        21        22        35     1      108.411987      361.797923    ;  uncertainty theta = 0.001815, k = 0.051128
        21        22        36     1      108.411987      361.797923    ;  uncertainty theta = 0.001815, k = 0.051128
        22        21        23     1      123.644753      627.585827    ;  uncertainty theta = 0.002707, k = 0.075030
        26         6        27     1      107.320633      312.556885    ;  uncertainty theta = 0.001808, k = 0.035510
        26         6        28     1      107.320633      312.556885    ;  uncertainty theta = 0.001808, k = 0.035510
        27         6        28     1      107.320633      312.556885    ;  uncertainty theta = 0.001808, k = 0.035510
        31        16        32     1      109.133141      330.810013    ;  uncertainty theta = 0.001542, k = 0.011144
        31        16        33     1      109.133141      330.810013    ;  uncertainty theta = 0.001542, k = 0.011144
        32        16        33     1      109.133141      330.810013    ;  uncertainty theta = 0.001542, k = 0.011144
        34        22        35     1      106.854004      313.790200    ;  uncertainty theta = 0.002317, k = 0.023239
        34        22        36     1      106.854004      313.790200    ;  uncertainty theta = 0.002317, k = 0.023239
        35        22        36     1      106.854004      313.790200    ;  uncertainty theta = 0.002317, k = 0.023239

[ dihedrals ] ; propers for gromacs 4.5 or higher, use funct 9
;       ai        aj        ak        al funct           phase               k        pn
         1        14         2         5     9        0.000000        0.479028         1    ;  uncertainty k = 1.791550
         1        14         2         5     9      180.000000        8.542245         2    ;  uncertainty k = 0.487973
         1        14         2         5     9        0.000000       -0.009817         3    ;  uncertainty k = 0.895929
         1        14         2         5     9      180.000000        0.443186         4    ;  uncertainty k = 0.413839
         1        14         2        24     9        0.000000        4.341594         1    ;  uncertainty k = 1.208881
         1        14         2        24     9      180.000000        4.099644         2    ;  uncertainty k = 1.061652
         1        14         2        24     9        0.000000        1.541898         3    ;  uncertainty k = 0.560704
         1        14         2        24     9      180.000000        0.128312         4    ;  uncertainty k = 0.107470
         1        14         3         4     9        0.000000        0.193495         1    ;  uncertainty k = 0.280644
         1        14         3         4     9      180.000000        9.524509         2    ;  uncertainty k = 0.516822
         1        14         3         4     9        0.000000       -0.755511         3    ;  uncertainty k = 0.380314
         1        14         3         4     9      180.000000        1.283137         4    ;  uncertainty k = 0.408977
         1        14         3        13     9        0.000000       -0.453671         1    ;  uncertainty k = 0.607374
         1        14         3        13     9      180.000000        8.921850         2    ;  uncertainty k = 0.375827
         1        14         3        13     9        0.000000       -0.347403         3    ;  uncertainty k = 0.355604
         1        14         3        13     9      180.000000        1.203524         4    ;  uncertainty k = 0.216983
         1        15         6        26     9        0.000000        0.436073         1    ;  uncertainty k = 0.404616
         1        15         6        26     9      180.000000        3.567173         2    ;  uncertainty k = 0.091779
         1        15         6        26     9        0.000000        0.448216         3    ;  uncertainty k = 0.080464
         1        15         6        26     9      180.000000        0.227812         4    ;  uncertainty k = 0.026758
         1        15         6        27     9        0.000000        0.436073         1    ;  uncertainty k = 0.404616
         1        15         6        27     9      180.000000        3.567173         2    ;  uncertainty k = 0.091779
         1        15         6        27     9        0.000000        0.448216         3    ;  uncertainty k = 0.080464
         1        15         6        27     9      180.000000        0.227812         4    ;  uncertainty k = 0.026758
         1        15         6        28     9        0.000000        0.436073         1    ;  uncertainty k = 0.404616
         1        15         6        28     9      180.000000        3.567173         2    ;  uncertainty k = 0.091779
         1        15         6        28     9        0.000000        0.448216         3    ;  uncertainty k = 0.080464
         1        15         6        28     9      180.000000        0.227812         4    ;  uncertainty k = 0.026758
         1        15        17        13     9        0.000000       -1.043355         1    ;  uncertainty k = 0.845398
         1        15        17        13     9      180.000000       11.790745         2    ;  uncertainty k = 0.190024
         1        15        17        13     9        0.000000        1.063798         3    ;  uncertainty k = 0.517461
         1        15        17        13     9      180.000000        1.068693         4    ;  uncertainty k = 0.163828
         2         5         4         3     9        0.000000        0.219024         1    ;  uncertainty k = 0.503041
         2         5         4         3     9      180.000000       22.275753         2    ;  uncertainty k = 0.351614
         2         5         4         3     9        0.000000       -5.436580         3    ;  uncertainty k = 1.267293
         2         5         4         3     9      180.000000        1.261225         4    ;  uncertainty k = 0.511929
         2         5         4        21     9        0.000000        0.275080         1    ;  uncertainty k = 0.803910
         2         5         4        21     9      180.000000       13.284587         2    ;  uncertainty k = 0.430206
         2         5         4        21     9        0.000000        1.650886         3    ;  uncertainty k = 0.286561
         2         5         4        21     9      180.000000        1.185707         4    ;  uncertainty k = 0.142500
         2        14         1        15     9        0.000000       -0.308568         1    ;  uncertainty k = 0.865517
         2        14         1        15     9      180.000000       17.453222         2    ;  uncertainty k = 0.316914
         2        14         1        15     9        0.000000        1.306065         3    ;  uncertainty k = 0.532529
         2        14         1        15     9      180.000000        1.319150         4    ;  uncertainty k = 0.399618
         2        14         3         4     9        0.000000       -0.095657         1    ;  uncertainty k = 0.370769
         2        14         3         4     9      180.000000       11.584521         2    ;  uncertainty k = 0.618054
         2        14         3         4     9        0.000000       -3.286110         3    ;  uncertainty k = 1.380434
         2        14         3         4     9      180.000000        1.577861         4    ;  uncertainty k = 0.566642
         2        14         3        13     9        0.000000       -0.221288         1    ;  uncertainty k = 0.515932
         2        14         3        13     9      180.000000        7.483267         2    ;  uncertainty k = 0.574477
         2        14         3        13     9        0.000000       -0.673008         3    ;  uncertainty k = 0.917352
         2        14         3        13     9      180.000000        1.203331         4    ;  uncertainty k = 0.339450
         3         4         5        25     9        0.000000       -0.168571         1    ;  uncertainty k = 0.595416
         3         4         5        25     9      180.000000       11.692218         2    ;  uncertainty k = 0.280580
         3         4         5        25     9        0.000000        1.699458         3    ;  uncertainty k = 0.496330
         3         4         5        25     9      180.000000        0.795599         4    ;  uncertainty k = 0.203142
         3         4        21        22     9        0.000000        0.805003         1    ;  uncertainty k = 0.618376
         3         4        21        22     9      180.000000        3.468480         2    ;  uncertainty k = 0.354538
         3         4        21        22     9        0.000000        0.785027         3    ;  uncertainty k = 0.271314
         3         4        21        22     9      180.000000        0.131854         4    ;  uncertainty k = 0.166367
         3         4        21        23     9        0.000000       -0.518824         1    ;  uncertainty k = 0.598709
         3         4        21        23     9      180.000000        5.976884         2    ;  uncertainty k = 0.243722
         3         4        21        23     9        0.000000        1.096998         3    ;  uncertainty k = 0.388442
         3         4        21        23     9      180.000000       -0.198339         4    ;  uncertainty k = 0.152239
         3        13         7         9     9        0.000000       -0.111756         1    ;  uncertainty k = 0.574879
         3        13         7         9     9      180.000000        4.553480         2    ;  uncertainty k = 0.454571
         3        13         7         9     9        0.000000        0.534344         3    ;  uncertainty k = 0.190615
         3        13         7         9     9      180.000000        0.366528         4    ;  uncertainty k = 0.181675
         3        13         7        11     9        0.000000       -0.565161         1    ;  uncertainty k = 1.572634
         3        13         7        11     9      180.000000        3.594581         2    ;  uncertainty k = 0.796813
         3        13         7        11     9        0.000000        0.656377         3    ;  uncertainty k = 0.395515
         3        13         7        11     9      180.000000        0.203217         4    ;  uncertainty k = 0.222248
         3        13        17        15     9        0.000000       -0.280905         1    ;  uncertainty k = 0.740598
         3        13        17        15     9      180.000000       15.029023         2    ;  uncertainty k = 0.580132
         3        13        17        15     9        0.000000        0.933627         3    ;  uncertainty k = 0.641791
         3        13        17        15     9      180.000000        1.649707         4    ;  uncertainty k = 0.551045
         3        14         1        15     9        0.000000       -0.157782         1    ;  uncertainty k = 0.634759
         3        14         1        15     9      180.000000       12.592588         2    ;  uncertainty k = 0.587031
         3        14         1        15     9        0.000000       -0.532232         3    ;  uncertainty k = 0.256122
         3        14         1        15     9      180.000000        0.869711         4    ;  uncertainty k = 0.212810
         3        14         2         5     9        0.000000        0.127886         1    ;  uncertainty k = 1.210005
         3        14         2         5     9      180.000000       13.995464         2    ;  uncertainty k = 1.048352
         3        14         2         5     9        0.000000       -7.380930         3    ;  uncertainty k = 1.559232
         3        14         2         5     9      180.000000        0.908567         4    ;  uncertainty k = 0.419003
         3        14         2        24     9        0.000000        3.868398         1    ;  uncertainty k = 1.743834
         3        14         2        24     9      180.000000        7.093951         2    ;  uncertainty k = 0.974142
         3        14         2        24     9        0.000000        1.161409         3    ;  uncertainty k = 0.383979
         3        14         2        24     9      180.000000        0.132145         4    ;  uncertainty k = 0.278666
         4         3        13         7     9        0.000000       -0.521349         1    ;  uncertainty k = 1.332306
         4         3        13         7     9      180.000000        4.948839         2    ;  uncertainty k = 0.930000
         4         3        13         7     9        0.000000        0.954113         3    ;  uncertainty k = 0.201180
         4         3        13         7     9      180.000000        0.722124         4    ;  uncertainty k = 0.271296
         4         3        13        17     9        0.000000       -0.414836         1    ;  uncertainty k = 1.159694
         4         3        13        17     9      180.000000        7.252817         2    ;  uncertainty k = 1.116399
         4         3        13        17     9        0.000000        0.454338         3    ;  uncertainty k = 0.513976
         4         3        13        17     9      180.000000        1.078818         4    ;  uncertainty k = 0.466721
         4         5         2        14     9        0.000000       -0.346157         1    ;  uncertainty k = 0.396065
         4         5         2        14     9      180.000000       16.201893         2    ;  uncertainty k = 0.285728
         4         5         2        14     9        0.000000       -6.752117         3    ;  uncertainty k = 1.298643
         4         5         2        14     9      180.000000        1.106403         4    ;  uncertainty k = 0.409835
         4         5         2        24     9        0.000000        3.895442         1    ;  uncertainty k = 1.797766
         4         5         2        24     9      180.000000       10.662825         2    ;  uncertainty k = 0.494470
         4         5         2        24     9        0.000000        1.588148         3    ;  uncertainty k = 0.734745
         4         5         2        24     9      180.000000       -0.317973         4    ;  uncertainty k = 0.108977
         4        21        22        34     9        0.000000       -0.749567         1    ;  uncertainty k = 0.383138
         4        21        22        34     9      180.000000        3.116237         2    ;  uncertainty k = 0.308458
         4        21        22        34     9        0.000000        0.656083         3    ;  uncertainty k = 0.083377
         4        21        22        34     9      180.000000        0.201077         4    ;  uncertainty k = 0.076613
         4        21        22        35     9        0.000000       -0.749567         1    ;  uncertainty k = 0.383138
         4        21        22        35     9      180.000000        3.116237         2    ;  uncertainty k = 0.308458
         4        21        22        35     9        0.000000        0.656083         3    ;  uncertainty k = 0.083377
         4        21        22        35     9      180.000000        0.201077         4    ;  uncertainty k = 0.076613
         4        21        22        36     9        0.000000       -0.749567         1    ;  uncertainty k = 0.383138
         4        21        22        36     9      180.000000        3.116237         2    ;  uncertainty k = 0.308458
         4        21        22        36     9        0.000000        0.656083         3    ;  uncertainty k = 0.083377
         4        21        22        36     9      180.000000        0.201077         4    ;  uncertainty k = 0.076613
         5         4         3        13     9        0.000000        0.570976         1    ;  uncertainty k = 0.970580
         5         4         3        13     9      180.000000        5.239935         2    ;  uncertainty k = 0.417791
         5         4         3        13     9        0.000000        0.662711         3    ;  uncertainty k = 0.684734
         5         4         3        13     9      180.000000        0.725467         4    ;  uncertainty k = 0.315897
         5         4         3        14     9        0.000000        0.356314         1    ;  uncertainty k = 0.948993
         5         4         3        14     9      180.000000       11.122105         2    ;  uncertainty k = 1.072725
         5         4         3        14     9        0.000000      -10.647548         3    ;  uncertainty k = 2.321453
         5         4         3        14     9      180.000000        1.833408         4    ;  uncertainty k = 0.503602
         5         4        21        22     9        0.000000       -1.056625         1    ;  uncertainty k = 1.242314
         5         4        21        22     9      180.000000        3.265303         2    ;  uncertainty k = 0.418972
         5         4        21        22     9        0.000000        0.542814         3    ;  uncertainty k = 0.125110
         5         4        21        22     9      180.000000       -0.089992         4    ;  uncertainty k = 0.150403
         5         4        21        23     9        0.000000        1.398296         1    ;  uncertainty k = 0.651761
         5         4        21        23     9      180.000000        5.645738         2    ;  uncertainty k = 0.296738
         5         4        21        23     9        0.000000        1.042922         3    ;  uncertainty k = 0.089621
         5         4        21        23     9      180.000000       -0.167386         4    ;  uncertainty k = 0.122901
         6        15         1        14     9        0.000000        0.634726         1    ;  uncertainty k = 1.182264
         6        15         1        14     9      180.000000       14.862280         2    ;  uncertainty k = 0.501263
         6        15         1        14     9        0.000000        2.433673         3    ;  uncertainty k = 0.315707
         6        15         1        14     9      180.000000        1.336006         4    ;  uncertainty k = 0.382128
         6        15        17        13     9        0.000000        0.173704         1    ;  uncertainty k = 0.657238
         6        15        17        13     9      180.000000       10.113478         2    ;  uncertainty k = 0.220500
         6        15        17        13     9        0.000000        1.687325         3    ;  uncertainty k = 0.493009
         6        15        17        13     9      180.000000        1.200822         4    ;  uncertainty k = 0.304848
         7         9        10        12     9        0.000000        0.052001         1    ;  uncertainty k = 0.333916
         7         9        10        12     9      180.000000        7.314855         2    ;  uncertainty k = 0.796687
         7         9        10        12     9        0.000000        0.581358         3    ;  uncertainty k = 0.229874
         7         9        10        12     9      180.000000        1.537355         4    ;  uncertainty k = 0.328395
         7         9        10        18     9        0.000000        0.037876         1    ;  uncertainty k = 0.222479
         7         9        10        18     9      180.000000       10.782218         2    ;  uncertainty k = 0.182440
         7         9        10        18     9        0.000000        1.125871         3    ;  uncertainty k = 0.200421
         7         9        10        18     9      180.000000        1.685523         4    ;  uncertainty k = 0.125656
         7        11         8        12     9        0.000000       -0.000060         1    ;  uncertainty k = 0.317850
         7        11         8        12     9      180.000000        8.905538         2    ;  uncertainty k = 0.486935
         7        11         8        12     9        0.000000        0.179968         3    ;  uncertainty k = 0.328274
         7        11         8        12     9      180.000000        1.317487         4    ;  uncertainty k = 0.331496
         7        11         8        29     9        0.000000        0.009051         1    ;  uncertainty k = 0.181044
         7        11         8        29     9      180.000000        5.821280         2    ;  uncertainty k = 0.702294
         7        11         8        29     9        0.000000        1.332631         3    ;  uncertainty k = 0.326759
         7        11         8        29     9      180.000000        1.619670         4    ;  uncertainty k = 0.233945
         7        13         3        14     9        0.000000        0.035203         1    ;  uncertainty k = 0.808044
         7        13         3        14     9      180.000000        7.775660         2    ;  uncertainty k = 0.914285
         7        13         3        14     9        0.000000        0.658542         3    ;  uncertainty k = 0.317878
         7        13         3        14     9      180.000000        0.907728         4    ;  uncertainty k = 0.341096
         7        13        17        15     9        0.000000       -0.428795         1    ;  uncertainty k = 0.555882
         7        13        17        15     9      180.000000       16.209994         2    ;  uncertainty k = 0.745294
         7        13        17        15     9        0.000000        2.253547         3    ;  uncertainty k = 0.643091
         7        13        17        15     9      180.000000        1.772584         4    ;  uncertainty k = 0.434410
         8        11         7         9     9        0.000000       -0.198906         1    ;  uncertainty k = 0.447081
         8        11         7         9     9      180.000000        7.758067         2    ;  uncertainty k = 0.735181
         8        11         7         9     9        0.000000        0.005698         3    ;  uncertainty k = 0.354315
         8        11         7         9     9      180.000000        1.223790         4    ;  uncertainty k = 0.304172
         8        11         7        13     9        0.000000       -0.007285         1    ;  uncertainty k = 0.556967
         8        11         7        13     9      180.000000        6.411543         2    ;  uncertainty k = 0.576372
         8        11         7        13     9        0.000000        1.387577         3    ;  uncertainty k = 0.326502
         8        11         7        13     9      180.000000        1.791892         4    ;  uncertainty k = 0.136888
         8        12        10         9     9        0.000000       -0.160112         1    ;  uncertainty k = 0.365456
         8        12        10         9     9      180.000000        5.802140         2    ;  uncertainty k = 0.973452
         8        12        10         9     9        0.000000        0.439924         3    ;  uncertainty k = 0.180992
         8        12        10         9     9      180.000000        1.284193         4    ;  uncertainty k = 0.381519
         8        12        10        18     9        0.000000        0.168677         1    ;  uncertainty k = 0.147161
         8        12        10        18     9      180.000000        7.998622         2    ;  uncertainty k = 0.496512
         8        12        10        18     9        0.000000        1.217222         3    ;  uncertainty k = 0.240785
         8        12        10        18     9      180.000000        1.684817         4    ;  uncertainty k = 0.129999
         9         7        11        19     9        0.000000       -0.045303         1    ;  uncertainty k = 0.273537
         9         7        11        19     9      180.000000        7.879617         2    ;  uncertainty k = 0.310991
         9         7        11        19     9        0.000000        1.351012         3    ;  uncertainty k = 0.346992
         9         7        11        19     9      180.000000        1.535630         4    ;  uncertainty k = 0.131059
         9         7        13        17     9        0.000000        1.760121         1    ;  uncertainty k = 1.400398
         9         7        13        17     9      180.000000        6.300659         2    ;  uncertainty k = 0.237038
         9         7        13        17     9        0.000000        0.457647         3    ;  uncertainty k = 0.230051
         9         7        13        17     9      180.000000        0.427294         4    ;  uncertainty k = 0.173329
         9        10        12        20     9        0.000000        0.246617         1    ;  uncertainty k = 0.379115
         9        10        12        20     9      180.000000        6.909539         2    ;  uncertainty k = 0.691172
         9        10        12        20     9        0.000000        1.419799         3    ;  uncertainty k = 0.301860
         9        10        12        20     9      180.000000        1.464056         4    ;  uncertainty k = 0.209372
         9        10        18        16     9        0.000000       -0.042244         1    ;  uncertainty k = 0.307327
         9        10        18        16     9      180.000000        6.518517         2    ;  uncertainty k = 0.219686
         9        10        18        16     9        0.000000       -0.371907         3    ;  uncertainty k = 0.148397
         9        10        18        16     9      180.000000        0.073097         4    ;  uncertainty k = 0.099372
        10         9         7        11     9        0.000000        0.059970         1    ;  uncertainty k = 0.189603
        10         9         7        11     9      180.000000       10.004525         2    ;  uncertainty k = 0.523775
        10         9         7        11     9        0.000000        0.108084         3    ;  uncertainty k = 0.198062
        10         9         7        11     9      180.000000        1.278391         4    ;  uncertainty k = 0.330368
        10         9         7        13     9        0.000000        0.029829         1    ;  uncertainty k = 0.149098
        10         9         7        13     9      180.000000        8.301144         2    ;  uncertainty k = 0.622834
        10         9         7        13     9        0.000000        1.446471         3    ;  uncertainty k = 0.326277
        10         9         7        13     9      180.000000        1.908064         4    ;  uncertainty k = 0.207211
        10        12         8        11     9        0.000000       -0.051246         1    ;  uncertainty k = 0.265356
        10        12         8        11     9      180.000000        8.906679         2    ;  uncertainty k = 0.444345
        10        12         8        11     9        0.000000        0.373666         3    ;  uncertainty k = 0.412984
        10        12         8        11     9      180.000000        1.383742         4    ;  uncertainty k = 0.241518
        10        12         8        29     9        0.000000        0.026970         1    ;  uncertainty k = 0.201681
        10        12         8        29     9      180.000000        6.665757         2    ;  uncertainty k = 0.606409
        10        12         8        29     9        0.000000        1.325554         3    ;  uncertainty k = 0.393768
        10        12         8        29     9      180.000000        1.580156         4    ;  uncertainty k = 0.149897
        10        18        16        31     9        0.000000        1.124364         1    ;  uncertainty k = 0.199625
        10        18        16        31     9      180.000000       -2.017544         2    ;  uncertainty k = 0.263863
        10        18        16        31     9        0.000000        1.022273         3    ;  uncertainty k = 0.022119
        10        18        16        31     9      180.000000        0.258390         4    ;  uncertainty k = 0.036975
        10        18        16        32     9        0.000000        1.124364         1    ;  uncertainty k = 0.199625
        10        18        16        32     9      180.000000       -2.017544         2    ;  uncertainty k = 0.263863
        10        18        16        32     9        0.000000        1.022273         3    ;  uncertainty k = 0.022119
        10        18        16        32     9      180.000000        0.258390         4    ;  uncertainty k = 0.036975
        10        18        16        33     9        0.000000        1.124364         1    ;  uncertainty k = 0.199625
        10        18        16        33     9      180.000000       -2.017544         2    ;  uncertainty k = 0.263863
        10        18        16        33     9        0.000000        1.022273         3    ;  uncertainty k = 0.022119
        10        18        16        33     9      180.000000        0.258390         4    ;  uncertainty k = 0.036975
        11         7         9        30     9        0.000000        0.219925         1    ;  uncertainty k = 0.193300
        11         7         9        30     9      180.000000        7.375192         2    ;  uncertainty k = 0.216985
        11         7         9        30     9        0.000000        1.329289         3    ;  uncertainty k = 0.343779
        11         7         9        30     9      180.000000        1.650294         4    ;  uncertainty k = 0.102988
        11         7        13        17     9        0.000000        1.199951         1    ;  uncertainty k = 0.691398
        11         7        13        17     9      180.000000        5.394251         2    ;  uncertainty k = 0.270031
        11         7        13        17     9        0.000000        1.027738         3    ;  uncertainty k = 0.206013
        11         7        13        17     9      180.000000        0.367749         4    ;  uncertainty k = 0.104352
        11         8        12        20     9        0.000000       -0.011355         1    ;  uncertainty k = 0.190662
        11         8        12        20     9      180.000000        9.747868         2    ;  uncertainty k = 0.618011
        11         8        12        20     9        0.000000        1.512293         3    ;  uncertainty k = 0.404646
        11         8        12        20     9      180.000000        1.724437         4    ;  uncertainty k = 0.192266
        12         8        11        19     9        0.000000        0.060056         1    ;  uncertainty k = 0.110838
        12         8        11        19     9      180.000000        9.377505         2    ;  uncertainty k = 0.372753
        12         8        11        19     9        0.000000        1.351015         3    ;  uncertainty k = 0.364493
        12         8        11        19     9      180.000000        1.708250         4    ;  uncertainty k = 0.122914
        12        10         9        30     9        0.000000        0.252864         1    ;  uncertainty k = 0.226630
        12        10         9        30     9      180.000000        5.954042         2    ;  uncertainty k = 0.292010
        12        10         9        30     9        0.000000        1.494457         3    ;  uncertainty k = 0.316005
        12        10         9        30     9      180.000000        1.825252         4    ;  uncertainty k = 0.132671
        12        10        18        16     9        0.000000        2.249741         1    ;  uncertainty k = 0.466203
        12        10        18        16     9      180.000000        5.839435         2    ;  uncertainty k = 0.118861
        12        10        18        16     9        0.000000        1.185093         3    ;  uncertainty k = 0.203567
        12        10        18        16     9      180.000000        0.095406         4    ;  uncertainty k = 0.053427
        13         3         4        21     9        0.000000        1.591083         1    ;  uncertainty k = 0.831063
        13         3         4        21     9      180.000000        3.669850         2    ;  uncertainty k = 1.017854
        13         3         4        21     9        0.000000        1.781587         3    ;  uncertainty k = 0.516436
        13         3         4        21     9      180.000000        0.094830         4    ;  uncertainty k = 0.198388
        13         7         9        30     9        0.000000       -0.111291         1    ;  uncertainty k = 0.185451
        13         7         9        30     9      180.000000        7.963568         2    ;  uncertainty k = 0.302773
        13         7         9        30     9        0.000000        0.719676         3    ;  uncertainty k = 0.312173
        13         7         9        30     9      180.000000        1.321200         4    ;  uncertainty k = 0.069532
        13         7        11        19     9        0.000000       -0.223264         1    ;  uncertainty k = 0.516668
        13         7        11        19     9      180.000000        7.883801         2    ;  uncertainty k = 0.400777
        13         7        11        19     9        0.000000        1.199078         3    ;  uncertainty k = 0.232057
        13         7        11        19     9      180.000000        1.441818         4    ;  uncertainty k = 0.194224
        14         1        15        17     9        0.000000       -0.358940         1    ;  uncertainty k = 0.695314
        14         1        15        17     9      180.000000       16.765112         2    ;  uncertainty k = 0.187399
        14         1        15        17     9        0.000000        1.391174         3    ;  uncertainty k = 0.397826
        14         1        15        17     9      180.000000        1.155145         4    ;  uncertainty k = 0.212020
        14         2         5        25     9        0.000000        1.330622         1    ;  uncertainty k = 1.029873
        14         2         5        25     9      180.000000        9.057382         2    ;  uncertainty k = 0.590689
        14         2         5        25     9        0.000000        1.172156         3    ;  uncertainty k = 0.297201
        14         2         5        25     9      180.000000        0.106053         4    ;  uncertainty k = 0.071254
        14         3         4        21     9        0.000000        0.362045         1    ;  uncertainty k = 1.461624
        14         3         4        21     9      180.000000        8.321840         2    ;  uncertainty k = 0.383015
        14         3         4        21     9        0.000000        1.437544         3    ;  uncertainty k = 0.716160
        14         3         4        21     9      180.000000        0.444194         4    ;  uncertainty k = 0.341790
        14         3        13        17     9        0.000000       -0.455842         1    ;  uncertainty k = 0.758631
        14         3        13        17     9      180.000000       11.965462         2    ;  uncertainty k = 0.361111
        14         3        13        17     9        0.000000       -1.406393         3    ;  uncertainty k = 0.548339
        14         3        13        17     9      180.000000        0.814926         4    ;  uncertainty k = 0.145083
        17        15         6        26     9        0.000000        0.291882         1    ;  uncertainty k = 0.230247
        17        15         6        26     9      180.000000        3.621590         2    ;  uncertainty k = 0.143318
        17        15         6        26     9        0.000000        0.521229         3    ;  uncertainty k = 0.049638
        17        15         6        26     9      180.000000        0.249820         4    ;  uncertainty k = 0.038309
        17        15         6        27     9        0.000000        0.291882         1    ;  uncertainty k = 0.230247
        17        15         6        27     9      180.000000        3.621590         2    ;  uncertainty k = 0.143318
        17        15         6        27     9        0.000000        0.521229         3    ;  uncertainty k = 0.049638
        17        15         6        27     9      180.000000        0.249820         4    ;  uncertainty k = 0.038309
        17        15         6        28     9        0.000000        0.291882         1    ;  uncertainty k = 0.230247
        17        15         6        28     9      180.000000        3.621590         2    ;  uncertainty k = 0.143318
        17        15         6        28     9        0.000000        0.521229         3    ;  uncertainty k = 0.049638
        17        15         6        28     9      180.000000        0.249820         4    ;  uncertainty k = 0.038309
        18        10         9        30     9        0.000000        0.005613         1    ;  uncertainty k = 0.270060
        18        10         9        30     9      180.000000        9.115472         2    ;  uncertainty k = 0.424603
        18        10         9        30     9        0.000000        0.801237         3    ;  uncertainty k = 0.159315
        18        10         9        30     9      180.000000        1.345057         4    ;  uncertainty k = 0.285009
        18        10        12        20     9        0.000000       -0.208518         1    ;  uncertainty k = 0.727865
        18        10        12        20     9      180.000000        9.554306         2    ;  uncertainty k = 0.396275
        18        10        12        20     9        0.000000        0.864518         3    ;  uncertainty k = 0.255533
        18        10        12        20     9      180.000000        1.371781         4    ;  uncertainty k = 0.179734
        19        11         8        29     9        0.000000       -0.133254         1    ;  uncertainty k = 0.421231
        19        11         8        29     9      180.000000        7.579307         2    ;  uncertainty k = 0.497753
        19        11         8        29     9        0.000000        0.609942         3    ;  uncertainty k = 0.285419
        19        11         8        29     9      180.000000        1.137636         4    ;  uncertainty k = 0.276633
        20        12         8        29     9        0.000000       -0.204169         1    ;  uncertainty k = 0.240359
        20        12         8        29     9      180.000000        7.600902         2    ;  uncertainty k = 0.534725
        20        12         8        29     9        0.000000        0.578093         3    ;  uncertainty k = 0.285093
        20        12         8        29     9      180.000000        1.053978         4    ;  uncertainty k = 0.242327
        21         4         5        25     9        0.000000       -0.435818         1    ;  uncertainty k = 0.560757
        21         4         5        25     9      180.000000        8.267574         2    ;  uncertainty k = 0.797874
        21         4         5        25     9        0.000000        1.497592         3    ;  uncertainty k = 0.182726
        21         4         5        25     9      180.000000        0.549327         4    ;  uncertainty k = 0.177136
        23        21        22        34     9        0.000000        0.016207         1    ;  uncertainty k = 0.314954
        23        21        22        34     9      180.000000        4.807938         2    ;  uncertainty k = 0.365400
        23        21        22        34     9        0.000000        0.363751         3    ;  uncertainty k = 0.070632
        23        21        22        34     9      180.000000        0.253548         4    ;  uncertainty k = 0.057288
        23        21        22        35     9        0.000000        0.016207         1    ;  uncertainty k = 0.314954
        23        21        22        35     9      180.000000        4.807938         2    ;  uncertainty k = 0.365400
        23        21        22        35     9        0.000000        0.363751         3    ;  uncertainty k = 0.070632
        23        21        22        35     9      180.000000        0.253548         4    ;  uncertainty k = 0.057288
        23        21        22        36     9        0.000000        0.016207         1    ;  uncertainty k = 0.314954
        23        21        22        36     9      180.000000        4.807938         2    ;  uncertainty k = 0.365400
        23        21        22        36     9        0.000000        0.363751         3    ;  uncertainty k = 0.070632
        23        21        22        36     9      180.000000        0.253548         4    ;  uncertainty k = 0.057288
        24         2         5        25     9        0.000000       -0.708311         1    ;  uncertainty k = 1.424930
        24         2         5        25     9      180.000000        2.671852         2    ;  uncertainty k = 0.522136
        24         2         5        25     9        0.000000        1.205871         3    ;  uncertainty k = 0.447118
        24         2         5        25     9      180.000000        0.071072         4    ;  uncertainty k = 0.073878

[ dihedrals ] ; impropers
;       ai        aj        ak        al funct           phase               k        pn
         3         4        13        14     4      180.000000        0.582050         2    ;  uncertainty k = 0.810314
         3        13        14         4     4      180.000000        0.582050         2    ;  uncertainty k = 0.810314
         3        14         4        13     4      180.000000        0.582050         2    ;  uncertainty k = 0.810314
         4         3         5        21     4      180.000000        1.977734         2    ;  uncertainty k = 1.199947
         4         5        21         3     4      180.000000        1.977734         2    ;  uncertainty k = 1.199947
         4        21         3         5     4      180.000000        1.977734         2    ;  uncertainty k = 1.199947
         5         2         4        25     4      180.000000        2.403977         2    ;  uncertainty k = 0.541037
         5         4        25         2     4      180.000000        2.403977         2    ;  uncertainty k = 0.541037
         5        25         2         4     4      180.000000        2.403977         2    ;  uncertainty k = 0.541037
         7         9        11        13     4      180.000000       12.133136         2    ;  uncertainty k = 0.199321
         7        11        13         9     4      180.000000       12.133136         2    ;  uncertainty k = 0.199321
         7        13         9        11     4      180.000000       12.133136         2    ;  uncertainty k = 0.199321
         8        11        12        29     4      180.000000        2.942476         2    ;  uncertainty k = 0.290343
         8        12        29        11     4      180.000000        2.942476         2    ;  uncertainty k = 0.290343
         8        29        11        12     4      180.000000        2.942476         2    ;  uncertainty k = 0.290343
         9         7        10        30     4      180.000000        2.763547         2    ;  uncertainty k = 0.183830
         9        10        30         7     4      180.000000        2.763547         2    ;  uncertainty k = 0.183830
         9        30         7        10     4      180.000000        2.763547         2    ;  uncertainty k = 0.183830
        10         9        12        18     4      180.000000       17.975414         2    ;  uncertainty k = 0.072472
        10        12        18         9     4      180.000000       17.975414         2    ;  uncertainty k = 0.072472
        10        18         9        12     4      180.000000       17.975414         2    ;  uncertainty k = 0.072472
        11         7         8        19     4      180.000000       13.557319         2    ;  uncertainty k = 0.075131
        11         8        19         7     4      180.000000       13.557319         2    ;  uncertainty k = 0.075131
        11        19         7         8     4      180.000000       13.557319         2    ;  uncertainty k = 0.075131
        12         8        10        20     4      180.000000       11.859023         2    ;  uncertainty k = 0.093671
        12        10        20         8     4      180.000000       11.859023         2    ;  uncertainty k = 0.093671
        12        20         8        10     4      180.000000       11.859023         2    ;  uncertainty k = 0.093671
        13         3         7        17     4      180.000000       27.848848         2    ;  uncertainty k = 0.052288
        13         7        17         3     4      180.000000       27.848848         2    ;  uncertainty k = 0.052288
        13        17         3         7     4      180.000000       27.848848         2    ;  uncertainty k = 0.052288
        14         1         2         3     4      180.000000       10.590693         2    ;  uncertainty k = 0.207249
        14         2         3         1     4      180.000000       10.590693         2    ;  uncertainty k = 0.207249
        14         3         1         2     4      180.000000       10.590693         2    ;  uncertainty k = 0.207249
        15         1         6        17     4      180.000000       36.182482         2    ;  uncertainty k = 0.032006
        15         6        17         1     4      180.000000       36.182482         2    ;  uncertainty k = 0.032006
        15        17         1         6     4      180.000000       36.182482         2    ;  uncertainty k = 0.032006
        21         4        22        23     4      180.000000       56.504424         2    ;  uncertainty k = 0.039488
        21        22        23         4     4      180.000000       56.504424         2    ;  uncertainty k = 0.039488
        21        23         4        22     4      180.000000       56.504424         2    ;  uncertainty k = 0.039488

[ pairs ]
;       ai        aj funct
         1         4     1
         1         5     1
         1        13     1
         1        24     1
         1        26     1
         1        27     1
         1        28     1
         2        13     1
         2        15     1
         2        21     1
         3         9     1
         3        11     1
         3        15     1
         3        22     1
         3        23     1
         3        24     1
         3        25     1
         4         7     1
         4        17     1
         4        24     1
         4        34     1
         4        35     1
         4        36     1
         5        13     1
         5        22     1
         5        23     1
         6        13     1
         6        14     1
         7        12     1
         7        14     1
         7        15     1
         7        18     1
         7        29     1
         8         9     1
         8        13     1
         8        18     1
         9        16     1
         9        17     1
         9        19     1
         9        20     1
        10        11     1
        10        13     1
        10        29     1
        10        31     1
        10        32     1
        10        33     1
        11        17     1
        11        20     1
        11        30     1
        12        16     1
        12        19     1
        12        30     1
        13        19     1
        13        21     1
        13        30     1
        14        17     1
        14        21     1
        14        25     1
        17        26     1
        17        27     1
        17        28     1
        18        20     1
        18        30     1
        19        29     1
        20        29     1
        21        25     1
        23        34     1
        23        35     1
        23        36     1
        24        25     1
