; ITP file created by ByteFF-joint-25, 2025-07-14 11:38:38.993045

[ atomtypes ]
;name           bonded.type        at.num        mass        charge   ptype           sigma         epsilon
 n0bf                                   7      0.0000       0.00000       A     3.38397e-01     3.93512e-01    ;  uncertainty sigma = 0.000012, epsilon = 0.000535
 n1bf                                   7      0.0000       0.00000       A     3.20619e-01     8.54380e-01    ;  uncertainty sigma = 0.000022, epsilon = 0.001066
 c2bf                                   6      0.0000       0.00000       A     3.31557e-01     4.12831e-01    ;  uncertainty sigma = 0.000019, epsilon = 0.001460
 c3bf                                   6      0.0000       0.00000       A     3.31509e-01     4.13278e-01    ;  uncertainty sigma = 0.000007, epsilon = 0.000980
 c4bf                                   6      0.0000       0.00000       A     3.31518e-01     4.13111e-01    ;  uncertainty sigma = 0.000011, epsilon = 0.001285
 c5bf                                   6      0.0000       0.00000       A     3.39771e-01     4.51015e-01    ;  uncertainty sigma = 0.000004, epsilon = 0.000513
 c6bf                                   6      0.0000       0.00000       A     3.31516e-01     4.13279e-01    ;  uncertainty sigma = 0.000012, epsilon = 0.000764
 c7bf                                   6      0.0000       0.00000       A     3.31541e-01     4.13380e-01    ;  uncertainty sigma = 0.000008, epsilon = 0.000747
 c8bf                                   6      0.0000       0.00000       A     3.31505e-01     4.13231e-01    ;  uncertainty sigma = 0.000015, epsilon = 0.000497
 c9bf                                   6      0.0000       0.00000       A     3.31518e-01     4.13613e-01    ;  uncertainty sigma = 0.000012, epsilon = 0.000598
 c10bf                                  6      0.0000       0.00000       A     3.31525e-01     4.13420e-01    ;  uncertainty sigma = 0.000006, epsilon = 0.000415
 c11bf                                  6      0.0000       0.00000       A     3.31529e-01     4.13443e-01    ;  uncertainty sigma = 0.000006, epsilon = 0.000844
 c12bf                                  6      0.0000       0.00000       A     3.31514e-01     4.12069e-01    ;  uncertainty sigma = 0.000018, epsilon = 0.001047
 c13bf                                  6      0.0000       0.00000       A     3.31530e-01     4.13285e-01    ;  uncertainty sigma = 0.000019, epsilon = 0.001078
 c14bf                                  6      0.0000       0.00000       A     3.31516e-01     4.13399e-01    ;  uncertainty sigma = 0.000004, epsilon = 0.000382
 c15bf                                  6      0.0000       0.00000       A     3.39780e-01     4.50883e-01    ;  uncertainty sigma = 0.000003, epsilon = 0.000560
 n16bf                                  7      0.0000       0.00000       A     3.38414e-01     3.93153e-01    ;  uncertainty sigma = 0.000011, epsilon = 0.000436
 o17bf                                  8      0.0000       0.00000       A     3.15642e-01     3.03426e-01    ;  uncertainty sigma = 0.000016, epsilon = 0.000856
 cl18bf                                17      0.0000       0.00000       A     3.46592e-01     1.10386e+00    ;  uncertainty sigma = 0.000019, epsilon = 0.001119
 cl19bf                                17      0.0000       0.00000       A     3.46623e-01     1.10451e+00    ;  uncertainty sigma = 0.000020, epsilon = 0.000454
 cl20bf                                17      0.0000       0.00000       A     3.46519e-01     1.10223e+00    ;  uncertainty sigma = 0.000033, epsilon = 0.005474
 h21bf                                  1      0.0000       0.00000       A     1.10668e-01     4.12716e-02    ;  uncertainty sigma = 0.000056, epsilon = 0.001054
 h22bf                                  1      0.0000       0.00000       A     2.53642e-01     6.68077e-02    ;  uncertainty sigma = 0.000046, epsilon = 0.000711
 h23bf                                  1      0.0000       0.00000       A     2.60030e-01     8.67232e-02    ;  uncertainty sigma = 0.000008, epsilon = 0.000464
 h24bf                                  1      0.0000       0.00000       A     2.60030e-01     8.67232e-02    ;  uncertainty sigma = 0.000008, epsilon = 0.000464
 h25bf                                  1      0.0000       0.00000       A     2.60030e-01     8.67232e-02    ;  uncertainty sigma = 0.000008, epsilon = 0.000464
 h26bf                                  1      0.0000       0.00000       A     2.62565e-01     6.71866e-02    ;  uncertainty sigma = 0.000016, epsilon = 0.000591
 h27bf                                  1      0.0000       0.00000       A     2.62570e-01     6.72218e-02    ;  uncertainty sigma = 0.000012, epsilon = 0.000970
 h28bf                                  1      0.0000       0.00000       A     2.42205e-01     8.67537e-02    ;  uncertainty sigma = 0.000015, epsilon = 0.000624
 h29bf                                  1      0.0000       0.00000       A     2.42205e-01     8.67537e-02    ;  uncertainty sigma = 0.000015, epsilon = 0.000624
 h30bf                                  1      0.0000       0.00000       A     2.42205e-01     8.67537e-02    ;  uncertainty sigma = 0.000015, epsilon = 0.000624

[ moleculetype ]
;name             nrexcl
 MOL                   3

[ atoms ]
;       nr            type      resi   res      atom      cgnr      charge          mass ; qtot
         1            n0bf         1   UNL        n0         1    -0.71703       14.0070 ; qtot   -0.717
         2            n1bf         1   UNL        n1         2    -0.28431       14.0070 ; qtot   -1.001
         3            c2bf         1   UNL        c2         3    -0.30063       12.0110 ; qtot   -1.302
         4            c3bf         1   UNL        c3         4    -0.00086       12.0110 ; qtot   -1.303
         5            c4bf         1   UNL        c4         5    -0.09033       12.0110 ; qtot   -1.393
         6            c5bf         1   UNL        c5         6    -0.13140       12.0110 ; qtot   -1.525
         7            c6bf         1   UNL        c6         7    -0.10875       12.0110 ; qtot   -1.633
         8            c7bf         1   UNL        c7         8    -0.09258       12.0110 ; qtot   -1.726
         9            c8bf         1   UNL        c8         9    -0.15022       12.0110 ; qtot   -1.876
        10            c9bf         1   UNL        c9        10     0.13648       12.0110 ; qtot   -1.740
        11           c10bf         1   UNL       c10        11     0.05210       12.0110 ; qtot   -1.688
        12           c11bf         1   UNL       c11        12     0.00923       12.0110 ; qtot   -1.678
        13           c12bf         1   UNL       c12        13     0.56156       12.0110 ; qtot   -1.117
        14           c13bf         1   UNL       c13        14     0.46440       12.0110 ; qtot   -0.652
        15           c14bf         1   UNL       c14        15     0.68174       12.0110 ; qtot    0.029
        16           c15bf         1   UNL       c15        16     0.11900       12.0110 ; qtot    0.148
        17           n16bf         1   UNL       n16        17    -0.73014       14.0070 ; qtot   -0.582
        18           o17bf         1   UNL       o17        18    -0.31291       15.9990 ; qtot   -0.895
        19          cl18bf         1   UNL      cl18        19    -0.09673       35.4530 ; qtot   -0.991
        20          cl19bf         1   UNL      cl19        20    -0.09143       35.4530 ; qtot   -1.083
        21          cl20bf         1   UNL      cl20        21    -0.07298       35.4530 ; qtot   -1.156
        22           h21bf         1   UNL       h21        22     0.32080        1.0080 ; qtot   -0.835
        23           h22bf         1   UNL       h22        23     0.18430        1.0080 ; qtot   -0.651
        24           h23bf         1   UNL       h23        24     0.06163        1.0080 ; qtot   -0.589
        25           h24bf         1   UNL       h24        25     0.06163        1.0080 ; qtot   -0.527
        26           h25bf         1   UNL       h25        26     0.06163        1.0080 ; qtot   -0.466
        27           h26bf         1   UNL       h26        27     0.16962        1.0080 ; qtot   -0.296
        28           h27bf         1   UNL       h27        28     0.15838        1.0080 ; qtot   -0.138
        29           h28bf         1   UNL       h28        29     0.04594        1.0080 ; qtot   -0.092
        30           h29bf         1   UNL       h29        30     0.04594        1.0080 ; qtot   -0.046
        31           h30bf         1   UNL       h30        31     0.04592        1.0080 ; qtot    0.000

[ bonds ]
;       ai        aj funct               r               k
         1        14     1        0.133555   464873.861719    ;  uncertainty r = 0.000102, k = 13.662592
         1        15     1        0.134059   400052.991455    ;  uncertainty r = 0.000063, k = 7.289889
         2         5     1        0.138667   329879.057861    ;  uncertainty r = 0.000085, k = 10.952243
         2        14     1        0.137528   348383.655908    ;  uncertainty r = 0.000062, k = 15.231972
         2        22     1        0.101444   420237.905762    ;  uncertainty r = 0.000063, k = 1.620630
         3         4     1        0.144156   247160.555566    ;  uncertainty r = 0.000066, k = 23.162863
         3        13     1        0.140914   361659.071143    ;  uncertainty r = 0.000077, k = 21.950559
         3        14     1        0.142574   457044.694727    ;  uncertainty r = 0.000092, k = 9.956328
         4         5     1        0.137730   426909.782031    ;  uncertainty r = 0.000077, k = 9.596686
         4        21     1        0.173526   202358.812695    ;  uncertainty r = 0.000163, k = 6.497569
         5        23     1        0.108107   340739.684033    ;  uncertainty r = 0.000024, k = 1.924667
         6        15     1        0.150613   262921.523193    ;  uncertainty r = 0.000031, k = 4.130415
         6        24     1        0.109388   311699.266309    ;  uncertainty r = 0.000011, k = 2.209894
         6        25     1        0.109388   311699.266309    ;  uncertainty r = 0.000011, k = 2.209894
         6        26     1        0.109388   311699.266309    ;  uncertainty r = 0.000011, k = 2.209894
         7         9     1        0.139555   350638.735889    ;  uncertainty r = 0.000066, k = 3.616687
         7        11     1        0.139582   325098.485449    ;  uncertainty r = 0.000066, k = 8.287655
         7        13     1        0.148440   297628.319043    ;  uncertainty r = 0.000110, k = 8.834611
         8        11     1        0.139372   358825.064893    ;  uncertainty r = 0.000070, k = 5.253291
         8        12     1        0.139047   363992.422363    ;  uncertainty r = 0.000043, k = 1.798210
         8        27     1        0.108639   335863.500684    ;  uncertainty r = 0.000024, k = 1.681150
         9        10     1        0.139396   350257.262549    ;  uncertainty r = 0.000042, k = 3.783835
         9        28     1        0.108657   337664.581934    ;  uncertainty r = 0.000055, k = 2.064159
        10        12     1        0.140093   348142.049316    ;  uncertainty r = 0.000031, k = 2.825288
        10        18     1        0.136027   316431.548047    ;  uncertainty r = 0.000024, k = 4.257478
        11        19     1        0.175205   190382.048853    ;  uncertainty r = 0.000072, k = 2.957322
        12        20     1        0.174750   191921.936548    ;  uncertainty r = 0.000074, k = 4.809387
        13        17     1        0.134256   389309.682764    ;  uncertainty r = 0.000222, k = 4.515163
        15        17     1        0.135430   457087.188477    ;  uncertainty r = 0.000116, k = 15.112800
        16        18     1        0.142571   249932.915234    ;  uncertainty r = 0.000015, k = 3.432874
        16        29     1        0.109538   311091.125586    ;  uncertainty r = 0.000018, k = 1.051825
        16        30     1        0.109538   311091.125586    ;  uncertainty r = 0.000018, k = 1.051825
        16        31     1        0.109538   311091.151123    ;  uncertainty r = 0.000018, k = 1.051824

[ angles ]
;       ai        aj        ak funct           theta             cth
         1        14         2     1      127.522667      484.759775    ;  uncertainty theta = 0.001874, k = 0.116992
         1        14         3     1      125.703720      544.310590    ;  uncertainty theta = 0.002134, k = 0.176933
         1        15         6     1      118.674622      464.846480    ;  uncertainty theta = 0.001820, k = 0.182767
         1        15        17     1      125.889610      810.262027    ;  uncertainty theta = 0.002771, k = 0.149588
         2         5         4     1      109.785378      748.708592    ;  uncertainty theta = 0.002595, k = 0.225945
         2         5        23     1      118.320702      284.825340    ;  uncertainty theta = 0.001185, k = 0.050040
         2        14         3     1      108.687828      625.963518    ;  uncertainty theta = 0.002787, k = 0.125644
         3         4         5     1      109.019165      704.304922    ;  uncertainty theta = 0.004269, k = 0.126988
         3         4        21     1      124.770828      346.333735    ;  uncertainty theta = 0.007238, k = 0.430237
         3        13         7     1      121.635803      355.678497    ;  uncertainty theta = 0.005169, k = 0.248345
         3        13        17     1      121.742508      624.108247    ;  uncertainty theta = 0.004488, k = 0.177068
         4         3        13     1      131.440399      332.864218    ;  uncertainty theta = 0.004794, k = 0.233676
         4         3        14     1      106.527809      687.966981    ;  uncertainty theta = 0.004612, k = 0.051088
         4         5        23     1      127.885056      234.229432    ;  uncertainty theta = 0.001649, k = 0.169560
         5         2        14     1      104.679199      871.889010    ;  uncertainty theta = 0.003930, k = 0.069795
         5         2        22     1      115.553856      280.823803    ;  uncertainty theta = 0.006184, k = 0.081857
         5         4        21     1      124.488281      374.096978    ;  uncertainty theta = 0.005808, k = 0.199348
         6        15        17     1      118.564919      476.427303    ;  uncertainty theta = 0.001702, k = 0.281970
         7         9        10     1      123.824120      497.203880    ;  uncertainty theta = 0.003213, k = 0.097912
         7         9        28     1      118.305275      268.617863    ;  uncertainty theta = 0.003779, k = 0.040408
         7        11         8     1      123.517929      369.395468    ;  uncertainty theta = 0.003378, k = 0.167111
         7        11        19     1      118.138870      414.344005    ;  uncertainty theta = 0.001244, k = 0.073818
         7        13        17     1      119.093994      460.542806    ;  uncertainty theta = 0.003547, k = 0.163609
         8        11        19     1      119.085228      446.648703    ;  uncertainty theta = 0.002071, k = 0.106371
         8        12        10     1      121.501175      353.154250    ;  uncertainty theta = 0.002433, k = 0.195299
         8        12        20     1      120.459961      452.128999    ;  uncertainty theta = 0.001274, k = 0.141642
         9         7        11     1      120.919846      421.263700    ;  uncertainty theta = 0.003538, k = 0.168674
         9         7        13     1      119.086105      380.322510    ;  uncertainty theta = 0.004835, k = 0.063107
         9        10        12     1      120.902573      365.213958    ;  uncertainty theta = 0.003018, k = 0.170113
         9        10        18     1      120.189964      431.211042    ;  uncertainty theta = 0.003028, k = 0.111724
        10         9        28     1      117.825462      268.979915    ;  uncertainty theta = 0.002672, k = 0.093872
        10        12        20     1      118.634056      418.836365    ;  uncertainty theta = 0.000762, k = 0.093560
        10        18        16     1      110.262283      495.977078    ;  uncertainty theta = 0.001418, k = 0.043039
        11         7        13     1      120.540138      380.990305    ;  uncertainty theta = 0.003823, k = 0.193033
        11         8        12     1      120.770584      483.562180    ;  uncertainty theta = 0.001505, k = 0.051061
        11         8        27     1      121.148056      281.654078    ;  uncertainty theta = 0.001355, k = 0.059808
        12         8        27     1      120.726456      279.438096    ;  uncertainty theta = 0.002115, k = 0.024758
        12        10        18     1      118.643044      401.650338    ;  uncertainty theta = 0.004738, k = 0.175701
        13         3        14     1      116.867653      362.005891    ;  uncertainty theta = 0.005113, k = 0.610264
        13        17        15     1      120.233498      408.158949    ;  uncertainty theta = 0.006041, k = 0.213339
        14         1        15     1      110.390907      445.954222    ;  uncertainty theta = 0.005125, k = 0.108936
        14         2        22     1      118.707825      324.421395    ;  uncertainty theta = 0.002967, k = 0.085203
        15         6        24     1      108.763405      392.028274    ;  uncertainty theta = 0.001366, k = 0.025646
        15         6        25     1      108.763405      392.028274    ;  uncertainty theta = 0.001366, k = 0.025646
        15         6        26     1      108.763405      392.028274    ;  uncertainty theta = 0.001366, k = 0.025646
        18        16        29     1      108.817017      444.786378    ;  uncertainty theta = 0.001502, k = 0.019460
        18        16        30     1      108.817017      444.786378    ;  uncertainty theta = 0.001502, k = 0.019460
        18        16        31     1      108.817017      444.786378    ;  uncertainty theta = 0.001502, k = 0.019460
        24         6        25     1      107.320633      312.556885    ;  uncertainty theta = 0.001808, k = 0.035510
        24         6        26     1      107.320633      312.556885    ;  uncertainty theta = 0.001808, k = 0.035510
        25         6        26     1      107.320633      312.556885    ;  uncertainty theta = 0.001808, k = 0.035510
        29        16        30     1      109.133141      330.810013    ;  uncertainty theta = 0.001542, k = 0.011144
        29        16        31     1      109.133141      330.809949    ;  uncertainty theta = 0.001542, k = 0.011144
        30        16        31     1      109.133141      330.809949    ;  uncertainty theta = 0.001542, k = 0.011144

[ dihedrals ] ; propers for gromacs 4.5 or higher, use funct 9
;       ai        aj        ak        al funct           phase               k        pn
         1        14         2         5     9        0.000000        0.248788         1    ;  uncertainty k = 1.214885
         1        14         2         5     9      180.000000        9.099919         2    ;  uncertainty k = 0.551630
         1        14         2         5     9        0.000000        0.059192         3    ;  uncertainty k = 0.856663
         1        14         2         5     9      180.000000        0.356990         4    ;  uncertainty k = 0.361449
         1        14         2        22     9        0.000000        4.540021         1    ;  uncertainty k = 1.278793
         1        14         2        22     9      180.000000        4.454299         2    ;  uncertainty k = 0.856921
         1        14         2        22     9        0.000000        1.555608         3    ;  uncertainty k = 0.537279
         1        14         2        22     9      180.000000        0.112545         4    ;  uncertainty k = 0.099749
         1        14         3         4     9        0.000000       -0.120497         1    ;  uncertainty k = 0.569412
         1        14         3         4     9      180.000000        9.034932         2    ;  uncertainty k = 0.533824
         1        14         3         4     9        0.000000       -0.852798         3    ;  uncertainty k = 0.543849
         1        14         3         4     9      180.000000        1.380692         4    ;  uncertainty k = 0.315116
         1        14         3        13     9        0.000000       -0.575493         1    ;  uncertainty k = 0.544549
         1        14         3        13     9      180.000000        8.181183         2    ;  uncertainty k = 0.336308
         1        14         3        13     9        0.000000       -0.270178         3    ;  uncertainty k = 0.271060
         1        14         3        13     9      180.000000        1.203455         4    ;  uncertainty k = 0.177669
         1        15         6        24     9        0.000000        0.432907         1    ;  uncertainty k = 0.401537
         1        15         6        24     9      180.000000        3.589745         2    ;  uncertainty k = 0.070118
         1        15         6        24     9        0.000000        0.450998         3    ;  uncertainty k = 0.078966
         1        15         6        24     9      180.000000        0.228036         4    ;  uncertainty k = 0.023821
         1        15         6        25     9        0.000000        0.432907         1    ;  uncertainty k = 0.401537
         1        15         6        25     9      180.000000        3.589745         2    ;  uncertainty k = 0.070118
         1        15         6        25     9        0.000000        0.450998         3    ;  uncertainty k = 0.078966
         1        15         6        25     9      180.000000        0.228036         4    ;  uncertainty k = 0.023821
         1        15         6        26     9        0.000000        0.432907         1    ;  uncertainty k = 0.401537
         1        15         6        26     9      180.000000        3.589745         2    ;  uncertainty k = 0.070118
         1        15         6        26     9        0.000000        0.450998         3    ;  uncertainty k = 0.078966
         1        15         6        26     9      180.000000        0.228036         4    ;  uncertainty k = 0.023821
         1        15        17        13     9        0.000000       -1.105769         1    ;  uncertainty k = 0.734274
         1        15        17        13     9      180.000000       11.717199         2    ;  uncertainty k = 0.242567
         1        15        17        13     9        0.000000        1.008708         3    ;  uncertainty k = 0.561129
         1        15        17        13     9      180.000000        1.063210         4    ;  uncertainty k = 0.116468
         2         5         4         3     9        0.000000        0.001454         1    ;  uncertainty k = 0.419501
         2         5         4         3     9      180.000000       21.842277         2    ;  uncertainty k = 0.332073
         2         5         4         3     9        0.000000       -4.862310         3    ;  uncertainty k = 0.620082
         2         5         4         3     9      180.000000        1.132546         4    ;  uncertainty k = 0.418146
         2         5         4        21     9        0.000000        0.459792         1    ;  uncertainty k = 0.904231
         2         5         4        21     9      180.000000       18.440933         2    ;  uncertainty k = 0.567449
         2         5         4        21     9        0.000000        2.081157         3    ;  uncertainty k = 0.563176
         2         5         4        21     9      180.000000        0.840040         4    ;  uncertainty k = 0.380806
         2        14         1        15     9        0.000000       -0.426704         1    ;  uncertainty k = 0.825954
         2        14         1        15     9      180.000000       17.253214         2    ;  uncertainty k = 0.376043
         2        14         1        15     9        0.000000        1.335168         3    ;  uncertainty k = 0.458686
         2        14         1        15     9      180.000000        1.248643         4    ;  uncertainty k = 0.392705
         2        14         3         4     9        0.000000       -0.264890         1    ;  uncertainty k = 0.362209
         2        14         3         4     9      180.000000       10.979576         2    ;  uncertainty k = 0.824056
         2        14         3         4     9        0.000000       -3.416789         3    ;  uncertainty k = 0.906108
         2        14         3         4     9      180.000000        1.572047         4    ;  uncertainty k = 0.615202
         2        14         3        13     9        0.000000       -0.243151         1    ;  uncertainty k = 0.754467
         2        14         3        13     9      180.000000        6.944190         2    ;  uncertainty k = 0.616923
         2        14         3        13     9        0.000000       -0.557031         3    ;  uncertainty k = 0.685128
         2        14         3        13     9      180.000000        1.073212         4    ;  uncertainty k = 0.379190
         3         4         5        23     9        0.000000       -0.082155         1    ;  uncertainty k = 0.605431
         3         4         5        23     9      180.000000       10.586687         2    ;  uncertainty k = 0.261197
         3         4         5        23     9        0.000000        2.065543         3    ;  uncertainty k = 0.473671
         3         4         5        23     9      180.000000        0.718752         4    ;  uncertainty k = 0.215820
         3        13         7         9     9        0.000000       -0.137350         1    ;  uncertainty k = 0.755646
         3        13         7         9     9      180.000000        4.487912         2    ;  uncertainty k = 0.523348
         3        13         7         9     9        0.000000        0.423547         3    ;  uncertainty k = 0.275828
         3        13         7         9     9      180.000000        0.420238         4    ;  uncertainty k = 0.157862
         3        13         7        11     9        0.000000       -0.728507         1    ;  uncertainty k = 1.601222
         3        13         7        11     9      180.000000        3.623329         2    ;  uncertainty k = 0.665094
         3        13         7        11     9        0.000000        0.702058         3    ;  uncertainty k = 0.458479
         3        13         7        11     9      180.000000        0.240598         4    ;  uncertainty k = 0.203712
         3        13        17        15     9        0.000000       -0.107967         1    ;  uncertainty k = 0.799983
         3        13        17        15     9      180.000000       15.599538         2    ;  uncertainty k = 0.440369
         3        13        17        15     9        0.000000        0.666874         3    ;  uncertainty k = 0.809493
         3        13        17        15     9      180.000000        1.596519         4    ;  uncertainty k = 0.511737
         3        14         1        15     9        0.000000       -0.181246         1    ;  uncertainty k = 0.761179
         3        14         1        15     9      180.000000       12.668354         2    ;  uncertainty k = 0.553256
         3        14         1        15     9        0.000000       -0.288966         3    ;  uncertainty k = 0.274449
         3        14         1        15     9      180.000000        0.945521         4    ;  uncertainty k = 0.231612
         3        14         2         5     9        0.000000        0.337123         1    ;  uncertainty k = 0.731900
         3        14         2         5     9      180.000000       14.896277         2    ;  uncertainty k = 0.859400
         3        14         2         5     9        0.000000       -7.686603         3    ;  uncertainty k = 1.969587
         3        14         2         5     9      180.000000        0.707566         4    ;  uncertainty k = 0.357409
         3        14         2        22     9        0.000000        4.184295         1    ;  uncertainty k = 2.399295
         3        14         2        22     9      180.000000        6.832228         2    ;  uncertainty k = 0.859675
         3        14         2        22     9        0.000000        1.278315         3    ;  uncertainty k = 0.202809
         3        14         2        22     9      180.000000        0.106055         4    ;  uncertainty k = 0.253609
         4         3        13         7     9        0.000000        0.169022         1    ;  uncertainty k = 1.355286
         4         3        13         7     9      180.000000        4.781222         2    ;  uncertainty k = 0.576580
         4         3        13         7     9        0.000000        1.067785         3    ;  uncertainty k = 0.281252
         4         3        13         7     9      180.000000        0.667718         4    ;  uncertainty k = 0.150885
         4         3        13        17     9        0.000000       -0.202982         1    ;  uncertainty k = 0.540613
         4         3        13        17     9      180.000000        7.410247         2    ;  uncertainty k = 0.879436
         4         3        13        17     9        0.000000        0.316478         3    ;  uncertainty k = 0.338524
         4         3        13        17     9      180.000000        0.964971         4    ;  uncertainty k = 0.479431
         4         5         2        14     9        0.000000       -0.593055         1    ;  uncertainty k = 0.549841
         4         5         2        14     9      180.000000       13.966103         2    ;  uncertainty k = 0.453508
         4         5         2        14     9        0.000000       -7.192806         3    ;  uncertainty k = 1.079540
         4         5         2        14     9      180.000000        1.189571         4    ;  uncertainty k = 0.292251
         4         5         2        22     9        0.000000        3.268433         1    ;  uncertainty k = 1.557589
         4         5         2        22     9      180.000000        8.397465         2    ;  uncertainty k = 0.495728
         4         5         2        22     9        0.000000        1.658361         3    ;  uncertainty k = 0.693905
         4         5         2        22     9      180.000000       -0.173450         4    ;  uncertainty k = 0.184471
         5         4         3        13     9        0.000000        0.933242         1    ;  uncertainty k = 1.021998
         5         4         3        13     9      180.000000        4.444295         2    ;  uncertainty k = 0.919704
         5         4         3        13     9        0.000000        0.629806         3    ;  uncertainty k = 0.356302
         5         4         3        13     9      180.000000        0.606838         4    ;  uncertainty k = 0.340241
         5         4         3        14     9        0.000000        0.199742         1    ;  uncertainty k = 0.839417
         5         4         3        14     9      180.000000       10.685362         2    ;  uncertainty k = 0.933807
         5         4         3        14     9        0.000000      -10.643270         3    ;  uncertainty k = 2.387306
         5         4         3        14     9      180.000000        1.773939         4    ;  uncertainty k = 0.617433
         6        15         1        14     9        0.000000        0.599112         1    ;  uncertainty k = 1.073047
         6        15         1        14     9      180.000000       14.856604         2    ;  uncertainty k = 0.454846
         6        15         1        14     9        0.000000        2.516904         3    ;  uncertainty k = 0.250994
         6        15         1        14     9      180.000000        1.365684         4    ;  uncertainty k = 0.344852
         6        15        17        13     9        0.000000        0.190047         1    ;  uncertainty k = 0.622980
         6        15        17        13     9      180.000000       10.131782         2    ;  uncertainty k = 0.265374
         6        15        17        13     9        0.000000        1.786899         3    ;  uncertainty k = 0.563752
         6        15        17        13     9      180.000000        1.238798         4    ;  uncertainty k = 0.331049
         7         9        10        12     9        0.000000        0.065198         1    ;  uncertainty k = 0.346044
         7         9        10        12     9      180.000000        7.291470         2    ;  uncertainty k = 0.784115
         7         9        10        12     9        0.000000        0.561294         3    ;  uncertainty k = 0.233570
         7         9        10        12     9      180.000000        1.531863         4    ;  uncertainty k = 0.330810
         7         9        10        18     9        0.000000        0.025076         1    ;  uncertainty k = 0.206117
         7         9        10        18     9      180.000000       10.747622         2    ;  uncertainty k = 0.201940
         7         9        10        18     9        0.000000        1.135231         3    ;  uncertainty k = 0.209219
         7         9        10        18     9      180.000000        1.686382         4    ;  uncertainty k = 0.144653
         7        11         8        12     9        0.000000       -0.010188         1    ;  uncertainty k = 0.304789
         7        11         8        12     9      180.000000        8.900271         2    ;  uncertainty k = 0.449686
         7        11         8        12     9        0.000000        0.153592         3    ;  uncertainty k = 0.354397
         7        11         8        12     9      180.000000        1.309339         4    ;  uncertainty k = 0.330617
         7        11         8        27     9        0.000000        0.019628         1    ;  uncertainty k = 0.187667
         7        11         8        27     9      180.000000        5.846183         2    ;  uncertainty k = 0.702231
         7        11         8        27     9        0.000000        1.334838         3    ;  uncertainty k = 0.324109
         7        11         8        27     9      180.000000        1.621210         4    ;  uncertainty k = 0.233739
         7        13         3        14     9        0.000000        0.146488         1    ;  uncertainty k = 0.802780
         7        13         3        14     9      180.000000        7.415788         2    ;  uncertainty k = 0.719368
         7        13         3        14     9        0.000000        0.675699         3    ;  uncertainty k = 0.311411
         7        13         3        14     9      180.000000        0.825394         4    ;  uncertainty k = 0.381682
         7        13        17        15     9        0.000000       -0.533878         1    ;  uncertainty k = 0.666922
         7        13        17        15     9      180.000000       16.342697         2    ;  uncertainty k = 0.738858
         7        13        17        15     9        0.000000        2.206137         3    ;  uncertainty k = 0.634353
         7        13        17        15     9      180.000000        1.758165         4    ;  uncertainty k = 0.442876
         8        11         7         9     9        0.000000       -0.222555         1    ;  uncertainty k = 0.458531
         8        11         7         9     9      180.000000        7.832678         2    ;  uncertainty k = 0.753452
         8        11         7         9     9        0.000000       -0.007415         3    ;  uncertainty k = 0.353453
         8        11         7         9     9      180.000000        1.216409         4    ;  uncertainty k = 0.308455
         8        11         7        13     9        0.000000       -0.017976         1    ;  uncertainty k = 0.498484
         8        11         7        13     9      180.000000        6.519031         2    ;  uncertainty k = 0.586728
         8        11         7        13     9        0.000000        1.367623         3    ;  uncertainty k = 0.317293
         8        11         7        13     9      180.000000        1.772941         4    ;  uncertainty k = 0.171745
         8        12        10         9     9        0.000000       -0.160112         1    ;  uncertainty k = 0.365456
         8        12        10         9     9      180.000000        5.802140         2    ;  uncertainty k = 0.973452
         8        12        10         9     9        0.000000        0.439924         3    ;  uncertainty k = 0.180992
         8        12        10         9     9      180.000000        1.284193         4    ;  uncertainty k = 0.381519
         8        12        10        18     9        0.000000        0.168677         1    ;  uncertainty k = 0.147161
         8        12        10        18     9      180.000000        7.998622         2    ;  uncertainty k = 0.496512
         8        12        10        18     9        0.000000        1.217222         3    ;  uncertainty k = 0.240785
         8        12        10        18     9      180.000000        1.684817         4    ;  uncertainty k = 0.129999
         9         7        11        19     9        0.000000       -0.033887         1    ;  uncertainty k = 0.261635
         9         7        11        19     9      180.000000        7.927518         2    ;  uncertainty k = 0.298150
         9         7        11        19     9        0.000000        1.346965         3    ;  uncertainty k = 0.357294
         9         7        11        19     9      180.000000        1.530426         4    ;  uncertainty k = 0.130700
         9         7        13        17     9        0.000000        1.717012         1    ;  uncertainty k = 1.407230
         9         7        13        17     9      180.000000        6.261205         2    ;  uncertainty k = 0.213376
         9         7        13        17     9        0.000000        0.466022         3    ;  uncertainty k = 0.202430
         9         7        13        17     9      180.000000        0.451379         4    ;  uncertainty k = 0.149898
         9        10        12        20     9        0.000000        0.246617         1    ;  uncertainty k = 0.379115
         9        10        12        20     9      180.000000        6.909539         2    ;  uncertainty k = 0.691172
         9        10        12        20     9        0.000000        1.419799         3    ;  uncertainty k = 0.301860
         9        10        12        20     9      180.000000        1.464056         4    ;  uncertainty k = 0.209372
         9        10        18        16     9        0.000000       -0.042244         1    ;  uncertainty k = 0.307327
         9        10        18        16     9      180.000000        6.518517         2    ;  uncertainty k = 0.219686
         9        10        18        16     9        0.000000       -0.371907         3    ;  uncertainty k = 0.148397
         9        10        18        16     9      180.000000        0.073097         4    ;  uncertainty k = 0.099372
        10         9         7        11     9        0.000000        0.058421         1    ;  uncertainty k = 0.193442
        10         9         7        11     9      180.000000       10.065540         2    ;  uncertainty k = 0.527410
        10         9         7        11     9        0.000000        0.092139         3    ;  uncertainty k = 0.184137
        10         9         7        11     9      180.000000        1.274336         4    ;  uncertainty k = 0.327745
        10         9         7        13     9        0.000000        0.112231         1    ;  uncertainty k = 0.182100
        10         9         7        13     9      180.000000        8.329787         2    ;  uncertainty k = 0.538185
        10         9         7        13     9        0.000000        1.461205         3    ;  uncertainty k = 0.354787
        10         9         7        13     9      180.000000        1.907940         4    ;  uncertainty k = 0.210981
        10        12         8        11     9        0.000000       -0.051246         1    ;  uncertainty k = 0.265356
        10        12         8        11     9      180.000000        8.906679         2    ;  uncertainty k = 0.444345
        10        12         8        11     9        0.000000        0.373666         3    ;  uncertainty k = 0.412984
        10        12         8        11     9      180.000000        1.383742         4    ;  uncertainty k = 0.241518
        10        12         8        27     9        0.000000        0.026970         1    ;  uncertainty k = 0.201681
        10        12         8        27     9      180.000000        6.665757         2    ;  uncertainty k = 0.606409
        10        12         8        27     9        0.000000        1.325554         3    ;  uncertainty k = 0.393768
        10        12         8        27     9      180.000000        1.580156         4    ;  uncertainty k = 0.149897
        10        18        16        29     9        0.000000        1.124364         1    ;  uncertainty k = 0.199625
        10        18        16        29     9      180.000000       -2.017544         2    ;  uncertainty k = 0.263863
        10        18        16        29     9        0.000000        1.022273         3    ;  uncertainty k = 0.022119
        10        18        16        29     9      180.000000        0.258390         4    ;  uncertainty k = 0.036975
        10        18        16        30     9        0.000000        1.124364         1    ;  uncertainty k = 0.199625
        10        18        16        30     9      180.000000       -2.017544         2    ;  uncertainty k = 0.263863
        10        18        16        30     9        0.000000        1.022273         3    ;  uncertainty k = 0.022119
        10        18        16        30     9      180.000000        0.258390         4    ;  uncertainty k = 0.036975
        10        18        16        31     9        0.000000        1.124364         1    ;  uncertainty k = 0.199625
        10        18        16        31     9      180.000000       -2.017544         2    ;  uncertainty k = 0.263863
        10        18        16        31     9        0.000000        1.022273         3    ;  uncertainty k = 0.022119
        10        18        16        31     9      180.000000        0.258390         4    ;  uncertainty k = 0.036975
        11         7         9        28     9        0.000000        0.204584         1    ;  uncertainty k = 0.196353
        11         7         9        28     9      180.000000        7.427554         2    ;  uncertainty k = 0.204942
        11         7         9        28     9        0.000000        1.321450         3    ;  uncertainty k = 0.357789
        11         7         9        28     9      180.000000        1.637680         4    ;  uncertainty k = 0.098107
        11         7        13        17     9        0.000000        1.141000         1    ;  uncertainty k = 0.643830
        11         7        13        17     9      180.000000        5.365552         2    ;  uncertainty k = 0.194398
        11         7        13        17     9        0.000000        0.997505         3    ;  uncertainty k = 0.258999
        11         7        13        17     9      180.000000        0.381855         4    ;  uncertainty k = 0.126929
        11         8        12        20     9        0.000000       -0.011355         1    ;  uncertainty k = 0.190662
        11         8        12        20     9      180.000000        9.747868         2    ;  uncertainty k = 0.618011
        11         8        12        20     9        0.000000        1.512293         3    ;  uncertainty k = 0.404646
        11         8        12        20     9      180.000000        1.724437         4    ;  uncertainty k = 0.192266
        12         8        11        19     9        0.000000        0.060056         1    ;  uncertainty k = 0.110838
        12         8        11        19     9      180.000000        9.377505         2    ;  uncertainty k = 0.372753
        12         8        11        19     9        0.000000        1.351015         3    ;  uncertainty k = 0.364493
        12         8        11        19     9      180.000000        1.708250         4    ;  uncertainty k = 0.122914
        12        10         9        28     9        0.000000        0.252864         1    ;  uncertainty k = 0.226630
        12        10         9        28     9      180.000000        5.954042         2    ;  uncertainty k = 0.292010
        12        10         9        28     9        0.000000        1.494457         3    ;  uncertainty k = 0.316005
        12        10         9        28     9      180.000000        1.825252         4    ;  uncertainty k = 0.132671
        12        10        18        16     9        0.000000        2.249741         1    ;  uncertainty k = 0.466203
        12        10        18        16     9      180.000000        5.839435         2    ;  uncertainty k = 0.118861
        12        10        18        16     9        0.000000        1.185093         3    ;  uncertainty k = 0.203567
        12        10        18        16     9      180.000000        0.095406         4    ;  uncertainty k = 0.053427
        13         3         4        21     9        0.000000        0.143750         1    ;  uncertainty k = 1.912054
        13         3         4        21     9      180.000000        3.168607         2    ;  uncertainty k = 1.163238
        13         3         4        21     9        0.000000        1.273925         3    ;  uncertainty k = 0.302370
        13         3         4        21     9      180.000000        0.035763         4    ;  uncertainty k = 0.257599
        13         7         9        28     9        0.000000       -0.080602         1    ;  uncertainty k = 0.193205
        13         7         9        28     9      180.000000        8.006086         2    ;  uncertainty k = 0.305800
        13         7         9        28     9        0.000000        0.747371         3    ;  uncertainty k = 0.275575
        13         7         9        28     9      180.000000        1.326053         4    ;  uncertainty k = 0.062503
        13         7        11        19     9        0.000000       -0.266961         1    ;  uncertainty k = 0.561769
        13         7        11        19     9      180.000000        7.854785         2    ;  uncertainty k = 0.394707
        13         7        11        19     9        0.000000        1.246094         3    ;  uncertainty k = 0.215422
        13         7        11        19     9      180.000000        1.450381         4    ;  uncertainty k = 0.181012
        14         1        15        17     9        0.000000       -0.417565         1    ;  uncertainty k = 0.567878
        14         1        15        17     9      180.000000       16.557661         2    ;  uncertainty k = 0.211674
        14         1        15        17     9        0.000000        1.375809         3    ;  uncertainty k = 0.331608
        14         1        15        17     9      180.000000        1.191934         4    ;  uncertainty k = 0.161067
        14         2         5        23     9        0.000000        1.805934         1    ;  uncertainty k = 1.619911
        14         2         5        23     9      180.000000        6.939537         2    ;  uncertainty k = 0.608804
        14         2         5        23     9        0.000000        1.384740         3    ;  uncertainty k = 0.137676
        14         2         5        23     9      180.000000        0.103259         4    ;  uncertainty k = 0.080230
        14         3         4        21     9        0.000000        0.833605         1    ;  uncertainty k = 0.475253
        14         3         4        21     9      180.000000        9.820849         2    ;  uncertainty k = 0.377583
        14         3         4        21     9        0.000000        1.940653         3    ;  uncertainty k = 0.237573
        14         3         4        21     9      180.000000        0.195046         4    ;  uncertainty k = 0.278985
        14         3        13        17     9        0.000000       -0.563606         1    ;  uncertainty k = 0.579913
        14         3        13        17     9      180.000000       11.090226         2    ;  uncertainty k = 0.228626
        14         3        13        17     9        0.000000       -1.260932         3    ;  uncertainty k = 0.414449
        14         3        13        17     9      180.000000        0.868390         4    ;  uncertainty k = 0.163442
        17        15         6        24     9        0.000000        0.285302         1    ;  uncertainty k = 0.218194
        17        15         6        24     9      180.000000        3.671810         2    ;  uncertainty k = 0.138420
        17        15         6        24     9        0.000000        0.534210         3    ;  uncertainty k = 0.051426
        17        15         6        24     9      180.000000        0.248682         4    ;  uncertainty k = 0.041398
        17        15         6        25     9        0.000000        0.285302         1    ;  uncertainty k = 0.218194
        17        15         6        25     9      180.000000        3.671810         2    ;  uncertainty k = 0.138420
        17        15         6        25     9        0.000000        0.534210         3    ;  uncertainty k = 0.051426
        17        15         6        25     9      180.000000        0.248682         4    ;  uncertainty k = 0.041398
        17        15         6        26     9        0.000000        0.285302         1    ;  uncertainty k = 0.218194
        17        15         6        26     9      180.000000        3.671810         2    ;  uncertainty k = 0.138420
        17        15         6        26     9        0.000000        0.534210         3    ;  uncertainty k = 0.051426
        17        15         6        26     9      180.000000        0.248682         4    ;  uncertainty k = 0.041398
        18        10         9        28     9        0.000000        0.005613         1    ;  uncertainty k = 0.270060
        18        10         9        28     9      180.000000        9.115473         2    ;  uncertainty k = 0.424603
        18        10         9        28     9        0.000000        0.801237         3    ;  uncertainty k = 0.159315
        18        10         9        28     9      180.000000        1.345057         4    ;  uncertainty k = 0.285009
        18        10        12        20     9        0.000000       -0.208518         1    ;  uncertainty k = 0.727865
        18        10        12        20     9      180.000000        9.554306         2    ;  uncertainty k = 0.396275
        18        10        12        20     9        0.000000        0.864518         3    ;  uncertainty k = 0.255533
        18        10        12        20     9      180.000000        1.371781         4    ;  uncertainty k = 0.179734
        19        11         8        27     9        0.000000       -0.133254         1    ;  uncertainty k = 0.421231
        19        11         8        27     9      180.000000        7.579307         2    ;  uncertainty k = 0.497753
        19        11         8        27     9        0.000000        0.609942         3    ;  uncertainty k = 0.285419
        19        11         8        27     9      180.000000        1.137636         4    ;  uncertainty k = 0.276633
        20        12         8        27     9        0.000000       -0.204169         1    ;  uncertainty k = 0.240359
        20        12         8        27     9      180.000000        7.600901         2    ;  uncertainty k = 0.534725
        20        12         8        27     9        0.000000        0.578093         3    ;  uncertainty k = 0.285093
        20        12         8        27     9      180.000000        1.053978         4    ;  uncertainty k = 0.242327
        21         4         5        23     9        0.000000        0.161267         1    ;  uncertainty k = 0.946290
        21         4         5        23     9      180.000000        7.769207         2    ;  uncertainty k = 0.394439
        21         4         5        23     9        0.000000        1.513040         3    ;  uncertainty k = 0.330035
        21         4         5        23     9      180.000000        0.666535         4    ;  uncertainty k = 0.171655
        22         2         5        23     9        0.000000       -0.574933         1    ;  uncertainty k = 1.330200
        22         2         5        23     9      180.000000        1.328364         2    ;  uncertainty k = 0.207619
        22         2         5        23     9        0.000000        1.041937         3    ;  uncertainty k = 0.444532
        22         2         5        23     9      180.000000        0.130437         4    ;  uncertainty k = 0.120733

[ dihedrals ] ; impropers
;       ai        aj        ak        al funct           phase               k        pn
         3         4        13        14     4      180.000000        0.118720         2    ;  uncertainty k = 0.265466
         3        13        14         4     4      180.000000        0.118720         2    ;  uncertainty k = 0.265466
         3        14         4        13     4      180.000000        0.118720         2    ;  uncertainty k = 0.265466
         4         3         5        21     4      180.000000        3.604084         2    ;  uncertainty k = 0.737823
         4         5        21         3     4      180.000000        3.604084         2    ;  uncertainty k = 0.737823
         4        21         3         5     4      180.000000        3.604084         2    ;  uncertainty k = 0.737823
         5         2         4        23     4      180.000000        1.813806         2    ;  uncertainty k = 0.643251
         5         4        23         2     4      180.000000        1.813806         2    ;  uncertainty k = 0.643251
         5        23         2         4     4      180.000000        1.813806         2    ;  uncertainty k = 0.643251
         7         9        11        13     4      180.000000       12.019894         2    ;  uncertainty k = 0.172493
         7        11        13         9     4      180.000000       12.019894         2    ;  uncertainty k = 0.172493
         7        13         9        11     4      180.000000       12.019894         2    ;  uncertainty k = 0.172493
         8        11        12        27     4      180.000000        2.942476         2    ;  uncertainty k = 0.290343
         8        12        27        11     4      180.000000        2.942476         2    ;  uncertainty k = 0.290343
         8        27        11        12     4      180.000000        2.942476         2    ;  uncertainty k = 0.290343
         9         7        10        28     4      180.000000        2.806981         2    ;  uncertainty k = 0.189155
         9        10        28         7     4      180.000000        2.806981         2    ;  uncertainty k = 0.189155
         9        28         7        10     4      180.000000        2.806981         2    ;  uncertainty k = 0.189155
        10         9        12        18     4      180.000000       17.975412         2    ;  uncertainty k = 0.072472
        10        12        18         9     4      180.000000       17.975412         2    ;  uncertainty k = 0.072472
        10        18         9        12     4      180.000000       17.975412         2    ;  uncertainty k = 0.072472
        11         7         8        19     4      180.000000       13.608989         2    ;  uncertainty k = 0.075133
        11         8        19         7     4      180.000000       13.608989         2    ;  uncertainty k = 0.075133
        11        19         7         8     4      180.000000       13.608989         2    ;  uncertainty k = 0.075133
        12         8        10        20     4      180.000000       11.859023         2    ;  uncertainty k = 0.093671
        12        10        20         8     4      180.000000       11.859023         2    ;  uncertainty k = 0.093671
        12        20         8        10     4      180.000000       11.859023         2    ;  uncertainty k = 0.093671
        13         3         7        17     4      180.000000       28.615166         2    ;  uncertainty k = 0.074989
        13         7        17         3     4      180.000000       28.615166         2    ;  uncertainty k = 0.074989
        13        17         3         7     4      180.000000       28.615166         2    ;  uncertainty k = 0.074989
        14         1         2         3     4      180.000000       11.516433         2    ;  uncertainty k = 0.173020
        14         2         3         1     4      180.000000       11.516433         2    ;  uncertainty k = 0.173020
        14         3         1         2     4      180.000000       11.516433         2    ;  uncertainty k = 0.173020
        15         1         6        17     4      180.000000       36.433751         2    ;  uncertainty k = 0.032633
        15         6        17         1     4      180.000000       36.433751         2    ;  uncertainty k = 0.032633
        15        17         1         6     4      180.000000       36.433751         2    ;  uncertainty k = 0.032633

[ pairs ]
;       ai        aj funct
         1         4     1
         1         5     1
         1        13     1
         1        22     1
         1        24     1
         1        25     1
         1        26     1
         2        13     1
         2        15     1
         2        21     1
         3         9     1
         3        11     1
         3        15     1
         3        22     1
         3        23     1
         4         7     1
         4        17     1
         4        22     1
         5        13     1
         6        13     1
         6        14     1
         7        12     1
         7        14     1
         7        15     1
         7        18     1
         7        27     1
         8         9     1
         8        13     1
         8        18     1
         9        16     1
         9        17     1
         9        19     1
         9        20     1
        10        11     1
        10        13     1
        10        27     1
        10        29     1
        10        30     1
        10        31     1
        11        17     1
        11        20     1
        11        28     1
        12        16     1
        12        19     1
        12        28     1
        13        19     1
        13        21     1
        13        28     1
        14        17     1
        14        21     1
        14        23     1
        17        24     1
        17        25     1
        17        26     1
        18        20     1
        18        28     1
        19        27     1
        20        27     1
        21        23     1
        22        23     1
