; ITP file created by ByteFF-joint-25, 2025-07-14 11:38:37.961917

[ atomtypes ]
;name           bonded.type        at.num        mass        charge   ptype           sigma         epsilon
 n0bf                                   7      0.0000       0.00000       A     3.38400e-01     3.93511e-01    ;  uncertainty sigma = 0.000011, epsilon = 0.000464
 c1bf                                   6      0.0000       0.00000       A     3.31527e-01     4.13327e-01    ;  uncertainty sigma = 0.000019, epsilon = 0.001161
 c2bf                                   6      0.0000       0.00000       A     3.31516e-01     4.13399e-01    ;  uncertainty sigma = 0.000004, epsilon = 0.000382
 n3bf                                   7      0.0000       0.00000       A     3.20651e-01     8.53853e-01    ;  uncertainty sigma = 0.000024, epsilon = 0.001175
 c4bf                                   6      0.0000       0.00000       A     3.31480e-01     4.13031e-01    ;  uncertainty sigma = 0.000012, epsilon = 0.001121
 c5bf                                   6      0.0000       0.00000       A     3.31551e-01     4.12483e-01    ;  uncertainty sigma = 0.000014, epsilon = 0.000752
 c6bf                                   6      0.0000       0.00000       A     3.31543e-01     4.13797e-01    ;  uncertainty sigma = 0.000029, epsilon = 0.001058
 c7bf                                   6      0.0000       0.00000       A     3.31512e-01     4.12624e-01    ;  uncertainty sigma = 0.000015, epsilon = 0.001254
 c8bf                                   6      0.0000       0.00000       A     3.47912e-01     6.66877e-01    ;  uncertainty sigma = 0.000074, epsilon = 0.002676
 c9bf                                   6      0.0000       0.00000       A     3.39771e-01     4.51015e-01    ;  uncertainty sigma = 0.000004, epsilon = 0.000513
 c10bf                                  6      0.0000       0.00000       A     3.31518e-01     4.13324e-01    ;  uncertainty sigma = 0.000010, epsilon = 0.000862
 c11bf                                  6      0.0000       0.00000       A     3.31505e-01     4.13231e-01    ;  uncertainty sigma = 0.000015, epsilon = 0.000497
 c12bf                                  6      0.0000       0.00000       A     3.31525e-01     4.13420e-01    ;  uncertainty sigma = 0.000006, epsilon = 0.000415
 c13bf                                  6      0.0000       0.00000       A     3.31541e-01     4.13380e-01    ;  uncertainty sigma = 0.000008, epsilon = 0.000747
 c14bf                                  6      0.0000       0.00000       A     3.31529e-01     4.13443e-01    ;  uncertainty sigma = 0.000006, epsilon = 0.000844
 c15bf                                  6      0.0000       0.00000       A     3.31518e-01     4.13613e-01    ;  uncertainty sigma = 0.000012, epsilon = 0.000598
 n16bf                                  7      0.0000       0.00000       A     3.27338e-01     4.59259e-01    ;  uncertainty sigma = 0.000027, epsilon = 0.001316
 o17bf                                  8      0.0000       0.00000       A     3.15642e-01     3.03426e-01    ;  uncertainty sigma = 0.000016, epsilon = 0.000856
 cl18bf                                17      0.0000       0.00000       A     3.46592e-01     1.10386e+00    ;  uncertainty sigma = 0.000019, epsilon = 0.001119
 cl19bf                                17      0.0000       0.00000       A     3.46623e-01     1.10451e+00    ;  uncertainty sigma = 0.000020, epsilon = 0.000454
 n20bf                                  7      0.0000       0.00000       A     3.38402e-01     3.93101e-01    ;  uncertainty sigma = 0.000012, epsilon = 0.000505
 c21bf                                  6      0.0000       0.00000       A     3.39780e-01     4.50883e-01    ;  uncertainty sigma = 0.000003, epsilon = 0.000560
 h22bf                                  1      0.0000       0.00000       A     1.10666e-01     4.12579e-02    ;  uncertainty sigma = 0.000061, epsilon = 0.001051
 h23bf                                  1      0.0000       0.00000       A     2.53606e-01     6.69800e-02    ;  uncertainty sigma = 0.000020, epsilon = 0.001357
 h24bf                                  1      0.0000       0.00000       A     2.60030e-01     8.67232e-02    ;  uncertainty sigma = 0.000008, epsilon = 0.000464
 h25bf                                  1      0.0000       0.00000       A     2.60030e-01     8.67232e-02    ;  uncertainty sigma = 0.000008, epsilon = 0.000464
 h26bf                                  1      0.0000       0.00000       A     2.60030e-01     8.67232e-02    ;  uncertainty sigma = 0.000008, epsilon = 0.000464
 h27bf                                  1      0.0000       0.00000       A     2.62570e-01     6.72217e-02    ;  uncertainty sigma = 0.000012, epsilon = 0.000971
 h28bf                                  1      0.0000       0.00000       A     2.62565e-01     6.71866e-02    ;  uncertainty sigma = 0.000016, epsilon = 0.000591
 h29bf                                  1      0.0000       0.00000       A     2.42205e-01     8.67536e-02    ;  uncertainty sigma = 0.000015, epsilon = 0.000624
 h30bf                                  1      0.0000       0.00000       A     2.42205e-01     8.67536e-02    ;  uncertainty sigma = 0.000015, epsilon = 0.000624
 h31bf                                  1      0.0000       0.00000       A     2.42205e-01     8.67536e-02    ;  uncertainty sigma = 0.000015, epsilon = 0.000624

[ moleculetype ]
;name             nrexcl
 MOL                   3

[ atoms ]
;       nr            type      resi   res      atom      cgnr      charge          mass ; qtot
         1            n0bf         1   UNL        n0         1    -0.71062       14.0070 ; qtot   -0.711
         2            c1bf         1   UNL        c1         2     0.46101       12.0110 ; qtot   -0.250
         3            c2bf         1   UNL        c2         3     0.67575       12.0110 ; qtot    0.426
         4            n3bf         1   UNL        n3         4    -0.27964       14.0070 ; qtot    0.146
         5            c4bf         1   UNL        c4         5    -0.04461       12.0110 ; qtot    0.102
         6            c5bf         1   UNL        c5         6    -0.28096       12.0110 ; qtot   -0.179
         7            c6bf         1   UNL        c6         7    -0.02192       12.0110 ; qtot   -0.201
         8            c7bf         1   UNL        c7         8     0.57314       12.0110 ; qtot    0.372
         9            c8bf         1   UNL        c8         9     0.23272       12.0110 ; qtot    0.605
        10            c9bf         1   UNL        c9        10    -0.13140       12.0110 ; qtot    0.473
        11           c10bf         1   UNL       c10        11    -0.11134       12.0110 ; qtot    0.362
        12           c11bf         1   UNL       c11        12    -0.15374       12.0110 ; qtot    0.208
        13           c12bf         1   UNL       c12        13     0.04809       12.0110 ; qtot    0.256
        14           c13bf         1   UNL       c13        14    -0.09258       12.0110 ; qtot    0.164
        15           c14bf         1   UNL       c14        15     0.00923       12.0110 ; qtot    0.173
        16           c15bf         1   UNL       c15        16     0.13648       12.0110 ; qtot    0.310
        17           n16bf         1   UNL       n16        17    -0.36698       14.0070 ; qtot   -0.057
        18           o17bf         1   UNL       o17        18    -0.31291       15.9990 ; qtot   -0.370
        19          cl18bf         1   UNL      cl18        19    -0.09673       35.4530 ; qtot   -0.467
        20          cl19bf         1   UNL      cl19        20    -0.09143       35.4530 ; qtot   -0.558
        21           n20bf         1   UNL       n20        21    -0.72491       14.0070 ; qtot   -1.283
        22           c21bf         1   UNL       c21        22     0.11900       12.0110 ; qtot   -1.164
        23           h22bf         1   UNL       h22        23     0.32687        1.0080 ; qtot   -0.837
        24           h23bf         1   UNL       h23        24     0.18676        1.0080 ; qtot   -0.651
        25           h24bf         1   UNL       h24        25     0.06163        1.0080 ; qtot   -0.589
        26           h25bf         1   UNL       h25        26     0.06163        1.0080 ; qtot   -0.527
        27           h26bf         1   UNL       h26        27     0.06163        1.0080 ; qtot   -0.466
        28           h27bf         1   UNL       h27        28     0.15838        1.0080 ; qtot   -0.307
        29           h28bf         1   UNL       h28        29     0.16962        1.0080 ; qtot   -0.138
        30           h29bf         1   UNL       h29        30     0.04594        1.0080 ; qtot   -0.092
        31           h30bf         1   UNL       h30        31     0.04594        1.0080 ; qtot   -0.046
        32           h31bf         1   UNL       h31        32     0.04595        1.0080 ; qtot    0.000

[ bonds ]
;       ai        aj funct               r               k
         1         2     1        0.133384   460980.678320    ;  uncertainty r = 0.000108, k = 4.165537
         1         3     1        0.134114   399520.670410    ;  uncertainty r = 0.000064, k = 9.975072
         2         4     1        0.138300   360772.346094    ;  uncertainty r = 0.000107, k = 10.840347
         2         6     1        0.142071   466870.608301    ;  uncertainty r = 0.000136, k = 11.468945
         3        10     1        0.150613   262921.523193    ;  uncertainty r = 0.000031, k = 4.130400
         3        21     1        0.135357   451770.770898    ;  uncertainty r = 0.000103, k = 11.742611
         4         5     1        0.137402   317664.607373    ;  uncertainty r = 0.000119, k = 17.616363
         4        23     1        0.101532   420774.414893    ;  uncertainty r = 0.000063, k = 1.296337
         5         7     1        0.138703   422442.473340    ;  uncertainty r = 0.000077, k = 9.293298
         5        24     1        0.108077   339802.676416    ;  uncertainty r = 0.000061, k = 1.263308
         6         7     1        0.144888   249606.193457    ;  uncertainty r = 0.000093, k = 10.218682
         6         8     1        0.140940   366568.095215    ;  uncertainty r = 0.000112, k = 4.273112
         7         9     1        0.142045   322711.761670    ;  uncertainty r = 0.000089, k = 8.645086
         8        11     1        0.148297   297401.626123    ;  uncertainty r = 0.000095, k = 9.593200
         8        21     1        0.134136   389672.233105    ;  uncertainty r = 0.000176, k = 5.537759
         9        17     1        0.116753  1126970.921289    ;  uncertainty r = 0.000034, k = 0.911245
        10        25     1        0.109388   311699.266309    ;  uncertainty r = 0.000011, k = 2.209894
        10        26     1        0.109388   311699.266309    ;  uncertainty r = 0.000011, k = 2.209894
        10        27     1        0.109388   311699.266309    ;  uncertainty r = 0.000011, k = 2.209894
        11        12     1        0.139601   351135.943408    ;  uncertainty r = 0.000068, k = 4.369380
        11        13     1        0.139599   325159.646826    ;  uncertainty r = 0.000049, k = 7.737226
        12        16     1        0.139396   350257.237012    ;  uncertainty r = 0.000042, k = 3.783847
        12        28     1        0.108657   337664.581934    ;  uncertainty r = 0.000055, k = 2.064155
        13        14     1        0.139372   358825.064893    ;  uncertainty r = 0.000070, k = 5.253299
        13        19     1        0.175205   190382.074390    ;  uncertainty r = 0.000072, k = 2.957321
        14        15     1        0.139047   363992.422363    ;  uncertainty r = 0.000043, k = 1.798207
        14        29     1        0.108639   335863.500684    ;  uncertainty r = 0.000024, k = 1.681165
        15        16     1        0.140093   348142.049316    ;  uncertainty r = 0.000031, k = 2.825287
        15        20     1        0.174750   191921.936548    ;  uncertainty r = 0.000074, k = 4.809393
        16        18     1        0.136027   316431.573584    ;  uncertainty r = 0.000024, k = 4.257506
        18        22     1        0.142571   249932.940771    ;  uncertainty r = 0.000015, k = 3.432909
        22        30     1        0.109538   311091.125586    ;  uncertainty r = 0.000018, k = 1.051825
        22        31     1        0.109538   311091.151123    ;  uncertainty r = 0.000018, k = 1.051824
        22        32     1        0.109538   311091.125586    ;  uncertainty r = 0.000018, k = 1.051841

[ angles ]
;       ai        aj        ak funct           theta             cth
         1         2         4     1      127.535683      484.633909    ;  uncertainty theta = 0.002033, k = 0.129970
         1         2         6     1      125.667862      554.035121    ;  uncertainty theta = 0.003008, k = 0.230155
         1         3        10     1      118.690575      467.858741    ;  uncertainty theta = 0.002156, k = 0.175054
         1         3        21     1      125.849731      809.669056    ;  uncertainty theta = 0.002470, k = 0.143419
         2         1         3     1      110.286926      444.456119    ;  uncertainty theta = 0.005429, k = 0.088634
         2         4         5     1      104.667725      873.427493    ;  uncertainty theta = 0.003288, k = 0.073947
         2         4        23     1      118.876747      324.214991    ;  uncertainty theta = 0.002476, k = 0.063983
         2         6         7     1      106.814796      708.312524    ;  uncertainty theta = 0.004589, k = 0.069405
         2         6         8     1      116.728256      375.267535    ;  uncertainty theta = 0.004581, k = 0.293842
         3        10        25     1      108.763405      392.028242    ;  uncertainty theta = 0.001366, k = 0.025646
         3        10        26     1      108.763405      392.028242    ;  uncertainty theta = 0.001366, k = 0.025646
         3        10        27     1      108.763405      392.028242    ;  uncertainty theta = 0.001366, k = 0.025646
         3        21         8     1      119.964333      405.626146    ;  uncertainty theta = 0.006120, k = 0.168743
         4         2         6     1      108.790184      644.235448    ;  uncertainty theta = 0.002985, k = 0.130355
         4         5         7     1      110.036133      769.669388    ;  uncertainty theta = 0.002920, k = 0.230819
         4         5        24     1      118.333328      289.181780    ;  uncertainty theta = 0.002057, k = 0.128991
         5         4        23     1      115.742859      282.244496    ;  uncertainty theta = 0.004980, k = 0.074152
         5         7         6     1      108.298706      744.368305    ;  uncertainty theta = 0.003668, k = 0.075447
         5         7         9     1      124.027878      347.352953    ;  uncertainty theta = 0.005662, k = 0.175997
         6         7         9     1      124.534935      311.521834    ;  uncertainty theta = 0.008017, k = 0.256085
         6         8        11     1      121.787621      357.999533    ;  uncertainty theta = 0.005105, k = 0.190172
         6         8        21     1      120.678185      629.944498    ;  uncertainty theta = 0.003083, k = 0.113113
         7         5        24     1      127.353256      235.253182    ;  uncertainty theta = 0.004311, k = 0.133258
         7         6         8     1      130.927582      330.654939    ;  uncertainty theta = 0.003347, k = 0.069155
         7         9        17     1      180.000000      239.644320    ;  uncertainty theta = 0.000000, k = 0.717098
         8        11        12     1      118.650253      379.786933    ;  uncertainty theta = 0.005099, k = 0.122413
         8        11        13     1      120.248497      379.583466    ;  uncertainty theta = 0.003053, k = 0.162794
        10         3        21     1      118.573265      477.356152    ;  uncertainty theta = 0.001334, k = 0.251144
        11         8        21     1      118.995949      458.124091    ;  uncertainty theta = 0.002813, k = 0.186653
        11        12        16     1      123.867577      497.727710    ;  uncertainty theta = 0.003292, k = 0.107500
        11        12        28     1      118.411461      268.611925    ;  uncertainty theta = 0.003755, k = 0.047125
        11        13        14     1      123.572159      370.386883    ;  uncertainty theta = 0.003352, k = 0.163487
        11        13        19     1      118.222794      414.459784    ;  uncertainty theta = 0.000863, k = 0.070977
        12        11        13     1      120.723526      420.176042    ;  uncertainty theta = 0.003371, k = 0.185511
        12        16        15     1      120.902573      365.213958    ;  uncertainty theta = 0.003018, k = 0.170113
        12        16        18     1      120.189964      431.211042    ;  uncertainty theta = 0.003028, k = 0.111724
        13        14        15     1      120.770584      483.562116    ;  uncertainty theta = 0.001505, k = 0.051061
        13        14        29     1      121.148056      281.654110    ;  uncertainty theta = 0.001355, k = 0.059808
        14        13        19     1      119.085228      446.648640    ;  uncertainty theta = 0.002071, k = 0.106371
        14        15        16     1      121.501175      353.154186    ;  uncertainty theta = 0.002433, k = 0.195298
        14        15        20     1      120.459961      452.129095    ;  uncertainty theta = 0.001274, k = 0.141642
        15        14        29     1      120.726456      279.438096    ;  uncertainty theta = 0.002115, k = 0.024758
        15        16        18     1      118.643044      401.650306    ;  uncertainty theta = 0.004738, k = 0.175701
        16        12        28     1      117.825455      268.979947    ;  uncertainty theta = 0.002672, k = 0.093873
        16        15        20     1      118.634056      418.836365    ;  uncertainty theta = 0.000762, k = 0.093560
        16        18        22     1      110.262283      495.977078    ;  uncertainty theta = 0.001418, k = 0.043039
        18        22        30     1      108.817017      444.786378    ;  uncertainty theta = 0.001502, k = 0.019460
        18        22        31     1      108.817017      444.786378    ;  uncertainty theta = 0.001502, k = 0.019460
        18        22        32     1      108.817017      444.786378    ;  uncertainty theta = 0.001502, k = 0.019460
        25        10        26     1      107.320633      312.556885    ;  uncertainty theta = 0.001808, k = 0.035510
        25        10        27     1      107.320633      312.556885    ;  uncertainty theta = 0.001808, k = 0.035510
        26        10        27     1      107.320633      312.556885    ;  uncertainty theta = 0.001808, k = 0.035510
        30        22        31     1      109.133141      330.809949    ;  uncertainty theta = 0.001542, k = 0.011144
        30        22        32     1      109.133141      330.809949    ;  uncertainty theta = 0.001542, k = 0.011144
        31        22        32     1      109.133141      330.809949    ;  uncertainty theta = 0.001542, k = 0.011144

[ dihedrals ] ; propers for gromacs 4.5 or higher, use funct 9
;       ai        aj        ak        al funct           phase               k        pn
         1         2         4         5     9        0.000000        0.524707         1    ;  uncertainty k = 1.563604
         1         2         4         5     9      180.000000        8.980210         2    ;  uncertainty k = 0.629839
         1         2         4         5     9        0.000000       -0.029155         3    ;  uncertainty k = 0.738116
         1         2         4         5     9      180.000000        0.405025         4    ;  uncertainty k = 0.369216
         1         2         4        23     9        0.000000        4.512875         1    ;  uncertainty k = 1.438493
         1         2         4        23     9      180.000000        4.327648         2    ;  uncertainty k = 1.000768
         1         2         4        23     9        0.000000        1.528089         3    ;  uncertainty k = 0.552392
         1         2         4        23     9      180.000000        0.126485         4    ;  uncertainty k = 0.105649
         1         2         6         7     9        0.000000       -0.018677         1    ;  uncertainty k = 0.430654
         1         2         6         7     9      180.000000        9.446574         2    ;  uncertainty k = 0.803615
         1         2         6         7     9        0.000000       -0.987037         3    ;  uncertainty k = 0.436111
         1         2         6         7     9      180.000000        1.379400         4    ;  uncertainty k = 0.410374
         1         2         6         8     9        0.000000       -0.462445         1    ;  uncertainty k = 0.550929
         1         2         6         8     9      180.000000        8.793370         2    ;  uncertainty k = 0.475221
         1         2         6         8     9        0.000000       -0.414307         3    ;  uncertainty k = 0.288542
         1         2         6         8     9      180.000000        1.181717         4    ;  uncertainty k = 0.199166
         1         3        10        25     9        0.000000        0.436072         1    ;  uncertainty k = 0.404615
         1         3        10        25     9      180.000000        3.567176         2    ;  uncertainty k = 0.091779
         1         3        10        25     9        0.000000        0.448216         3    ;  uncertainty k = 0.080465
         1         3        10        25     9      180.000000        0.227813         4    ;  uncertainty k = 0.026758
         1         3        10        26     9        0.000000        0.436072         1    ;  uncertainty k = 0.404615
         1         3        10        26     9      180.000000        3.567176         2    ;  uncertainty k = 0.091779
         1         3        10        26     9        0.000000        0.448216         3    ;  uncertainty k = 0.080465
         1         3        10        26     9      180.000000        0.227813         4    ;  uncertainty k = 0.026758
         1         3        10        27     9        0.000000        0.436072         1    ;  uncertainty k = 0.404615
         1         3        10        27     9      180.000000        3.567176         2    ;  uncertainty k = 0.091779
         1         3        10        27     9        0.000000        0.448216         3    ;  uncertainty k = 0.080465
         1         3        10        27     9      180.000000        0.227813         4    ;  uncertainty k = 0.026758
         1         3        21         8     9        0.000000       -1.043387         1    ;  uncertainty k = 0.754357
         1         3        21         8     9      180.000000       11.627570         2    ;  uncertainty k = 0.241177
         1         3        21         8     9        0.000000        1.077935         3    ;  uncertainty k = 0.437502
         1         3        21         8     9      180.000000        1.076078         4    ;  uncertainty k = 0.184456
         2         1         3        10     9        0.000000        0.572102         1    ;  uncertainty k = 1.121253
         2         1         3        10     9      180.000000       14.849917         2    ;  uncertainty k = 0.466943
         2         1         3        10     9        0.000000        2.512756         3    ;  uncertainty k = 0.289554
         2         1         3        10     9      180.000000        1.383911         4    ;  uncertainty k = 0.351043
         2         1         3        21     9        0.000000       -0.435242         1    ;  uncertainty k = 0.750507
         2         1         3        21     9      180.000000       16.623786         2    ;  uncertainty k = 0.192933
         2         1         3        21     9        0.000000        1.372351         3    ;  uncertainty k = 0.335343
         2         1         3        21     9      180.000000        1.181481         4    ;  uncertainty k = 0.179957
         2         4         5         7     9        0.000000       -0.515118         1    ;  uncertainty k = 0.167764
         2         4         5         7     9      180.000000       15.214895         2    ;  uncertainty k = 0.467018
         2         4         5         7     9        0.000000       -6.846647         3    ;  uncertainty k = 1.220022
         2         4         5         7     9      180.000000        1.117340         4    ;  uncertainty k = 0.352942
         2         4         5        24     9        0.000000        1.388123         1    ;  uncertainty k = 1.504272
         2         4         5        24     9      180.000000        8.488878         2    ;  uncertainty k = 0.638648
         2         4         5        24     9        0.000000        1.361712         3    ;  uncertainty k = 0.281048
         2         4         5        24     9      180.000000        0.101354         4    ;  uncertainty k = 0.098097
         2         6         7         5     9        0.000000        0.876937         1    ;  uncertainty k = 1.382332
         2         6         7         5     9      180.000000       10.914281         2    ;  uncertainty k = 0.657676
         2         6         7         5     9        0.000000      -11.811199         3    ;  uncertainty k = 2.632241
         2         6         7         5     9      180.000000        2.011313         4    ;  uncertainty k = 0.722848
         2         6         7         9     9        0.000000        1.118109         1    ;  uncertainty k = 1.251722
         2         6         7         9     9      180.000000        8.703388         2    ;  uncertainty k = 0.344387
         2         6         7         9     9        0.000000        1.659022         3    ;  uncertainty k = 0.759148
         2         6         7         9     9      180.000000        0.319468         4    ;  uncertainty k = 0.318245
         2         6         8        11     9        0.000000        0.189294         1    ;  uncertainty k = 0.928942
         2         6         8        11     9      180.000000        7.580715         2    ;  uncertainty k = 0.750842
         2         6         8        11     9        0.000000        0.744209         3    ;  uncertainty k = 0.306158
         2         6         8        11     9      180.000000        0.887983         4    ;  uncertainty k = 0.357386
         2         6         8        21     9        0.000000       -0.528181         1    ;  uncertainty k = 0.658847
         2         6         8        21     9      180.000000       11.804188         2    ;  uncertainty k = 0.133155
         2         6         8        21     9        0.000000       -1.422427         3    ;  uncertainty k = 0.295253
         2         6         8        21     9      180.000000        0.797307         4    ;  uncertainty k = 0.220241
         3         1         2         4     9        0.000000       -0.364169         1    ;  uncertainty k = 0.919161
         3         1         2         4     9      180.000000       17.382117         2    ;  uncertainty k = 0.360466
         3         1         2         4     9        0.000000        1.315304         3    ;  uncertainty k = 0.488914
         3         1         2         4     9      180.000000        1.274096         4    ;  uncertainty k = 0.400625
         3         1         2         6     9        0.000000       -0.341278         1    ;  uncertainty k = 0.795192
         3         1         2         6     9      180.000000       12.850511         2    ;  uncertainty k = 0.477725
         3         1         2         6     9        0.000000       -0.456554         3    ;  uncertainty k = 0.302788
         3         1         2         6     9      180.000000        0.986139         4    ;  uncertainty k = 0.155167
         3        21         8         6     9        0.000000       -0.171476         1    ;  uncertainty k = 0.673067
         3        21         8         6     9      180.000000       15.288152         2    ;  uncertainty k = 0.494979
         3        21         8         6     9        0.000000        0.784784         3    ;  uncertainty k = 0.672948
         3        21         8         6     9      180.000000        1.640572         4    ;  uncertainty k = 0.465660
         3        21         8        11     9        0.000000       -0.533446         1    ;  uncertainty k = 0.495467
         3        21         8        11     9      180.000000       16.130584         2    ;  uncertainty k = 0.753446
         3        21         8        11     9        0.000000        2.272313         3    ;  uncertainty k = 0.575580
         3        21         8        11     9      180.000000        1.774532         4    ;  uncertainty k = 0.466028
         4         2         6         7     9        0.000000       -0.138547         1    ;  uncertainty k = 0.404429
         4         2         6         7     9      180.000000       10.715277         2    ;  uncertainty k = 0.766574
         4         2         6         7     9        0.000000       -3.396649         3    ;  uncertainty k = 1.273401
         4         2         6         7     9      180.000000        1.613295         4    ;  uncertainty k = 0.747677
         4         2         6         8     9        0.000000       -0.250803         1    ;  uncertainty k = 0.642349
         4         2         6         8     9      180.000000        7.011092         2    ;  uncertainty k = 0.703820
         4         2         6         8     9        0.000000       -0.613398         3    ;  uncertainty k = 0.690082
         4         2         6         8     9      180.000000        1.116703         4    ;  uncertainty k = 0.377533
         4         5         7         6     9        0.000000       -0.021822         1    ;  uncertainty k = 0.291834
         4         5         7         6     9      180.000000       21.276287         2    ;  uncertainty k = 0.494196
         4         5         7         6     9        0.000000       -6.229186         3    ;  uncertainty k = 0.998606
         4         5         7         6     9      180.000000        1.368956         4    ;  uncertainty k = 0.511155
         4         5         7         9     9        0.000000        0.938462         1    ;  uncertainty k = 0.894573
         4         5         7         9     9      180.000000       16.833530         2    ;  uncertainty k = 0.363049
         4         5         7         9     9        0.000000        1.723444         3    ;  uncertainty k = 0.726918
         4         5         7         9     9      180.000000        0.800966         4    ;  uncertainty k = 0.232810
         5         4         2         6     9        0.000000        0.391323         1    ;  uncertainty k = 1.067341
         5         4         2         6     9      180.000000       14.086078         2    ;  uncertainty k = 0.939355
         5         4         2         6     9        0.000000       -7.699551         3    ;  uncertainty k = 1.967013
         5         4         2         6     9      180.000000        0.797591         4    ;  uncertainty k = 0.286258
         5         7         6         8     9        0.000000        0.699483         1    ;  uncertainty k = 0.871106
         5         7         6         8     9      180.000000        4.424032         2    ;  uncertainty k = 0.753618
         5         7         6         8     9        0.000000        0.503073         3    ;  uncertainty k = 0.467556
         5         7         6         8     9      180.000000        0.698514         4    ;  uncertainty k = 0.351467
         5         7         9        17     9        0.000000        0.000000         1    ;  uncertainty k = 0.000000
         5         7         9        17     9      180.000000        0.000000         2    ;  uncertainty k = 0.000000
         5         7         9        17     9        0.000000        0.000000         3    ;  uncertainty k = 0.000000
         5         7         9        17     9      180.000000        0.000000         4    ;  uncertainty k = 0.000000
         6         2         4        23     9        0.000000        4.586715         1    ;  uncertainty k = 2.202357
         6         2         4        23     9      180.000000        7.055984         2    ;  uncertainty k = 0.777324
         6         2         4        23     9        0.000000        1.191597         3    ;  uncertainty k = 0.273273
         6         2         4        23     9      180.000000        0.139305         4    ;  uncertainty k = 0.287379
         6         7         5        24     9        0.000000       -0.099102         1    ;  uncertainty k = 0.668542
         6         7         5        24     9      180.000000       11.369478         2    ;  uncertainty k = 0.296478
         6         7         5        24     9        0.000000        1.734431         3    ;  uncertainty k = 0.444098
         6         7         5        24     9      180.000000        0.841696         4    ;  uncertainty k = 0.266918
         6         7         9        17     9        0.000000        0.000000         1    ;  uncertainty k = 0.000000
         6         7         9        17     9      180.000000        0.000000         2    ;  uncertainty k = 0.000000
         6         7         9        17     9        0.000000        0.000000         3    ;  uncertainty k = 0.000000
         6         7         9        17     9      180.000000        0.000000         4    ;  uncertainty k = 0.000000
         6         8        11        12     9        0.000000       -0.201560         1    ;  uncertainty k = 0.493859
         6         8        11        12     9      180.000000        4.777988         2    ;  uncertainty k = 0.377640
         6         8        11        12     9        0.000000        0.424921         3    ;  uncertainty k = 0.207285
         6         8        11        12     9      180.000000        0.408624         4    ;  uncertainty k = 0.095971
         6         8        11        13     9        0.000000       -0.527647         1    ;  uncertainty k = 1.497264
         6         8        11        13     9      180.000000        3.967578         2    ;  uncertainty k = 0.802187
         6         8        11        13     9        0.000000        0.600375         3    ;  uncertainty k = 0.347407
         6         8        11        13     9      180.000000        0.265146         4    ;  uncertainty k = 0.170471
         7         5         4        23     9        0.000000        3.325480         1    ;  uncertainty k = 1.696982
         7         5         4        23     9      180.000000       10.140257         2    ;  uncertainty k = 0.542167
         7         5         4        23     9        0.000000        1.645574         3    ;  uncertainty k = 0.761824
         7         5         4        23     9      180.000000       -0.311166         4    ;  uncertainty k = 0.159167
         7         6         8        11     9        0.000000       -0.183745         1    ;  uncertainty k = 1.297882
         7         6         8        11     9      180.000000        5.454510         2    ;  uncertainty k = 0.791294
         7         6         8        11     9        0.000000        1.100178         3    ;  uncertainty k = 0.198516
         7         6         8        11     9      180.000000        0.713989         4    ;  uncertainty k = 0.284435
         7         6         8        21     9        0.000000       -0.389340         1    ;  uncertainty k = 0.723970
         7         6         8        21     9      180.000000        7.510888         2    ;  uncertainty k = 1.061331
         7         6         8        21     9        0.000000        0.306004         3    ;  uncertainty k = 0.327857
         7         6         8        21     9      180.000000        1.112324         4    ;  uncertainty k = 0.422583
         8         6         7         9     9        0.000000        1.328082         1    ;  uncertainty k = 1.444517
         8         6         7         9     9      180.000000        4.110693         2    ;  uncertainty k = 0.931851
         8         6         7         9     9        0.000000        1.407775         3    ;  uncertainty k = 0.433595
         8         6         7         9     9      180.000000       -0.070190         4    ;  uncertainty k = 0.224978
         8        11        12        16     9        0.000000        0.068507         1    ;  uncertainty k = 0.142599
         8        11        12        16     9      180.000000        8.359296         2    ;  uncertainty k = 0.625588
         8        11        12        16     9        0.000000        1.462423         3    ;  uncertainty k = 0.320256
         8        11        12        16     9      180.000000        1.920945         4    ;  uncertainty k = 0.220164
         8        11        12        28     9        0.000000       -0.168418         1    ;  uncertainty k = 0.154542
         8        11        12        28     9      180.000000        7.983532         2    ;  uncertainty k = 0.287836
         8        11        12        28     9        0.000000        0.710542         3    ;  uncertainty k = 0.287158
         8        11        12        28     9      180.000000        1.321193         4    ;  uncertainty k = 0.068385
         8        11        13        14     9        0.000000       -0.070788         1    ;  uncertainty k = 0.545563
         8        11        13        14     9      180.000000        6.432645         2    ;  uncertainty k = 0.610946
         8        11        13        14     9        0.000000        1.325182         3    ;  uncertainty k = 0.288823
         8        11        13        14     9      180.000000        1.790809         4    ;  uncertainty k = 0.157745
         8        11        13        19     9        0.000000       -0.234501         1    ;  uncertainty k = 0.567006
         8        11        13        19     9      180.000000        7.884226         2    ;  uncertainty k = 0.394943
         8        11        13        19     9        0.000000        1.210060         3    ;  uncertainty k = 0.231102
         8        11        13        19     9      180.000000        1.440939         4    ;  uncertainty k = 0.195981
         8        21         3        10     9        0.000000        0.139449         1    ;  uncertainty k = 0.648683
         8        21         3        10     9      180.000000       10.058490         2    ;  uncertainty k = 0.304279
         8        21         3        10     9        0.000000        1.788308         3    ;  uncertainty k = 0.563158
         8        21         3        10     9      180.000000        1.225530         4    ;  uncertainty k = 0.282660
         9         7         5        24     9        0.000000        0.270274         1    ;  uncertainty k = 0.896995
         9         7         5        24     9      180.000000        7.866300         2    ;  uncertainty k = 0.617749
         9         7         5        24     9        0.000000        1.444939         3    ;  uncertainty k = 0.203053
         9         7         5        24     9      180.000000        0.419798         4    ;  uncertainty k = 0.331089
        11        12        16        15     9        0.000000        0.052001         1    ;  uncertainty k = 0.333915
        11        12        16        15     9      180.000000        7.314855         2    ;  uncertainty k = 0.796686
        11        12        16        15     9        0.000000        0.581359         3    ;  uncertainty k = 0.229874
        11        12        16        15     9      180.000000        1.537356         4    ;  uncertainty k = 0.328395
        11        12        16        18     9        0.000000        0.037875         1    ;  uncertainty k = 0.222477
        11        12        16        18     9      180.000000       10.782216         2    ;  uncertainty k = 0.182439
        11        12        16        18     9        0.000000        1.125872         3    ;  uncertainty k = 0.200421
        11        12        16        18     9      180.000000        1.685523         4    ;  uncertainty k = 0.125656
        11        13        14        15     9        0.000000       -0.000062         1    ;  uncertainty k = 0.317850
        11        13        14        15     9      180.000000        8.905540         2    ;  uncertainty k = 0.486934
        11        13        14        15     9        0.000000        0.179967         3    ;  uncertainty k = 0.328274
        11        13        14        15     9      180.000000        1.317487         4    ;  uncertainty k = 0.331496
        11        13        14        29     9        0.000000        0.009053         1    ;  uncertainty k = 0.181044
        11        13        14        29     9      180.000000        5.821279         2    ;  uncertainty k = 0.702295
        11        13        14        29     9        0.000000        1.332630         3    ;  uncertainty k = 0.326760
        11        13        14        29     9      180.000000        1.619670         4    ;  uncertainty k = 0.233945
        12        11         8        21     9        0.000000        1.508834         1    ;  uncertainty k = 1.395113
        12        11         8        21     9      180.000000        6.316655         2    ;  uncertainty k = 0.218886
        12        11         8        21     9        0.000000        0.456884         3    ;  uncertainty k = 0.255647
        12        11         8        21     9      180.000000        0.425748         4    ;  uncertainty k = 0.162281
        12        11        13        14     9        0.000000       -0.198907         1    ;  uncertainty k = 0.447082
        12        11        13        14     9      180.000000        7.758069         2    ;  uncertainty k = 0.735181
        12        11        13        14     9        0.000000        0.005698         3    ;  uncertainty k = 0.354315
        12        11        13        14     9      180.000000        1.223791         4    ;  uncertainty k = 0.304172
        12        11        13        19     9        0.000000       -0.045303         1    ;  uncertainty k = 0.273535
        12        11        13        19     9      180.000000        7.879616         2    ;  uncertainty k = 0.310991
        12        11        13        19     9        0.000000        1.351012         3    ;  uncertainty k = 0.346993
        12        11        13        19     9      180.000000        1.535630         4    ;  uncertainty k = 0.131060
        12        16        15        14     9        0.000000       -0.160112         1    ;  uncertainty k = 0.365455
        12        16        15        14     9      180.000000        5.802140         2    ;  uncertainty k = 0.973451
        12        16        15        14     9        0.000000        0.439923         3    ;  uncertainty k = 0.180992
        12        16        15        14     9      180.000000        1.284192         4    ;  uncertainty k = 0.381519
        12        16        15        20     9        0.000000        0.246617         1    ;  uncertainty k = 0.379113
        12        16        15        20     9      180.000000        6.909539         2    ;  uncertainty k = 0.691172
        12        16        15        20     9        0.000000        1.419798         3    ;  uncertainty k = 0.301860
        12        16        15        20     9      180.000000        1.464055         4    ;  uncertainty k = 0.209372
        12        16        18        22     9        0.000000       -0.042247         1    ;  uncertainty k = 0.307328
        12        16        18        22     9      180.000000        6.518518         2    ;  uncertainty k = 0.219685
        12        16        18        22     9        0.000000       -0.371906         3    ;  uncertainty k = 0.148398
        12        16        18        22     9      180.000000        0.073097         4    ;  uncertainty k = 0.099373
        13        11         8        21     9        0.000000        0.965120         1    ;  uncertainty k = 0.706633
        13        11         8        21     9      180.000000        5.484296         2    ;  uncertainty k = 0.213952
        13        11         8        21     9        0.000000        1.006597         3    ;  uncertainty k = 0.233317
        13        11         8        21     9      180.000000        0.367851         4    ;  uncertainty k = 0.124853
        13        11        12        16     9        0.000000        0.059970         1    ;  uncertainty k = 0.189604
        13        11        12        16     9      180.000000       10.004527         2    ;  uncertainty k = 0.523775
        13        11        12        16     9        0.000000        0.108084         3    ;  uncertainty k = 0.198061
        13        11        12        16     9      180.000000        1.278391         4    ;  uncertainty k = 0.330368
        13        11        12        28     9        0.000000        0.219926         1    ;  uncertainty k = 0.193300
        13        11        12        28     9      180.000000        7.375192         2    ;  uncertainty k = 0.216985
        13        11        12        28     9        0.000000        1.329290         3    ;  uncertainty k = 0.343779
        13        11        12        28     9      180.000000        1.650294         4    ;  uncertainty k = 0.102987
        13        14        15        16     9        0.000000       -0.051247         1    ;  uncertainty k = 0.265355
        13        14        15        16     9      180.000000        8.906677         2    ;  uncertainty k = 0.444345
        13        14        15        16     9        0.000000        0.373665         3    ;  uncertainty k = 0.412984
        13        14        15        16     9      180.000000        1.383742         4    ;  uncertainty k = 0.241519
        13        14        15        20     9        0.000000       -0.011356         1    ;  uncertainty k = 0.190662
        13        14        15        20     9      180.000000        9.747869         2    ;  uncertainty k = 0.618010
        13        14        15        20     9        0.000000        1.512293         3    ;  uncertainty k = 0.404646
        13        14        15        20     9      180.000000        1.724437         4    ;  uncertainty k = 0.192265
        14        15        16        18     9        0.000000        0.168676         1    ;  uncertainty k = 0.147161
        14        15        16        18     9      180.000000        7.998623         2    ;  uncertainty k = 0.496513
        14        15        16        18     9        0.000000        1.217222         3    ;  uncertainty k = 0.240785
        14        15        16        18     9      180.000000        1.684817         4    ;  uncertainty k = 0.129998
        15        14        13        19     9        0.000000        0.060056         1    ;  uncertainty k = 0.110838
        15        14        13        19     9      180.000000        9.377502         2    ;  uncertainty k = 0.372755
        15        14        13        19     9        0.000000        1.351014         3    ;  uncertainty k = 0.364493
        15        14        13        19     9      180.000000        1.708251         4    ;  uncertainty k = 0.122914
        15        16        12        28     9        0.000000        0.252864         1    ;  uncertainty k = 0.226630
        15        16        12        28     9      180.000000        5.954041         2    ;  uncertainty k = 0.292012
        15        16        12        28     9        0.000000        1.494457         3    ;  uncertainty k = 0.316005
        15        16        12        28     9      180.000000        1.825253         4    ;  uncertainty k = 0.132671
        15        16        18        22     9        0.000000        2.249742         1    ;  uncertainty k = 0.466202
        15        16        18        22     9      180.000000        5.839436         2    ;  uncertainty k = 0.118861
        15        16        18        22     9        0.000000        1.185093         3    ;  uncertainty k = 0.203566
        15        16        18        22     9      180.000000        0.095406         4    ;  uncertainty k = 0.053427
        16        15        14        29     9        0.000000        0.026972         1    ;  uncertainty k = 0.201679
        16        15        14        29     9      180.000000        6.665758         2    ;  uncertainty k = 0.606408
        16        15        14        29     9        0.000000        1.325553         3    ;  uncertainty k = 0.393768
        16        15        14        29     9      180.000000        1.580155         4    ;  uncertainty k = 0.149896
        16        18        22        30     9        0.000000        1.124365         1    ;  uncertainty k = 0.199625
        16        18        22        30     9      180.000000       -2.017545         2    ;  uncertainty k = 0.263864
        16        18        22        30     9        0.000000        1.022272         3    ;  uncertainty k = 0.022119
        16        18        22        30     9      180.000000        0.258390         4    ;  uncertainty k = 0.036976
        16        18        22        31     9        0.000000        1.124365         1    ;  uncertainty k = 0.199625
        16        18        22        31     9      180.000000       -2.017545         2    ;  uncertainty k = 0.263864
        16        18        22        31     9        0.000000        1.022272         3    ;  uncertainty k = 0.022119
        16        18        22        31     9      180.000000        0.258390         4    ;  uncertainty k = 0.036976
        16        18        22        32     9        0.000000        1.124365         1    ;  uncertainty k = 0.199625
        16        18        22        32     9      180.000000       -2.017545         2    ;  uncertainty k = 0.263864
        16        18        22        32     9        0.000000        1.022272         3    ;  uncertainty k = 0.022119
        16        18        22        32     9      180.000000        0.258390         4    ;  uncertainty k = 0.036976
        18        16        12        28     9        0.000000        0.005613         1    ;  uncertainty k = 0.270061
        18        16        12        28     9      180.000000        9.115473         2    ;  uncertainty k = 0.424603
        18        16        12        28     9        0.000000        0.801237         3    ;  uncertainty k = 0.159315
        18        16        12        28     9      180.000000        1.345057         4    ;  uncertainty k = 0.285009
        18        16        15        20     9        0.000000       -0.208518         1    ;  uncertainty k = 0.727865
        18        16        15        20     9      180.000000        9.554305         2    ;  uncertainty k = 0.396276
        18        16        15        20     9        0.000000        0.864517         3    ;  uncertainty k = 0.255533
        18        16        15        20     9      180.000000        1.371781         4    ;  uncertainty k = 0.179733
        19        13        14        29     9        0.000000       -0.133253         1    ;  uncertainty k = 0.421229
        19        13        14        29     9      180.000000        7.579308         2    ;  uncertainty k = 0.497753
        19        13        14        29     9        0.000000        0.609941         3    ;  uncertainty k = 0.285419
        19        13        14        29     9      180.000000        1.137637         4    ;  uncertainty k = 0.276632
        20        15        14        29     9        0.000000       -0.204170         1    ;  uncertainty k = 0.240359
        20        15        14        29     9      180.000000        7.600900         2    ;  uncertainty k = 0.534725
        20        15        14        29     9        0.000000        0.578093         3    ;  uncertainty k = 0.285093
        20        15        14        29     9      180.000000        1.053979         4    ;  uncertainty k = 0.242327
        21         3        10        25     9        0.000000        0.291883         1    ;  uncertainty k = 0.230247
        21         3        10        25     9      180.000000        3.621590         2    ;  uncertainty k = 0.143318
        21         3        10        25     9        0.000000        0.521229         3    ;  uncertainty k = 0.049638
        21         3        10        25     9      180.000000        0.249820         4    ;  uncertainty k = 0.038309
        21         3        10        26     9        0.000000        0.291883         1    ;  uncertainty k = 0.230247
        21         3        10        26     9      180.000000        3.621590         2    ;  uncertainty k = 0.143318
        21         3        10        26     9        0.000000        0.521229         3    ;  uncertainty k = 0.049638
        21         3        10        26     9      180.000000        0.249820         4    ;  uncertainty k = 0.038309
        21         3        10        27     9        0.000000        0.291883         1    ;  uncertainty k = 0.230247
        21         3        10        27     9      180.000000        3.621590         2    ;  uncertainty k = 0.143318
        21         3        10        27     9        0.000000        0.521229         3    ;  uncertainty k = 0.049638
        21         3        10        27     9      180.000000        0.249820         4    ;  uncertainty k = 0.038309
        23         4         5        24     9        0.000000       -0.647032         1    ;  uncertainty k = 1.275729
        23         4         5        24     9      180.000000        2.289731         2    ;  uncertainty k = 0.488486
        23         4         5        24     9        0.000000        1.149249         3    ;  uncertainty k = 0.437705
        23         4         5        24     9      180.000000        0.106086         4    ;  uncertainty k = 0.087123

[ dihedrals ] ; impropers
;       ai        aj        ak        al funct           phase               k        pn
         2         1         4         6     4      180.000000       11.281119         2    ;  uncertainty k = 0.140703
         2         4         6         1     4      180.000000       11.281119         2    ;  uncertainty k = 0.140703
         2         6         1         4     4      180.000000       11.281119         2    ;  uncertainty k = 0.140703
         3         1        10        21     4      180.000000       36.182480         2    ;  uncertainty k = 0.032005
         3        10        21         1     4      180.000000       36.182480         2    ;  uncertainty k = 0.032005
         3        21         1        10     4      180.000000       36.182480         2    ;  uncertainty k = 0.032005
         5         4         7        24     4      180.000000        2.363297         2    ;  uncertainty k = 0.577303
         5         7        24         4     4      180.000000        2.363297         2    ;  uncertainty k = 0.577303
         5        24         4         7     4      180.000000        2.363297         2    ;  uncertainty k = 0.577303
         7         5         6         9     4      180.000000        3.220404         2    ;  uncertainty k = 0.816340
         7         6         9         5     4      180.000000        3.220404         2    ;  uncertainty k = 0.816340
         7         9         5         6     4      180.000000        3.220404         2    ;  uncertainty k = 0.816340
         8         6        11        21     4      180.000000       28.223206         2    ;  uncertainty k = 0.076411
         8        11        21         6     4      180.000000       28.223206         2    ;  uncertainty k = 0.076411
         8        21         6        11     4      180.000000       28.223206         2    ;  uncertainty k = 0.076411
        11         8        12        13     4      180.000000       12.153858         2    ;  uncertainty k = 0.196059
        11        12        13         8     4      180.000000       12.153858         2    ;  uncertainty k = 0.196059
        11        13         8        12     4      180.000000       12.153858         2    ;  uncertainty k = 0.196059
        12        11        16        28     4      180.000000        2.763545         2    ;  uncertainty k = 0.183830
        12        16        28        11     4      180.000000        2.763545         2    ;  uncertainty k = 0.183830
        12        28        11        16     4      180.000000        2.763545         2    ;  uncertainty k = 0.183830
        13        11        14        19     4      180.000000       13.557319         2    ;  uncertainty k = 0.075131
        13        14        19        11     4      180.000000       13.557319         2    ;  uncertainty k = 0.075131
        13        19        11        14     4      180.000000       13.557319         2    ;  uncertainty k = 0.075131
        14        13        15        29     4      180.000000        2.942482         2    ;  uncertainty k = 0.290338
        14        15        29        13     4      180.000000        2.942482         2    ;  uncertainty k = 0.290338
        14        29        13        15     4      180.000000        2.942482         2    ;  uncertainty k = 0.290338
        15        14        16        20     4      180.000000       11.859023         2    ;  uncertainty k = 0.093671
        15        16        20        14     4      180.000000       11.859023         2    ;  uncertainty k = 0.093671
        15        20        14        16     4      180.000000       11.859023         2    ;  uncertainty k = 0.093671
        16        12        15        18     4      180.000000       17.975414         2    ;  uncertainty k = 0.072472
        16        15        18        12     4      180.000000       17.975414         2    ;  uncertainty k = 0.072472
        16        18        12        15     4      180.000000       17.975414         2    ;  uncertainty k = 0.072472

[ pairs ]
;       ai        aj funct
         1         5     1
         1         7     1
         1         8     1
         1        23     1
         1        25     1
         1        26     1
         1        27     1
         2         9     1
         2        10     1
         2        11     1
         2        21     1
         2        24     1
         3         4     1
         3         6     1
         3        11     1
         4         8     1
         4         9     1
         5         8     1
         5        17     1
         6        12     1
         6        13     1
         6        17     1
         6        23     1
         6        24     1
         7        11     1
         7        21     1
         7        23     1
         8         9     1
         8        10     1
         8        14     1
         8        16     1
         8        19     1
         8        28     1
         9        24     1
        11        15     1
        11        18     1
        11        29     1
        12        14     1
        12        19     1
        12        20     1
        12        21     1
        12        22     1
        13        16     1
        13        20     1
        13        21     1
        13        28     1
        14        18     1
        15        19     1
        15        22     1
        15        28     1
        16        29     1
        16        30     1
        16        31     1
        16        32     1
        18        20     1
        18        28     1
        19        29     1
        20        29     1
        21        25     1
        21        26     1
        21        27     1
        23        24     1
