; ITP file created by ByteFF-joint-25, 2025-07-14 11:38:38.481705

[ atomtypes ]
;name           bonded.type        at.num        mass        charge   ptype           sigma         epsilon
 n0bf                                   7      0.0000       0.00000       A     3.38402e-01     3.93600e-01    ;  uncertainty sigma = 0.000011, epsilon = 0.000691
 n1bf                                   7      0.0000       0.00000       A     3.20683e-01     8.53692e-01    ;  uncertainty sigma = 0.000014, epsilon = 0.000692
 c2bf                                   6      0.0000       0.00000       A     3.31529e-01     4.12649e-01    ;  uncertainty sigma = 0.000012, epsilon = 0.000805
 c3bf                                   6      0.0000       0.00000       A     3.31519e-01     4.13049e-01    ;  uncertainty sigma = 0.000003, epsilon = 0.000893
 c4bf                                   6      0.0000       0.00000       A     3.31511e-01     4.12979e-01    ;  uncertainty sigma = 0.000009, epsilon = 0.001054
 c5bf                                   6      0.0000       0.00000       A     3.39771e-01     4.51015e-01    ;  uncertainty sigma = 0.000004, epsilon = 0.000513
 c6bf                                   6      0.0000       0.00000       A     3.31513e-01     4.13298e-01    ;  uncertainty sigma = 0.000012, epsilon = 0.001148
 c7bf                                   6      0.0000       0.00000       A     3.31541e-01     4.13380e-01    ;  uncertainty sigma = 0.000008, epsilon = 0.000747
 c8bf                                   6      0.0000       0.00000       A     3.31505e-01     4.13231e-01    ;  uncertainty sigma = 0.000015, epsilon = 0.000497
 c9bf                                   6      0.0000       0.00000       A     3.31518e-01     4.13613e-01    ;  uncertainty sigma = 0.000012, epsilon = 0.000598
 c10bf                                  6      0.0000       0.00000       A     3.31525e-01     4.13420e-01    ;  uncertainty sigma = 0.000006, epsilon = 0.000415
 c11bf                                  6      0.0000       0.00000       A     3.31529e-01     4.13443e-01    ;  uncertainty sigma = 0.000006, epsilon = 0.000844
 c12bf                                  6      0.0000       0.00000       A     3.31523e-01     4.12623e-01    ;  uncertainty sigma = 0.000007, epsilon = 0.000771
 c13bf                                  6      0.0000       0.00000       A     3.31528e-01     4.13091e-01    ;  uncertainty sigma = 0.000018, epsilon = 0.000868
 c14bf                                  6      0.0000       0.00000       A     3.31516e-01     4.13399e-01    ;  uncertainty sigma = 0.000004, epsilon = 0.000382
 c15bf                                  6      0.0000       0.00000       A     3.39780e-01     4.50883e-01    ;  uncertainty sigma = 0.000003, epsilon = 0.000560
 n16bf                                  7      0.0000       0.00000       A     3.38390e-01     3.93429e-01    ;  uncertainty sigma = 0.000005, epsilon = 0.000428
 o17bf                                  8      0.0000       0.00000       A     3.15642e-01     3.03426e-01    ;  uncertainty sigma = 0.000016, epsilon = 0.000856
 cl18bf                                17      0.0000       0.00000       A     3.46592e-01     1.10386e+00    ;  uncertainty sigma = 0.000019, epsilon = 0.001119
 cl19bf                                17      0.0000       0.00000       A     3.46623e-01     1.10451e+00    ;  uncertainty sigma = 0.000020, epsilon = 0.000454
 c20bf                                  6      0.0000       0.00000       A     3.39764e-01     4.50641e-01    ;  uncertainty sigma = 0.000010, epsilon = 0.000480
 h21bf                                  1      0.0000       0.00000       A     1.10632e-01     4.10912e-02    ;  uncertainty sigma = 0.000065, epsilon = 0.001028
 h22bf                                  1      0.0000       0.00000       A     2.62544e-01     6.72203e-02    ;  uncertainty sigma = 0.000020, epsilon = 0.000320
 h23bf                                  1      0.0000       0.00000       A     2.60030e-01     8.67232e-02    ;  uncertainty sigma = 0.000008, epsilon = 0.000464
 h24bf                                  1      0.0000       0.00000       A     2.60030e-01     8.67232e-02    ;  uncertainty sigma = 0.000008, epsilon = 0.000464
 h25bf                                  1      0.0000       0.00000       A     2.60030e-01     8.67232e-02    ;  uncertainty sigma = 0.000008, epsilon = 0.000464
 h26bf                                  1      0.0000       0.00000       A     2.62565e-01     6.71866e-02    ;  uncertainty sigma = 0.000016, epsilon = 0.000591
 h27bf                                  1      0.0000       0.00000       A     2.62570e-01     6.72218e-02    ;  uncertainty sigma = 0.000012, epsilon = 0.000970
 h28bf                                  1      0.0000       0.00000       A     2.42205e-01     8.67536e-02    ;  uncertainty sigma = 0.000015, epsilon = 0.000624
 h29bf                                  1      0.0000       0.00000       A     2.42205e-01     8.67536e-02    ;  uncertainty sigma = 0.000015, epsilon = 0.000624
 h30bf                                  1      0.0000       0.00000       A     2.42205e-01     8.67536e-02    ;  uncertainty sigma = 0.000015, epsilon = 0.000624
 h31bf                                  1      0.0000       0.00000       A     2.60036e-01     8.68125e-02    ;  uncertainty sigma = 0.000009, epsilon = 0.000380
 h32bf                                  1      0.0000       0.00000       A     2.60036e-01     8.68125e-02    ;  uncertainty sigma = 0.000009, epsilon = 0.000380
 h33bf                                  1      0.0000       0.00000       A     2.60036e-01     8.68126e-02    ;  uncertainty sigma = 0.000009, epsilon = 0.000380

[ moleculetype ]
;name             nrexcl
 MOL                   3

[ atoms ]
;       nr            type      resi   res      atom      cgnr      charge          mass ; qtot
         1            n0bf         1   UNL        n0         1    -0.71732       14.0070 ; qtot   -0.717
         2            n1bf         1   UNL        n1         2    -0.29134       14.0070 ; qtot   -1.009
         3            c2bf         1   UNL        c2         3    -0.30599       12.0110 ; qtot   -1.315
         4            c3bf         1   UNL        c3         4    -0.15928       12.0110 ; qtot   -1.474
         5            c4bf         1   UNL        c4         5    -0.05214       12.0110 ; qtot   -1.526
         6            c5bf         1   UNL        c5         6    -0.13140       12.0110 ; qtot   -1.657
         7            c6bf         1   UNL        c6         7    -0.10251       12.0110 ; qtot   -1.760
         8            c7bf         1   UNL        c7         8    -0.09258       12.0110 ; qtot   -1.853
         9            c8bf         1   UNL        c8         9    -0.15493       12.0110 ; qtot   -2.007
        10            c9bf         1   UNL        c9        10     0.13648       12.0110 ; qtot   -1.871
        11           c10bf         1   UNL       c10        11     0.04674       12.0110 ; qtot   -1.824
        12           c11bf         1   UNL       c11        12     0.00923       12.0110 ; qtot   -1.815
        13           c12bf         1   UNL       c12        13     0.54673       12.0110 ; qtot   -1.268
        14           c13bf         1   UNL       c13        14     0.46427       12.0110 ; qtot   -0.804
        15           c14bf         1   UNL       c14        15     0.67313       12.0110 ; qtot   -0.131
        16           c15bf         1   UNL       c15        16     0.11900       12.0110 ; qtot   -0.012
        17           n16bf         1   UNL       n16        17    -0.73011       14.0070 ; qtot   -0.742
        18           o17bf         1   UNL       o17        18    -0.31291       15.9990 ; qtot   -1.055
        19          cl18bf         1   UNL      cl18        19    -0.09673       35.4530 ; qtot   -1.152
        20          cl19bf         1   UNL      cl19        20    -0.09143       35.4530 ; qtot   -1.243
        21           c20bf         1   UNL       c20        21    -0.04001       12.0110 ; qtot   -1.283
        22           h21bf         1   UNL       h21        22     0.31395        1.0080 ; qtot   -0.969
        23           h22bf         1   UNL       h22        23     0.16232        1.0080 ; qtot   -0.807
        24           h23bf         1   UNL       h23        24     0.06163        1.0080 ; qtot   -0.745
        25           h24bf         1   UNL       h24        25     0.06163        1.0080 ; qtot   -0.684
        26           h25bf         1   UNL       h25        26     0.06163        1.0080 ; qtot   -0.622
        27           h26bf         1   UNL       h26        27     0.16962        1.0080 ; qtot   -0.452
        28           h27bf         1   UNL       h27        28     0.15838        1.0080 ; qtot   -0.294
        29           h28bf         1   UNL       h28        29     0.04594        1.0080 ; qtot   -0.248
        30           h29bf         1   UNL       h29        30     0.04594        1.0080 ; qtot   -0.202
        31           h30bf         1   UNL       h30        31     0.04594        1.0080 ; qtot   -0.156
        32           h31bf         1   UNL       h31        32     0.05204        1.0080 ; qtot   -0.104
        33           h32bf         1   UNL       h32        33     0.05204        1.0080 ; qtot   -0.052
        34           h33bf         1   UNL       h33        34     0.05204        1.0080 ; qtot    0.000

[ bonds ]
;       ai        aj funct               r               k
         1        14     1        0.133590   462511.015137    ;  uncertainty r = 0.000107, k = 16.671496
         1        15     1        0.134265   400701.685107    ;  uncertainty r = 0.000065, k = 11.149725
         2         5     1        0.139461   323723.669629    ;  uncertainty r = 0.000053, k = 12.401318
         2        14     1        0.137759   366557.293018    ;  uncertainty r = 0.000070, k = 17.530354
         2        22     1        0.101461   418389.938379    ;  uncertainty r = 0.000048, k = 3.146921
         3         4     1        0.143824   258571.761816    ;  uncertainty r = 0.000053, k = 11.023801
         3        13     1        0.140665   381993.607373    ;  uncertainty r = 0.000070, k = 11.394395
         3        14     1        0.142348   461207.294629    ;  uncertainty r = 0.000096, k = 14.032514
         4         5     1        0.137935   423809.653564    ;  uncertainty r = 0.000038, k = 9.196482
         4        23     1        0.108159   338654.017236    ;  uncertainty r = 0.000049, k = 1.387686
         5        21     1        0.149400   249720.523096    ;  uncertainty r = 0.000052, k = 7.017445
         6        15     1        0.150613   262921.523193    ;  uncertainty r = 0.000031, k = 4.130415
         6        24     1        0.109388   311699.266309    ;  uncertainty r = 0.000011, k = 2.209894
         6        25     1        0.109388   311699.266309    ;  uncertainty r = 0.000011, k = 2.209894
         6        26     1        0.109388   311699.266309    ;  uncertainty r = 0.000011, k = 2.209894
         7         9     1        0.139735   350073.191064    ;  uncertainty r = 0.000069, k = 4.144877
         7        11     1        0.139705   323390.435889    ;  uncertainty r = 0.000027, k = 8.111379
         7        13     1        0.148260   294664.584277    ;  uncertainty r = 0.000168, k = 10.650760
         8        11     1        0.139372   358825.064893    ;  uncertainty r = 0.000070, k = 5.253291
         8        12     1        0.139047   363992.422363    ;  uncertainty r = 0.000043, k = 1.798210
         8        27     1        0.108639   335863.500684    ;  uncertainty r = 0.000024, k = 1.681150
         9        10     1        0.139396   350257.262549    ;  uncertainty r = 0.000042, k = 3.783835
         9        28     1        0.108657   337664.581934    ;  uncertainty r = 0.000055, k = 2.064159
        10        12     1        0.140093   348142.049316    ;  uncertainty r = 0.000031, k = 2.825288
        10        18     1        0.136027   316431.548047    ;  uncertainty r = 0.000024, k = 4.257478
        11        19     1        0.175205   190382.048853    ;  uncertainty r = 0.000072, k = 2.957322
        12        20     1        0.174750   191921.936548    ;  uncertainty r = 0.000074, k = 4.809387
        13        17     1        0.134478   386098.467871    ;  uncertainty r = 0.000186, k = 3.373082
        15        17     1        0.135329   459771.189746    ;  uncertainty r = 0.000075, k = 12.367919
        16        18     1        0.142571   249932.915234    ;  uncertainty r = 0.000015, k = 3.432874
        16        29     1        0.109538   311091.125586    ;  uncertainty r = 0.000018, k = 1.051825
        16        30     1        0.109538   311091.125586    ;  uncertainty r = 0.000018, k = 1.051825
        16        31     1        0.109538   311091.125586    ;  uncertainty r = 0.000018, k = 1.051825
        21        32     1        0.109551   310309.536816    ;  uncertainty r = 0.000012, k = 1.848577
        21        33     1        0.109551   310309.536816    ;  uncertainty r = 0.000012, k = 1.848577
        21        34     1        0.109551   310309.536816    ;  uncertainty r = 0.000012, k = 1.848577

[ angles ]
;       ai        aj        ak funct           theta             cth
         1        14         2     1      128.110107      499.155650    ;  uncertainty theta = 0.002849, k = 0.134199
         1        14         3     1      125.401268      565.218332    ;  uncertainty theta = 0.001906, k = 0.150550
         1        15         6     1      118.669029      462.689583    ;  uncertainty theta = 0.002019, k = 0.220024
         1        15        17     1      126.225266      802.863735    ;  uncertainty theta = 0.002327, k = 0.169132
         2         5         4     1      110.484985      697.447505    ;  uncertainty theta = 0.001489, k = 0.093043
         2         5        21     1      120.303543      424.005906    ;  uncertainty theta = 0.003964, k = 0.183831
         2        14         3     1      108.714310      637.910991    ;  uncertainty theta = 0.001617, k = 0.112830
         3         4         5     1      106.961266      811.065106    ;  uncertainty theta = 0.002505, k = 0.026622
         3         4        23     1      124.545570      249.937643    ;  uncertainty theta = 0.003490, k = 0.077801
         3        13         7     1      122.174637      367.554658    ;  uncertainty theta = 0.004104, k = 0.181178
         3        13        17     1      120.749008      634.723321    ;  uncertainty theta = 0.003517, k = 0.251235
         4         3        13     1      132.587250      344.714969    ;  uncertainty theta = 0.003455, k = 0.258746
         4         3        14     1      107.356628      694.168924    ;  uncertainty theta = 0.003557, k = 0.141518
         4         5        21     1      131.050842      341.924050    ;  uncertainty theta = 0.004648, k = 0.232559
         5         2        14     1      104.992493      859.901571    ;  uncertainty theta = 0.002864, k = 0.154812
         5         2        22     1      116.213234      279.791338    ;  uncertainty theta = 0.004433, k = 0.080960
         5         4        23     1      122.801369      248.624876    ;  uncertainty theta = 0.003048, k = 0.126864
         5        21        32     1      109.522705      407.015365    ;  uncertainty theta = 0.000738, k = 0.044296
         5        21        33     1      109.522705      407.015365    ;  uncertainty theta = 0.000738, k = 0.044296
         5        21        34     1      109.522705      407.015365    ;  uncertainty theta = 0.000738, k = 0.044296
         6        15        17     1      118.505081      471.580424    ;  uncertainty theta = 0.001257, k = 0.279714
         7         9        10     1      124.082664      495.156570    ;  uncertainty theta = 0.003588, k = 0.146574
         7         9        28     1      118.251503      266.709618    ;  uncertainty theta = 0.003466, k = 0.036179
         7        11         8     1      123.800247      374.111789    ;  uncertainty theta = 0.003190, k = 0.179668
         7        11        19     1      118.274033      413.276873    ;  uncertainty theta = 0.001445, k = 0.095952
         7        13        17     1      118.390259      456.127408    ;  uncertainty theta = 0.002833, k = 0.155690
         8        11        19     1      119.085228      446.648703    ;  uncertainty theta = 0.002071, k = 0.106371
         8        12        10     1      121.501175      353.154250    ;  uncertainty theta = 0.002433, k = 0.195299
         8        12        20     1      120.459961      452.128999    ;  uncertainty theta = 0.001274, k = 0.141642
         9         7        11     1      120.846703      417.024507    ;  uncertainty theta = 0.003517, k = 0.217013
         9         7        13     1      118.669228      389.367403    ;  uncertainty theta = 0.004003, k = 0.144677
         9        10        12     1      120.902573      365.213958    ;  uncertainty theta = 0.003018, k = 0.170113
         9        10        18     1      120.189964      431.211042    ;  uncertainty theta = 0.003028, k = 0.111724
        10         9        28     1      117.825455      268.979947    ;  uncertainty theta = 0.002672, k = 0.093872
        10        12        20     1      118.634056      418.836365    ;  uncertainty theta = 0.000762, k = 0.093560
        10        18        16     1      110.262283      495.977078    ;  uncertainty theta = 0.001418, k = 0.043039
        11         7        13     1      120.699913      383.820392    ;  uncertainty theta = 0.004676, k = 0.179575
        11         8        12     1      120.770584      483.562180    ;  uncertainty theta = 0.001505, k = 0.051061
        11         8        27     1      121.148056      281.654078    ;  uncertainty theta = 0.001355, k = 0.059808
        12         8        27     1      120.726456      279.438096    ;  uncertainty theta = 0.002115, k = 0.024758
        12        10        18     1      118.643044      401.650338    ;  uncertainty theta = 0.004738, k = 0.175701
        13         3        14     1      114.889664      380.592373    ;  uncertainty theta = 0.005206, k = 0.622696
        13        17        15     1      120.053734      406.231695    ;  uncertainty theta = 0.006257, k = 0.258839
        14         1        15     1      110.301453      446.774538    ;  uncertainty theta = 0.004317, k = 0.127926
        14         2        22     1      118.865990      325.878734    ;  uncertainty theta = 0.003254, k = 0.076704
        15         6        24     1      108.763405      392.028274    ;  uncertainty theta = 0.001366, k = 0.025646
        15         6        25     1      108.763405      392.028274    ;  uncertainty theta = 0.001366, k = 0.025646
        15         6        26     1      108.763405      392.028274    ;  uncertainty theta = 0.001366, k = 0.025646
        18        16        29     1      108.817017      444.786378    ;  uncertainty theta = 0.001502, k = 0.019460
        18        16        30     1      108.817017      444.786378    ;  uncertainty theta = 0.001502, k = 0.019460
        18        16        31     1      108.817017      444.786378    ;  uncertainty theta = 0.001502, k = 0.019460
        24         6        25     1      107.320633      312.556885    ;  uncertainty theta = 0.001808, k = 0.035510
        24         6        26     1      107.320633      312.556885    ;  uncertainty theta = 0.001808, k = 0.035510
        25         6        26     1      107.320633      312.556885    ;  uncertainty theta = 0.001808, k = 0.035510
        29        16        30     1      109.133141      330.810013    ;  uncertainty theta = 0.001542, k = 0.011144
        29        16        31     1      109.133141      330.810013    ;  uncertainty theta = 0.001542, k = 0.011144
        30        16        31     1      109.133141      330.810013    ;  uncertainty theta = 0.001542, k = 0.011144
        32        21        33     1      106.712074      313.073980    ;  uncertainty theta = 0.000772, k = 0.021406
        32        21        34     1      106.712074      313.073980    ;  uncertainty theta = 0.000772, k = 0.021406
        33        21        34     1      106.712074      313.073980    ;  uncertainty theta = 0.000772, k = 0.021406

[ dihedrals ] ; propers for gromacs 4.5 or higher, use funct 9
;       ai        aj        ak        al funct           phase               k        pn
         1        14         2         5     9        0.000000       -0.352237         1    ;  uncertainty k = 0.990122
         1        14         2         5     9      180.000000        8.400949         2    ;  uncertainty k = 0.565565
         1        14         2         5     9        0.000000       -0.610634         3    ;  uncertainty k = 1.044545
         1        14         2         5     9      180.000000        0.322382         4    ;  uncertainty k = 0.375355
         1        14         2        22     9        0.000000        4.532273         1    ;  uncertainty k = 1.526300
         1        14         2        22     9      180.000000        4.185681         2    ;  uncertainty k = 1.033386
         1        14         2        22     9        0.000000        1.519477         3    ;  uncertainty k = 0.587659
         1        14         2        22     9      180.000000        0.102081         4    ;  uncertainty k = 0.130401
         1        14         3         4     9        0.000000       -0.268105         1    ;  uncertainty k = 0.737771
         1        14         3         4     9      180.000000        9.064930         2    ;  uncertainty k = 0.676145
         1        14         3         4     9        0.000000       -1.189444         3    ;  uncertainty k = 0.910770
         1        14         3         4     9      180.000000        1.358954         4    ;  uncertainty k = 0.491456
         1        14         3        13     9        0.000000       -0.283472         1    ;  uncertainty k = 0.719154
         1        14         3        13     9      180.000000        8.733018         2    ;  uncertainty k = 0.456626
         1        14         3        13     9        0.000000       -0.554546         3    ;  uncertainty k = 0.375585
         1        14         3        13     9      180.000000        1.276413         4    ;  uncertainty k = 0.288104
         1        15         6        24     9        0.000000        0.439150         1    ;  uncertainty k = 0.382281
         1        15         6        24     9      180.000000        3.562111         2    ;  uncertainty k = 0.087321
         1        15         6        24     9        0.000000        0.455826         3    ;  uncertainty k = 0.082228
         1        15         6        24     9      180.000000        0.226166         4    ;  uncertainty k = 0.029997
         1        15         6        25     9        0.000000        0.439150         1    ;  uncertainty k = 0.382281
         1        15         6        25     9      180.000000        3.562111         2    ;  uncertainty k = 0.087321
         1        15         6        25     9        0.000000        0.455826         3    ;  uncertainty k = 0.082228
         1        15         6        25     9      180.000000        0.226166         4    ;  uncertainty k = 0.029997
         1        15         6        26     9        0.000000        0.439150         1    ;  uncertainty k = 0.382281
         1        15         6        26     9      180.000000        3.562111         2    ;  uncertainty k = 0.087321
         1        15         6        26     9        0.000000        0.455826         3    ;  uncertainty k = 0.082228
         1        15         6        26     9      180.000000        0.226166         4    ;  uncertainty k = 0.029997
         1        15        17        13     9        0.000000       -1.017608         1    ;  uncertainty k = 0.507527
         1        15        17        13     9      180.000000       11.669002         2    ;  uncertainty k = 0.194886
         1        15        17        13     9        0.000000        0.896290         3    ;  uncertainty k = 0.540254
         1        15        17        13     9      180.000000        1.128873         4    ;  uncertainty k = 0.222897
         2         5         4         3     9        0.000000        0.234470         1    ;  uncertainty k = 0.297048
         2         5         4         3     9      180.000000       22.391602         2    ;  uncertainty k = 0.429828
         2         5         4         3     9        0.000000       -5.591910         3    ;  uncertainty k = 0.963814
         2         5         4         3     9      180.000000        1.195203         4    ;  uncertainty k = 0.542154
         2         5         4        23     9        0.000000        0.399857         1    ;  uncertainty k = 0.694122
         2         5         4        23     9      180.000000       14.134341         2    ;  uncertainty k = 0.200555
         2         5         4        23     9        0.000000        1.750503         3    ;  uncertainty k = 0.491616
         2         5         4        23     9      180.000000        0.762040         4    ;  uncertainty k = 0.190894
         2         5        21        32     9        0.000000       -0.606407         1    ;  uncertainty k = 0.473550
         2         5        21        32     9      180.000000       -0.073307         2    ;  uncertainty k = 0.174269
         2         5        21        32     9        0.000000        0.882460         3    ;  uncertainty k = 0.066144
         2         5        21        32     9      180.000000        0.189241         4    ;  uncertainty k = 0.054196
         2         5        21        33     9        0.000000       -0.606407         1    ;  uncertainty k = 0.473550
         2         5        21        33     9      180.000000       -0.073307         2    ;  uncertainty k = 0.174269
         2         5        21        33     9        0.000000        0.882460         3    ;  uncertainty k = 0.066144
         2         5        21        33     9      180.000000        0.189241         4    ;  uncertainty k = 0.054196
         2         5        21        34     9        0.000000       -0.606407         1    ;  uncertainty k = 0.473550
         2         5        21        34     9      180.000000       -0.073307         2    ;  uncertainty k = 0.174269
         2         5        21        34     9        0.000000        0.882460         3    ;  uncertainty k = 0.066144
         2         5        21        34     9      180.000000        0.189241         4    ;  uncertainty k = 0.054196
         2        14         1        15     9        0.000000       -0.407423         1    ;  uncertainty k = 0.737794
         2        14         1        15     9      180.000000       17.394319         2    ;  uncertainty k = 0.399009
         2        14         1        15     9        0.000000        1.414267         3    ;  uncertainty k = 0.444931
         2        14         1        15     9      180.000000        1.210082         4    ;  uncertainty k = 0.468213
         2        14         3         4     9        0.000000       -0.275373         1    ;  uncertainty k = 0.632912
         2        14         3         4     9      180.000000       11.288059         2    ;  uncertainty k = 0.766125
         2        14         3         4     9        0.000000       -3.749798         3    ;  uncertainty k = 1.057539
         2        14         3         4     9      180.000000        1.535548         4    ;  uncertainty k = 0.782912
         2        14         3        13     9        0.000000       -0.169862         1    ;  uncertainty k = 0.664253
         2        14         3        13     9      180.000000        7.065152         2    ;  uncertainty k = 0.681700
         2        14         3        13     9        0.000000       -0.872667         3    ;  uncertainty k = 0.766619
         2        14         3        13     9      180.000000        1.149837         4    ;  uncertainty k = 0.518596
         3         4         5        21     9        0.000000        0.189356         1    ;  uncertainty k = 0.489603
         3         4         5        21     9      180.000000       14.526847         2    ;  uncertainty k = 0.701562
         3         4         5        21     9        0.000000        2.074171         3    ;  uncertainty k = 0.712393
         3         4         5        21     9      180.000000        1.059878         4    ;  uncertainty k = 0.357856
         3        13         7         9     9        0.000000       -0.543073         1    ;  uncertainty k = 0.563629
         3        13         7         9     9      180.000000        4.428196         2    ;  uncertainty k = 0.276729
         3        13         7         9     9        0.000000        0.463176         3    ;  uncertainty k = 0.186503
         3        13         7         9     9      180.000000        0.260760         4    ;  uncertainty k = 0.125716
         3        13         7        11     9        0.000000       -0.472763         1    ;  uncertainty k = 1.193994
         3        13         7        11     9      180.000000        3.576740         2    ;  uncertainty k = 0.629852
         3        13         7        11     9        0.000000        0.492226         3    ;  uncertainty k = 0.418260
         3        13         7        11     9      180.000000        0.199887         4    ;  uncertainty k = 0.182160
         3        13        17        15     9        0.000000       -0.203417         1    ;  uncertainty k = 0.514336
         3        13        17        15     9      180.000000       15.649468         2    ;  uncertainty k = 0.432689
         3        13        17        15     9        0.000000        0.625605         3    ;  uncertainty k = 0.509784
         3        13        17        15     9      180.000000        1.495309         4    ;  uncertainty k = 0.376873
         3        14         1        15     9        0.000000       -0.145895         1    ;  uncertainty k = 0.622995
         3        14         1        15     9      180.000000       13.305014         2    ;  uncertainty k = 0.538796
         3        14         1        15     9        0.000000       -0.410450         3    ;  uncertainty k = 0.238054
         3        14         1        15     9      180.000000        0.934482         4    ;  uncertainty k = 0.220919
         3        14         2         5     9        0.000000        0.544879         1    ;  uncertainty k = 0.762658
         3        14         2         5     9      180.000000       15.094848         2    ;  uncertainty k = 0.810172
         3        14         2         5     9        0.000000       -7.669118         3    ;  uncertainty k = 1.704031
         3        14         2         5     9      180.000000        0.615633         4    ;  uncertainty k = 0.217080
         3        14         2        22     9        0.000000        4.749869         1    ;  uncertainty k = 1.686560
         3        14         2        22     9      180.000000        6.772890         2    ;  uncertainty k = 0.828918
         3        14         2        22     9        0.000000        1.151387         3    ;  uncertainty k = 0.281583
         3        14         2        22     9      180.000000        0.118177         4    ;  uncertainty k = 0.243941
         4         3        13         7     9        0.000000        0.216219         1    ;  uncertainty k = 0.987834
         4         3        13         7     9      180.000000        5.661629         2    ;  uncertainty k = 0.593325
         4         3        13         7     9        0.000000        1.144135         3    ;  uncertainty k = 0.385056
         4         3        13         7     9      180.000000        0.833139         4    ;  uncertainty k = 0.249560
         4         3        13        17     9        0.000000       -0.492381         1    ;  uncertainty k = 0.672651
         4         3        13        17     9      180.000000        8.275936         2    ;  uncertainty k = 1.091860
         4         3        13        17     9        0.000000        0.242474         3    ;  uncertainty k = 0.456586
         4         3        13        17     9      180.000000        1.020064         4    ;  uncertainty k = 0.378277
         4         5         2        14     9        0.000000       -0.347422         1    ;  uncertainty k = 0.619798
         4         5         2        14     9      180.000000       13.961409         2    ;  uncertainty k = 0.338906
         4         5         2        14     9        0.000000       -6.524794         3    ;  uncertainty k = 1.053943
         4         5         2        14     9      180.000000        1.007603         4    ;  uncertainty k = 0.383816
         4         5         2        22     9        0.000000        2.178253         1    ;  uncertainty k = 1.254861
         4         5         2        22     9      180.000000        8.043603         2    ;  uncertainty k = 0.704340
         4         5         2        22     9        0.000000        1.705875         3    ;  uncertainty k = 0.725711
         4         5         2        22     9      180.000000       -0.130431         4    ;  uncertainty k = 0.215062
         4         5        21        32     9        0.000000        0.805644         1    ;  uncertainty k = 0.312993
         4         5        21        32     9      180.000000        0.587717         2    ;  uncertainty k = 0.408744
         4         5        21        32     9        0.000000        0.010127         3    ;  uncertainty k = 0.067916
         4         5        21        32     9      180.000000        0.054365         4    ;  uncertainty k = 0.024215
         4         5        21        33     9        0.000000        0.805644         1    ;  uncertainty k = 0.312993
         4         5        21        33     9      180.000000        0.587717         2    ;  uncertainty k = 0.408744
         4         5        21        33     9        0.000000        0.010127         3    ;  uncertainty k = 0.067916
         4         5        21        33     9      180.000000        0.054365         4    ;  uncertainty k = 0.024215
         4         5        21        34     9        0.000000        0.805644         1    ;  uncertainty k = 0.312993
         4         5        21        34     9      180.000000        0.587717         2    ;  uncertainty k = 0.408744
         4         5        21        34     9        0.000000        0.010127         3    ;  uncertainty k = 0.067916
         4         5        21        34     9      180.000000        0.054365         4    ;  uncertainty k = 0.024215
         5         4         3        13     9        0.000000        0.618386         1    ;  uncertainty k = 0.741906
         5         4         3        13     9      180.000000        5.883269         2    ;  uncertainty k = 1.163937
         5         4         3        13     9        0.000000       -0.185629         3    ;  uncertainty k = 0.555512
         5         4         3        13     9      180.000000        0.952931         4    ;  uncertainty k = 0.264771
         5         4         3        14     9        0.000000        0.765226         1    ;  uncertainty k = 0.864576
         5         4         3        14     9      180.000000       12.826498         2    ;  uncertainty k = 0.985604
         5         4         3        14     9        0.000000      -11.448791         3    ;  uncertainty k = 2.205206
         5         4         3        14     9      180.000000        1.813464         4    ;  uncertainty k = 0.665318
         6        15         1        14     9        0.000000        0.707825         1    ;  uncertainty k = 1.140771
         6        15         1        14     9      180.000000       14.926041         2    ;  uncertainty k = 0.457493
         6        15         1        14     9        0.000000        2.455025         3    ;  uncertainty k = 0.270111
         6        15         1        14     9      180.000000        1.357419         4    ;  uncertainty k = 0.342252
         6        15        17        13     9        0.000000        0.374701         1    ;  uncertainty k = 0.586173
         6        15        17        13     9      180.000000       10.480361         2    ;  uncertainty k = 0.250387
         6        15        17        13     9        0.000000        1.891245         3    ;  uncertainty k = 0.474717
         6        15        17        13     9      180.000000        1.305197         4    ;  uncertainty k = 0.284248
         7         9        10        12     9        0.000000        0.088123         1    ;  uncertainty k = 0.319298
         7         9        10        12     9      180.000000        7.272511         2    ;  uncertainty k = 0.799669
         7         9        10        12     9        0.000000        0.581948         3    ;  uncertainty k = 0.280109
         7         9        10        12     9      180.000000        1.524354         4    ;  uncertainty k = 0.322152
         7         9        10        18     9        0.000000        0.027382         1    ;  uncertainty k = 0.221442
         7         9        10        18     9      180.000000       10.917144         2    ;  uncertainty k = 0.192013
         7         9        10        18     9        0.000000        1.127178         3    ;  uncertainty k = 0.205200
         7         9        10        18     9      180.000000        1.674211         4    ;  uncertainty k = 0.121002
         7        11         8        12     9        0.000000       -0.008724         1    ;  uncertainty k = 0.299067
         7        11         8        12     9      180.000000        8.889404         2    ;  uncertainty k = 0.500740
         7        11         8        12     9        0.000000        0.141642         3    ;  uncertainty k = 0.359916
         7        11         8        12     9      180.000000        1.317894         4    ;  uncertainty k = 0.299381
         7        11         8        27     9        0.000000        0.024903         1    ;  uncertainty k = 0.174669
         7        11         8        27     9      180.000000        5.813912         2    ;  uncertainty k = 0.719118
         7        11         8        27     9        0.000000        1.354126         3    ;  uncertainty k = 0.305145
         7        11         8        27     9      180.000000        1.629262         4    ;  uncertainty k = 0.208487
         7        13         3        14     9        0.000000        0.199662         1    ;  uncertainty k = 0.863323
         7        13         3        14     9      180.000000        7.661507         2    ;  uncertainty k = 0.451741
         7        13         3        14     9        0.000000        0.637315         3    ;  uncertainty k = 0.302284
         7        13         3        14     9      180.000000        0.949848         4    ;  uncertainty k = 0.284462
         7        13        17        15     9        0.000000       -0.396441         1    ;  uncertainty k = 0.564969
         7        13        17        15     9      180.000000       15.811900         2    ;  uncertainty k = 0.666425
         7        13        17        15     9        0.000000        2.221721         3    ;  uncertainty k = 0.462370
         7        13        17        15     9      180.000000        1.736670         4    ;  uncertainty k = 0.308211
         8        11         7         9     9        0.000000       -0.175002         1    ;  uncertainty k = 0.485150
         8        11         7         9     9      180.000000        7.641018         2    ;  uncertainty k = 0.751944
         8        11         7         9     9        0.000000        0.049923         3    ;  uncertainty k = 0.404497
         8        11         7         9     9      180.000000        1.246993         4    ;  uncertainty k = 0.306176
         8        11         7        13     9        0.000000        0.029584         1    ;  uncertainty k = 0.547202
         8        11         7        13     9      180.000000        6.330890         2    ;  uncertainty k = 0.575704
         8        11         7        13     9        0.000000        1.354659         3    ;  uncertainty k = 0.312660
         8        11         7        13     9      180.000000        1.764703         4    ;  uncertainty k = 0.161794
         8        12        10         9     9        0.000000       -0.160112         1    ;  uncertainty k = 0.365456
         8        12        10         9     9      180.000000        5.802140         2    ;  uncertainty k = 0.973452
         8        12        10         9     9        0.000000        0.439924         3    ;  uncertainty k = 0.180992
         8        12        10         9     9      180.000000        1.284193         4    ;  uncertainty k = 0.381519
         8        12        10        18     9        0.000000        0.168677         1    ;  uncertainty k = 0.147161
         8        12        10        18     9      180.000000        7.998622         2    ;  uncertainty k = 0.496512
         8        12        10        18     9        0.000000        1.217222         3    ;  uncertainty k = 0.240785
         8        12        10        18     9      180.000000        1.684817         4    ;  uncertainty k = 0.129999
         9         7        11        19     9        0.000000       -0.001121         1    ;  uncertainty k = 0.270692
         9         7        11        19     9      180.000000        7.847289         2    ;  uncertainty k = 0.360414
         9         7        11        19     9        0.000000        1.340150         3    ;  uncertainty k = 0.339645
         9         7        11        19     9      180.000000        1.525334         4    ;  uncertainty k = 0.153002
         9         7        13        17     9        0.000000        1.704289         1    ;  uncertainty k = 0.938333
         9         7        13        17     9      180.000000        5.910989         2    ;  uncertainty k = 0.140271
         9         7        13        17     9        0.000000        0.474332         3    ;  uncertainty k = 0.232886
         9         7        13        17     9      180.000000        0.350007         4    ;  uncertainty k = 0.118066
         9        10        12        20     9        0.000000        0.246617         1    ;  uncertainty k = 0.379115
         9        10        12        20     9      180.000000        6.909539         2    ;  uncertainty k = 0.691172
         9        10        12        20     9        0.000000        1.419799         3    ;  uncertainty k = 0.301860
         9        10        12        20     9      180.000000        1.464056         4    ;  uncertainty k = 0.209372
         9        10        18        16     9        0.000000       -0.042244         1    ;  uncertainty k = 0.307327
         9        10        18        16     9      180.000000        6.518517         2    ;  uncertainty k = 0.219686
         9        10        18        16     9        0.000000       -0.371907         3    ;  uncertainty k = 0.148397
         9        10        18        16     9      180.000000        0.073097         4    ;  uncertainty k = 0.099372
        10         9         7        11     9        0.000000        0.075227         1    ;  uncertainty k = 0.208547
        10         9         7        11     9      180.000000        9.885681         2    ;  uncertainty k = 0.541741
        10         9         7        11     9        0.000000        0.167372         3    ;  uncertainty k = 0.216013
        10         9         7        11     9      180.000000        1.293698         4    ;  uncertainty k = 0.338682
        10         9         7        13     9        0.000000        0.092399         1    ;  uncertainty k = 0.150507
        10         9         7        13     9      180.000000        8.270687         2    ;  uncertainty k = 0.460465
        10         9         7        13     9        0.000000        1.431328         3    ;  uncertainty k = 0.347297
        10         9         7        13     9      180.000000        1.877044         4    ;  uncertainty k = 0.172295
        10        12         8        11     9        0.000000       -0.051246         1    ;  uncertainty k = 0.265356
        10        12         8        11     9      180.000000        8.906679         2    ;  uncertainty k = 0.444345
        10        12         8        11     9        0.000000        0.373666         3    ;  uncertainty k = 0.412984
        10        12         8        11     9      180.000000        1.383742         4    ;  uncertainty k = 0.241518
        10        12         8        27     9        0.000000        0.026970         1    ;  uncertainty k = 0.201681
        10        12         8        27     9      180.000000        6.665757         2    ;  uncertainty k = 0.606409
        10        12         8        27     9        0.000000        1.325554         3    ;  uncertainty k = 0.393768
        10        12         8        27     9      180.000000        1.580156         4    ;  uncertainty k = 0.149897
        10        18        16        29     9        0.000000        1.124364         1    ;  uncertainty k = 0.199625
        10        18        16        29     9      180.000000       -2.017544         2    ;  uncertainty k = 0.263863
        10        18        16        29     9        0.000000        1.022273         3    ;  uncertainty k = 0.022119
        10        18        16        29     9      180.000000        0.258390         4    ;  uncertainty k = 0.036975
        10        18        16        30     9        0.000000        1.124364         1    ;  uncertainty k = 0.199625
        10        18        16        30     9      180.000000       -2.017544         2    ;  uncertainty k = 0.263863
        10        18        16        30     9        0.000000        1.022273         3    ;  uncertainty k = 0.022119
        10        18        16        30     9      180.000000        0.258390         4    ;  uncertainty k = 0.036975
        10        18        16        31     9        0.000000        1.124364         1    ;  uncertainty k = 0.199625
        10        18        16        31     9      180.000000       -2.017544         2    ;  uncertainty k = 0.263863
        10        18        16        31     9        0.000000        1.022273         3    ;  uncertainty k = 0.022119
        10        18        16        31     9      180.000000        0.258390         4    ;  uncertainty k = 0.036975
        11         7         9        28     9        0.000000        0.197172         1    ;  uncertainty k = 0.166637
        11         7         9        28     9      180.000000        7.285720         2    ;  uncertainty k = 0.256649
        11         7         9        28     9        0.000000        1.352908         3    ;  uncertainty k = 0.344157
        11         7         9        28     9      180.000000        1.651023         4    ;  uncertainty k = 0.091833
        11         7        13        17     9        0.000000        1.006785         1    ;  uncertainty k = 0.694639
        11         7        13        17     9      180.000000        5.010387         2    ;  uncertainty k = 0.294906
        11         7        13        17     9        0.000000        0.941963         3    ;  uncertainty k = 0.230990
        11         7        13        17     9      180.000000        0.297410         4    ;  uncertainty k = 0.068028
        11         8        12        20     9        0.000000       -0.011355         1    ;  uncertainty k = 0.190662
        11         8        12        20     9      180.000000        9.747868         2    ;  uncertainty k = 0.618011
        11         8        12        20     9        0.000000        1.512293         3    ;  uncertainty k = 0.404646
        11         8        12        20     9      180.000000        1.724437         4    ;  uncertainty k = 0.192266
        12         8        11        19     9        0.000000        0.060056         1    ;  uncertainty k = 0.110838
        12         8        11        19     9      180.000000        9.377505         2    ;  uncertainty k = 0.372753
        12         8        11        19     9        0.000000        1.351015         3    ;  uncertainty k = 0.364493
        12         8        11        19     9      180.000000        1.708250         4    ;  uncertainty k = 0.122914
        12        10         9        28     9        0.000000        0.252864         1    ;  uncertainty k = 0.226630
        12        10         9        28     9      180.000000        5.954042         2    ;  uncertainty k = 0.292010
        12        10         9        28     9        0.000000        1.494457         3    ;  uncertainty k = 0.316005
        12        10         9        28     9      180.000000        1.825252         4    ;  uncertainty k = 0.132671
        12        10        18        16     9        0.000000        2.249741         1    ;  uncertainty k = 0.466203
        12        10        18        16     9      180.000000        5.839435         2    ;  uncertainty k = 0.118861
        12        10        18        16     9        0.000000        1.185093         3    ;  uncertainty k = 0.203567
        12        10        18        16     9      180.000000        0.095406         4    ;  uncertainty k = 0.053427
        13         3         4        23     9        0.000000        0.723159         1    ;  uncertainty k = 1.432285
        13         3         4        23     9      180.000000        3.218124         2    ;  uncertainty k = 0.597045
        13         3         4        23     9        0.000000        1.188860         3    ;  uncertainty k = 0.233390
        13         3         4        23     9      180.000000        0.018904         4    ;  uncertainty k = 0.163857
        13         7         9        28     9        0.000000       -0.131481         1    ;  uncertainty k = 0.165595
        13         7         9        28     9      180.000000        7.918004         2    ;  uncertainty k = 0.258983
        13         7         9        28     9        0.000000        0.714768         3    ;  uncertainty k = 0.310568
        13         7         9        28     9      180.000000        1.317926         4    ;  uncertainty k = 0.068601
        13         7        11        19     9        0.000000       -0.334294         1    ;  uncertainty k = 0.588203
        13         7        11        19     9      180.000000        7.806678         2    ;  uncertainty k = 0.379164
        13         7        11        19     9        0.000000        1.183110         3    ;  uncertainty k = 0.267956
        13         7        11        19     9      180.000000        1.405420         4    ;  uncertainty k = 0.230322
        14         1        15        17     9        0.000000       -0.416136         1    ;  uncertainty k = 0.648385
        14         1        15        17     9      180.000000       16.651889         2    ;  uncertainty k = 0.185409
        14         1        15        17     9        0.000000        1.277288         3    ;  uncertainty k = 0.195904
        14         1        15        17     9      180.000000        1.200984         4    ;  uncertainty k = 0.137819
        14         2         5        21     9        0.000000        0.908920         1    ;  uncertainty k = 0.749113
        14         2         5        21     9      180.000000        8.541320         2    ;  uncertainty k = 0.314433
        14         2         5        21     9        0.000000        1.586569         3    ;  uncertainty k = 0.095801
        14         2         5        21     9      180.000000        0.036448         4    ;  uncertainty k = 0.098189
        14         3         4        23     9        0.000000       -0.097958         1    ;  uncertainty k = 1.108724
        14         3         4        23     9      180.000000        8.393438         2    ;  uncertainty k = 0.524132
        14         3         4        23     9        0.000000        1.071895         3    ;  uncertainty k = 0.419003
        14         3         4        23     9      180.000000        0.222287         4    ;  uncertainty k = 0.202762
        14         3        13        17     9        0.000000       -0.680643         1    ;  uncertainty k = 0.744748
        14         3        13        17     9      180.000000       12.229468         2    ;  uncertainty k = 0.399911
        14         3        13        17     9        0.000000       -1.648352         3    ;  uncertainty k = 0.557645
        14         3        13        17     9      180.000000        0.774677         4    ;  uncertainty k = 0.227617
        17        15         6        24     9        0.000000        0.284757         1    ;  uncertainty k = 0.208978
        17        15         6        24     9      180.000000        3.677336         2    ;  uncertainty k = 0.141145
        17        15         6        24     9        0.000000        0.512225         3    ;  uncertainty k = 0.037722
        17        15         6        24     9      180.000000        0.249918         4    ;  uncertainty k = 0.038176
        17        15         6        25     9        0.000000        0.284757         1    ;  uncertainty k = 0.208978
        17        15         6        25     9      180.000000        3.677336         2    ;  uncertainty k = 0.141145
        17        15         6        25     9        0.000000        0.512225         3    ;  uncertainty k = 0.037722
        17        15         6        25     9      180.000000        0.249918         4    ;  uncertainty k = 0.038176
        17        15         6        26     9        0.000000        0.284757         1    ;  uncertainty k = 0.208978
        17        15         6        26     9      180.000000        3.677336         2    ;  uncertainty k = 0.141145
        17        15         6        26     9        0.000000        0.512225         3    ;  uncertainty k = 0.037722
        17        15         6        26     9      180.000000        0.249918         4    ;  uncertainty k = 0.038176
        18        10         9        28     9        0.000000        0.005613         1    ;  uncertainty k = 0.270060
        18        10         9        28     9      180.000000        9.115472         2    ;  uncertainty k = 0.424603
        18        10         9        28     9        0.000000        0.801237         3    ;  uncertainty k = 0.159315
        18        10         9        28     9      180.000000        1.345057         4    ;  uncertainty k = 0.285009
        18        10        12        20     9        0.000000       -0.208518         1    ;  uncertainty k = 0.727865
        18        10        12        20     9      180.000000        9.554306         2    ;  uncertainty k = 0.396275
        18        10        12        20     9        0.000000        0.864518         3    ;  uncertainty k = 0.255533
        18        10        12        20     9      180.000000        1.371781         4    ;  uncertainty k = 0.179734
        19        11         8        27     9        0.000000       -0.133254         1    ;  uncertainty k = 0.421231
        19        11         8        27     9      180.000000        7.579307         2    ;  uncertainty k = 0.497753
        19        11         8        27     9        0.000000        0.609942         3    ;  uncertainty k = 0.285419
        19        11         8        27     9      180.000000        1.137636         4    ;  uncertainty k = 0.276633
        20        12         8        27     9        0.000000       -0.204169         1    ;  uncertainty k = 0.240359
        20        12         8        27     9      180.000000        7.600901         2    ;  uncertainty k = 0.534725
        20        12         8        27     9        0.000000        0.578093         3    ;  uncertainty k = 0.285093
        20        12         8        27     9      180.000000        1.053978         4    ;  uncertainty k = 0.242327
        21         5         2        22     9        0.000000        0.730196         1    ;  uncertainty k = 1.038300
        21         5         2        22     9      180.000000        1.551123         2    ;  uncertainty k = 0.712932
        21         5         2        22     9        0.000000        1.338763         3    ;  uncertainty k = 0.422053
        21         5         2        22     9      180.000000        0.175711         4    ;  uncertainty k = 0.207685
        21         5         4        23     9        0.000000        0.229173         1    ;  uncertainty k = 0.475648
        21         5         4        23     9      180.000000        7.551509         2    ;  uncertainty k = 0.563507
        21         5         4        23     9        0.000000        1.293014         3    ;  uncertainty k = 0.254851
        21         5         4        23     9      180.000000        0.510266         4    ;  uncertainty k = 0.170059

[ dihedrals ] ; impropers
;       ai        aj        ak        al funct           phase               k        pn
         4         3         5        23     4      180.000000        0.333994         2    ;  uncertainty k = 0.746834
         4         5        23         3     4      180.000000        0.333994         2    ;  uncertainty k = 0.746834
         4        23         3         5     4      180.000000        0.333994         2    ;  uncertainty k = 0.746834
         5         2         4        21     4      180.000000        9.398655         2    ;  uncertainty k = 0.179291
         5         4        21         2     4      180.000000        9.398655         2    ;  uncertainty k = 0.179291
         5        21         2         4     4      180.000000        9.398655         2    ;  uncertainty k = 0.179291
         7         9        11        13     4      180.000000       12.634521         2    ;  uncertainty k = 0.182290
         7        11        13         9     4      180.000000       12.634521         2    ;  uncertainty k = 0.182290
         7        13         9        11     4      180.000000       12.634521         2    ;  uncertainty k = 0.182290
         8        11        12        27     4      180.000000        2.942476         2    ;  uncertainty k = 0.290343
         8        12        27        11     4      180.000000        2.942476         2    ;  uncertainty k = 0.290343
         8        27        11        12     4      180.000000        2.942476         2    ;  uncertainty k = 0.290343
         9         7        10        28     4      180.000000        2.716986         2    ;  uncertainty k = 0.104146
         9        10        28         7     4      180.000000        2.716986         2    ;  uncertainty k = 0.104146
         9        28         7        10     4      180.000000        2.716986         2    ;  uncertainty k = 0.104146
        10         9        12        18     4      180.000000       17.975412         2    ;  uncertainty k = 0.072472
        10        12        18         9     4      180.000000       17.975412         2    ;  uncertainty k = 0.072472
        10        18         9        12     4      180.000000       17.975412         2    ;  uncertainty k = 0.072472
        11         7         8        19     4      180.000000       13.647039         2    ;  uncertainty k = 0.063116
        11         8        19         7     4      180.000000       13.647039         2    ;  uncertainty k = 0.063116
        11        19         7         8     4      180.000000       13.647039         2    ;  uncertainty k = 0.063116
        12         8        10        20     4      180.000000       11.859023         2    ;  uncertainty k = 0.093671
        12        10        20         8     4      180.000000       11.859023         2    ;  uncertainty k = 0.093671
        12        20         8        10     4      180.000000       11.859023         2    ;  uncertainty k = 0.093671
        13         3         7        17     4      180.000000       26.780745         2    ;  uncertainty k = 0.065848
        13         7        17         3     4      180.000000       26.780745         2    ;  uncertainty k = 0.065848
        13        17         3         7     4      180.000000       26.780745         2    ;  uncertainty k = 0.065848
        14         1         2         3     4      180.000000       10.532202         2    ;  uncertainty k = 0.230686
        14         2         3         1     4      180.000000       10.532202         2    ;  uncertainty k = 0.230686
        14         3         1         2     4      180.000000       10.532202         2    ;  uncertainty k = 0.230686
        15         1         6        17     4      180.000000       36.051916         2    ;  uncertainty k = 0.029871
        15         6        17         1     4      180.000000       36.051916         2    ;  uncertainty k = 0.029871
        15        17         1         6     4      180.000000       36.051916         2    ;  uncertainty k = 0.029871

[ pairs ]
;       ai        aj funct
         1         4     1
         1         5     1
         1        13     1
         1        22     1
         1        24     1
         1        25     1
         1        26     1
         2        13     1
         2        15     1
         2        23     1
         2        32     1
         2        33     1
         2        34     1
         3         9     1
         3        11     1
         3        15     1
         3        21     1
         3        22     1
         4         7     1
         4        17     1
         4        22     1
         4        32     1
         4        33     1
         4        34     1
         5        13     1
         6        13     1
         6        14     1
         7        12     1
         7        14     1
         7        15     1
         7        18     1
         7        27     1
         8         9     1
         8        13     1
         8        18     1
         9        16     1
         9        17     1
         9        19     1
         9        20     1
        10        11     1
        10        13     1
        10        27     1
        10        29     1
        10        30     1
        10        31     1
        11        17     1
        11        20     1
        11        28     1
        12        16     1
        12        19     1
        12        28     1
        13        19     1
        13        23     1
        13        28     1
        14        17     1
        14        21     1
        14        23     1
        17        24     1
        17        25     1
        17        26     1
        18        20     1
        18        28     1
        19        27     1
        20        27     1
        21        22     1
        21        23     1
