; ITP file created by ByteFF-joint-25, 2026-03-13 02:28:47.102620

[ atomtypes ]
;name           bonded.type        at.num        mass        charge   ptype           sigma         epsilon
 n0bf                                   7      0.0000       0.00000       A     3.38428e-01     3.93468e-01    ;  uncertainty sigma = 0.000016, epsilon = 0.000989
 n1bf                                   7      0.0000       0.00000       A     3.38407e-01     3.92735e-01    ;  uncertainty sigma = 0.000053, epsilon = 0.003369
 n2bf                                   7      0.0000       0.00000       A     3.38455e-01     3.94069e-01    ;  uncertainty sigma = 0.000037, epsilon = 0.001900
 o3bf                                   8      0.0000       0.00000       A     3.24337e-01     3.89168e-01    ;  uncertainty sigma = 0.000025, epsilon = 0.000716
 c4bf                                   6      0.0000       0.00000       A     3.31537e-01     4.12760e-01    ;  uncertainty sigma = 0.000022, epsilon = 0.000736
 c5bf                                   6      0.0000       0.00000       A     3.31533e-01     4.13249e-01    ;  uncertainty sigma = 0.000011, epsilon = 0.001267
 c6bf                                   6      0.0000       0.00000       A     3.31521e-01     4.13498e-01    ;  uncertainty sigma = 0.000006, epsilon = 0.000695
 c7bf                                   6      0.0000       0.00000       A     3.31525e-01     4.13461e-01    ;  uncertainty sigma = 0.000004, epsilon = 0.000438
 c8bf                                   6      0.0000       0.00000       A     3.31511e-01     4.13114e-01    ;  uncertainty sigma = 0.000010, epsilon = 0.000419
 c9bf                                   6      0.0000       0.00000       A     3.31527e-01     4.13444e-01    ;  uncertainty sigma = 0.000013, epsilon = 0.000715
 c10bf                                  6      0.0000       0.00000       A     3.31532e-01     4.12995e-01    ;  uncertainty sigma = 0.000013, epsilon = 0.000358
 c11bf                                  6      0.0000       0.00000       A     3.31519e-01     4.13273e-01    ;  uncertainty sigma = 0.000006, epsilon = 0.000565
 c12bf                                  6      0.0000       0.00000       A     3.31560e-01     4.12606e-01    ;  uncertainty sigma = 0.000017, epsilon = 0.000283
 c13bf                                  6      0.0000       0.00000       A     3.31513e-01     4.12956e-01    ;  uncertainty sigma = 0.000024, epsilon = 0.001063
 c14bf                                  6      0.0000       0.00000       A     3.31617e-01     4.13665e-01    ;  uncertainty sigma = 0.000036, epsilon = 0.002057
 c15bf                                  6      0.0000       0.00000       A     3.31548e-01     4.13223e-01    ;  uncertainty sigma = 0.000011, epsilon = 0.001157
 c16bf                                  6      0.0000       0.00000       A     3.31632e-01     4.13143e-01    ;  uncertainty sigma = 0.000041, epsilon = 0.001232
 n17bf                                  7      0.0000       0.00000       A     2.58960e-01     1.06408e+01    ;  uncertainty sigma = 0.000075, epsilon = 0.009253
 n18bf                                  7      0.0000       0.00000       A     3.19117e-01     8.98122e-01    ;  uncertainty sigma = 0.000030, epsilon = 0.008817
 c19bf                                  6      0.0000       0.00000       A     3.39721e-01     4.51139e-01    ;  uncertainty sigma = 0.000024, epsilon = 0.002265
 c20bf                                  6      0.0000       0.00000       A     3.39721e-01     4.51139e-01    ;  uncertainty sigma = 0.000024, epsilon = 0.002265
 c21bf                                  6      0.0000       0.00000       A     3.39719e-01     4.50116e-01    ;  uncertainty sigma = 0.000018, epsilon = 0.001146
 c22bf                                  6      0.0000       0.00000       A     3.39764e-01     4.51773e-01    ;  uncertainty sigma = 0.000031, epsilon = 0.001689
 c23bf                                  6      0.0000       0.00000       A     3.39764e-01     4.51773e-01    ;  uncertainty sigma = 0.000031, epsilon = 0.001689
 c24bf                                  6      0.0000       0.00000       A     3.39736e-01     4.50291e-01    ;  uncertainty sigma = 0.000017, epsilon = 0.001100
 c25bf                                  6      0.0000       0.00000       A     3.39736e-01     4.50291e-01    ;  uncertainty sigma = 0.000017, epsilon = 0.001100
 c26bf                                  6      0.0000       0.00000       A     3.39827e-01     4.49600e-01    ;  uncertainty sigma = 0.000034, epsilon = 0.001832
 c27bf                                  6      0.0000       0.00000       A     3.39827e-01     4.49600e-01    ;  uncertainty sigma = 0.000034, epsilon = 0.001832
 n28bf                                  7      0.0000       0.00000       A     2.67683e-01     7.09588e+00    ;  uncertainty sigma = 0.000108, epsilon = 0.014793
 f29bf                                  9      0.0000       0.00000       A     3.03445e-01     3.48199e-01    ;  uncertainty sigma = 0.000029, epsilon = 0.000881
 f30bf                                  9      0.0000       0.00000       A     3.03359e-01     3.48620e-01    ;  uncertainty sigma = 0.000027, epsilon = 0.001734
 h31bf                                  1      0.0000       0.00000       A     2.59993e-01     8.66483e-02    ;  uncertainty sigma = 0.000034, epsilon = 0.001503
 h32bf                                  1      0.0000       0.00000       A     2.59993e-01     8.66483e-02    ;  uncertainty sigma = 0.000034, epsilon = 0.001503
 h33bf                                  1      0.0000       0.00000       A     5.38147e-02     1.95308e-02    ;  uncertainty sigma = 0.000093, epsilon = 0.001119
 h34bf                                  1      0.0000       0.00000       A     2.62574e-01     6.71566e-02    ;  uncertainty sigma = 0.000005, epsilon = 0.000121
 h35bf                                  1      0.0000       0.00000       A     2.62564e-01     6.70132e-02    ;  uncertainty sigma = 0.000016, epsilon = 0.000193
 h36bf                                  1      0.0000       0.00000       A     2.62575e-01     6.71658e-02    ;  uncertainty sigma = 0.000011, epsilon = 0.000657
 h37bf                                  1      0.0000       0.00000       A     2.53623e-01     6.70308e-02    ;  uncertainty sigma = 0.000068, epsilon = 0.000561
 h38bf                                  1      0.0000       0.00000       A     1.88832e-01     8.69978e-02    ;  uncertainty sigma = 0.000067, epsilon = 0.001553
 h39bf                                  1      0.0000       0.00000       A     1.88832e-01     8.69978e-02    ;  uncertainty sigma = 0.000067, epsilon = 0.001553
 h40bf                                  1      0.0000       0.00000       A     1.88832e-01     8.69978e-02    ;  uncertainty sigma = 0.000067, epsilon = 0.001553
 h41bf                                  1      0.0000       0.00000       A     1.88832e-01     8.69978e-02    ;  uncertainty sigma = 0.000067, epsilon = 0.001553
 h42bf                                  1      0.0000       0.00000       A     2.42256e-01     8.68714e-02    ;  uncertainty sigma = 0.000054, epsilon = 0.000742
 h43bf                                  1      0.0000       0.00000       A     2.42256e-01     8.68714e-02    ;  uncertainty sigma = 0.000054, epsilon = 0.000742
 h44bf                                  1      0.0000       0.00000       A     2.42256e-01     8.68714e-02    ;  uncertainty sigma = 0.000054, epsilon = 0.000742
 h45bf                                  1      0.0000       0.00000       A     2.42256e-01     8.68714e-02    ;  uncertainty sigma = 0.000054, epsilon = 0.000742
 h46bf                                  1      0.0000       0.00000       A     2.60051e-01     8.66631e-02    ;  uncertainty sigma = 0.000008, epsilon = 0.001058
 h47bf                                  1      0.0000       0.00000       A     2.60051e-01     8.66631e-02    ;  uncertainty sigma = 0.000008, epsilon = 0.001058
 h48bf                                  1      0.0000       0.00000       A     2.60051e-01     8.66631e-02    ;  uncertainty sigma = 0.000008, epsilon = 0.001058
 h49bf                                  1      0.0000       0.00000       A     2.60051e-01     8.66631e-02    ;  uncertainty sigma = 0.000008, epsilon = 0.001058
 h50bf                                  1      0.0000       0.00000       A     1.88892e-01     8.79019e-02    ;  uncertainty sigma = 0.000675, epsilon = 0.002116
 h51bf                                  1      0.0000       0.00000       A     1.88892e-01     8.79019e-02    ;  uncertainty sigma = 0.000675, epsilon = 0.002116
 h52bf                                  1      0.0000       0.00000       A     1.10546e-01     4.14506e-02    ;  uncertainty sigma = 0.000285, epsilon = 0.001566
 h53bf                                  1      0.0000       0.00000       A     1.10717e-01     3.90826e-02    ;  uncertainty sigma = 0.000124, epsilon = 0.002380
 h54bf                                  1      0.0000       0.00000       A     1.10717e-01     3.90826e-02    ;  uncertainty sigma = 0.000124, epsilon = 0.002380

[ moleculetype ]
;name             nrexcl
 MOL                   3

[ atoms ]
;       nr            type      resi   res      atom      cgnr      charge          mass ; qtot
         1            n0bf         1   UNL        n0         1    -0.65139       14.0070 ; qtot   -0.651
         2            n1bf         1   UNL        n1         2    -0.79820       14.0070 ; qtot   -1.450
         3            n2bf         1   UNL        n2         3    -0.66047       14.0070 ; qtot   -2.110
         4            o3bf         1   UNL        o3         4    -0.49345       15.9990 ; qtot   -2.604
         5            c4bf         1   UNL        c4         5     0.83645       12.0110 ; qtot   -1.767
         6            c5bf         1   UNL        c5         6     0.46774       12.0110 ; qtot   -1.299
         7            c6bf         1   UNL        c6         7    -0.23837       12.0110 ; qtot   -1.538
         8            c7bf         1   UNL        c7         8    -0.21125       12.0110 ; qtot   -1.749
         9            c8bf         1   UNL        c8         9     0.20021       12.0110 ; qtot   -1.549
        10            c9bf         1   UNL        c9        10    -0.03558       12.0110 ; qtot   -1.584
        11           c10bf         1   UNL       c10        11     0.17111       12.0110 ; qtot   -1.413
        12           c11bf         1   UNL       c11        12    -0.21452       12.0110 ; qtot   -1.628
        13           c12bf         1   UNL       c12        13    -0.00031       12.0110 ; qtot   -1.628
        14           c13bf         1   UNL       c13        14     0.46524       12.0110 ; qtot   -1.163
        15           c14bf         1   UNL       c14        15     0.75679       12.0110 ; qtot   -0.406
        16           c15bf         1   UNL       c15        16     0.46090       12.0110 ; qtot    0.055
        17           c16bf         1   UNL       c16        17    -0.36682       12.0110 ; qtot   -0.312
        18           n17bf         1   UNL       n17        18    -0.73357       14.0070 ; qtot   -1.045
        19           n18bf         1   UNL       n18        19    -0.71595       14.0070 ; qtot   -1.761
        20           c19bf         1   UNL       c19        20     0.17413       12.0110 ; qtot   -1.587
        21           c20bf         1   UNL       c20        21     0.17413       12.0110 ; qtot   -1.413
        22           c21bf         1   UNL       c21        22    -0.09545       12.0110 ; qtot   -1.509
        23           c22bf         1   UNL       c22        23     0.19190       12.0110 ; qtot   -1.317
        24           c23bf         1   UNL       c23        24     0.19190       12.0110 ; qtot   -1.125
        25           c24bf         1   UNL       c24        25    -0.09656       12.0110 ; qtot   -1.221
        26           c25bf         1   UNL       c25        26    -0.09656       12.0110 ; qtot   -1.318
        27           c26bf         1   UNL       c26        27     0.14438       12.0110 ; qtot   -1.174
        28           c27bf         1   UNL       c27        28     0.14438       12.0110 ; qtot   -1.029
        29           n28bf         1   UNL       n28        29    -0.80074       14.0070 ; qtot   -1.830
        30           f29bf         1   UNL       f29        30    -0.13210       18.9980 ; qtot   -1.962
        31           f30bf         1   UNL       f30        31    -0.09632       18.9980 ; qtot   -2.058
        32           h31bf         1   UNL       h31        32     0.11378        1.0080 ; qtot   -1.945
        33           h32bf         1   UNL       h32        33     0.11378        1.0080 ; qtot   -1.831
        34           h33bf         1   UNL       h33        34     0.42640        1.0080 ; qtot   -1.404
        35           h34bf         1   UNL       h34        35     0.16157        1.0080 ; qtot   -1.243
        36           h35bf         1   UNL       h35        36     0.14743        1.0080 ; qtot   -1.095
        37           h36bf         1   UNL       h36        37     0.15250        1.0080 ; qtot   -0.943
        38           h37bf         1   UNL       h37        38     0.03501        1.0080 ; qtot   -0.908
        39           h38bf         1   UNL       h38        39     0.11849        1.0080 ; qtot   -0.789
        40           h39bf         1   UNL       h39        40     0.11849        1.0080 ; qtot   -0.671
        41           h40bf         1   UNL       h40        41     0.11849        1.0080 ; qtot   -0.552
        42           h41bf         1   UNL       h41        42     0.11849        1.0080 ; qtot   -0.434
        43           h42bf         1   UNL       h42        43     0.09669        1.0080 ; qtot   -0.337
        44           h43bf         1   UNL       h43        44     0.09669        1.0080 ; qtot   -0.241
        45           h44bf         1   UNL       h44        45     0.09669        1.0080 ; qtot   -0.144
        46           h45bf         1   UNL       h45        46     0.09669        1.0080 ; qtot   -0.047
        47           h46bf         1   UNL       h46        47     0.09820        1.0080 ; qtot    0.051
        48           h47bf         1   UNL       h47        48     0.09820        1.0080 ; qtot    0.149
        49           h48bf         1   UNL       h48        49     0.09820        1.0080 ; qtot    0.247
        50           h49bf         1   UNL       h49        50     0.09820        1.0080 ; qtot    0.346
        51           h50bf         1   UNL       h50        51     0.12687        1.0080 ; qtot    0.473
        52           h51bf         1   UNL       h51        52     0.12687        1.0080 ; qtot    0.599
        53           h52bf         1   UNL       h52        53     0.46968        1.0080 ; qtot    1.069
        54           h53bf         1   UNL       h53        54     0.46548        1.0080 ; qtot    1.535
        55           h54bf         1   UNL       h54        55     0.46546        1.0080 ; qtot    2.000

[ bonds ]
;       ai        aj funct               r               k
         1         6     1        0.135797   357297.179639    ;  uncertainty r = 0.000270, k = 29.609914
         1        14     1        0.131646   381583.455859    ;  uncertainty r = 0.000114, k = 17.743849
         2         5     1        0.133809   383381.625879    ;  uncertainty r = 0.000419, k = 51.246996
         2        15     1        0.135722   409827.141309    ;  uncertainty r = 0.000263, k = 12.007360
         3         5     1        0.130208   384203.078076    ;  uncertainty r = 0.000303, k = 41.201037
         3        16     1        0.137231   399351.512598    ;  uncertainty r = 0.000074, k = 16.216150
         4        11     1        0.137736   352710.714795    ;  uncertainty r = 0.000029, k = 5.000267
         4        34     1        0.097388   486218.135254    ;  uncertainty r = 0.000016, k = 3.423794
         5        18     1        0.147605   222553.150195    ;  uncertainty r = 0.000381, k = 21.077099
         6        12     1        0.148072   283645.474805    ;  uncertainty r = 0.000110, k = 14.718495
         6        13     1        0.139012   341240.390137    ;  uncertainty r = 0.000140, k = 22.582706
         7         9     1        0.138695   355592.398828    ;  uncertainty r = 0.000081, k = 2.346677
         7        11     1        0.139726   382841.567090    ;  uncertainty r = 0.000065, k = 4.762195
         7        35     1        0.108890   341324.049707    ;  uncertainty r = 0.000020, k = 1.677129
         8        10     1        0.138808   365762.348340    ;  uncertainty r = 0.000074, k = 3.033931
         8        11     1        0.139809   371962.835107    ;  uncertainty r = 0.000087, k = 1.902575
         8        36     1        0.108899   337586.208545    ;  uncertainty r = 0.000009, k = 1.169564
         9        12     1        0.139712   335526.385303    ;  uncertainty r = 0.000036, k = 5.336954
         9        30     1        0.135118   338202.495605    ;  uncertainty r = 0.000096, k = 5.514057
        10        12     1        0.140329   346212.848389    ;  uncertainty r = 0.000066, k = 3.432367
        10        37     1        0.108541   332565.740527    ;  uncertainty r = 0.000042, k = 0.293087
        13        16     1        0.140598   368602.228125    ;  uncertainty r = 0.000113, k = 39.503078
        13        31     1        0.133689   331668.213281    ;  uncertainty r = 0.000088, k = 12.104163
        14        17     1        0.142066   378859.897607    ;  uncertainty r = 0.000045, k = 31.856119
        14        38     1        0.108809   334180.477490    ;  uncertainty r = 0.000033, k = 4.241259
        15        17     1        0.144403   329736.075586    ;  uncertainty r = 0.000295, k = 24.903295
        15        19     1        0.138416   295878.950439    ;  uncertainty r = 0.000499, k = 57.584904
        16        17     1        0.143180   445488.080176    ;  uncertainty r = 0.000365, k = 13.577802
        18        20     1        0.154385   209996.987646    ;  uncertainty r = 0.000150, k = 37.307971
        18        21     1        0.154385   209996.987646    ;  uncertainty r = 0.000150, k = 37.307971
        18        53     1        0.102654   406344.773389    ;  uncertainty r = 0.000100, k = 20.541755
        19        23     1        0.146903   281936.837891    ;  uncertainty r = 0.000137, k = 29.638708
        19        24     1        0.146903   281936.837891    ;  uncertainty r = 0.000137, k = 29.638708
        20        22     1        0.154303   246817.132520    ;  uncertainty r = 0.000015, k = 47.473327
        20        39     1        0.108925   317551.248145    ;  uncertainty r = 0.000042, k = 8.168893
        20        40     1        0.108925   317551.248145    ;  uncertainty r = 0.000042, k = 8.168893
        21        22     1        0.154303   246817.132520    ;  uncertainty r = 0.000015, k = 47.473327
        21        41     1        0.108925   317551.248145    ;  uncertainty r = 0.000042, k = 8.168893
        21        42     1        0.108925   317551.248145    ;  uncertainty r = 0.000042, k = 8.168893
        22        32     1        0.108973   313946.148877    ;  uncertainty r = 0.000043, k = 7.022236
        22        33     1        0.108973   313946.148877    ;  uncertainty r = 0.000043, k = 7.022236
        23        27     1        0.153389   209363.705640    ;  uncertainty r = 0.000246, k = 15.699706
        23        43     1        0.109512   306916.855225    ;  uncertainty r = 0.000054, k = 2.592156
        23        44     1        0.109512   306916.855225    ;  uncertainty r = 0.000054, k = 2.592156
        24        28     1        0.153389   209363.705640    ;  uncertainty r = 0.000246, k = 15.699706
        24        45     1        0.109512   306916.855225    ;  uncertainty r = 0.000054, k = 2.592156
        24        46     1        0.109512   306916.855225    ;  uncertainty r = 0.000054, k = 2.592156
        25        26     1        0.155765   216858.119434    ;  uncertainty r = 0.000150, k = 17.193966
        25        27     1        0.154170   203666.721289    ;  uncertainty r = 0.000096, k = 14.555211
        25        47     1        0.109186   310069.385840    ;  uncertainty r = 0.000038, k = 1.121812
        25        48     1        0.109186   310069.385840    ;  uncertainty r = 0.000038, k = 1.121812
        26        28     1        0.154170   203666.721289    ;  uncertainty r = 0.000096, k = 14.555211
        26        49     1        0.109186   310069.385840    ;  uncertainty r = 0.000038, k = 1.121812
        26        50     1        0.109186   310069.385840    ;  uncertainty r = 0.000038, k = 1.121812
        27        29     1        0.152813   214684.860352    ;  uncertainty r = 0.000144, k = 10.532011
        27        51     1        0.109104   316017.412744    ;  uncertainty r = 0.000091, k = 5.591619
        28        29     1        0.152813   214684.860352    ;  uncertainty r = 0.000144, k = 10.532011
        28        52     1        0.109104   316017.412744    ;  uncertainty r = 0.000091, k = 5.591619
        29        54     1        0.102746   394210.305127    ;  uncertainty r = 0.000084, k = 22.499245
        29        55     1        0.102746   394210.305127    ;  uncertainty r = 0.000084, k = 22.499245

[ angles ]
;       ai        aj        ak funct           theta             cth
         1         6        12     1      119.230545      465.982945    ;  uncertainty theta = 0.002345, k = 0.144236
         1         6        13     1      122.827370      496.023970    ;  uncertainty theta = 0.004054, k = 0.263507
         1        14        17     1      124.278427      680.674157    ;  uncertainty theta = 0.004821, k = 0.219716
         1        14        38     1      116.943283      320.470899    ;  uncertainty theta = 0.004361, k = 0.155031
         2         5         3     1      131.609161      811.299600    ;  uncertainty theta = 0.007421, k = 0.308523
         2         5        18     1      115.017380      538.868568    ;  uncertainty theta = 0.006925, k = 0.131875
         2        15        17     1      123.624939      525.202895    ;  uncertainty theta = 0.005961, k = 0.350905
         2        15        19     1      121.625839      634.852475    ;  uncertainty theta = 0.006770, k = 0.291909
         3         5        18     1      115.860130      523.317682    ;  uncertainty theta = 0.006092, k = 0.429934
         3        16        13     1      119.814743      448.002809    ;  uncertainty theta = 0.005142, k = 0.230852
         3        16        17     1      122.421921      562.670495    ;  uncertainty theta = 0.004648, k = 0.107277
         4        11         7     1      123.220093      495.485999    ;  uncertainty theta = 0.001463, k = 0.173629
         4        11         8     1      123.514038      456.708314    ;  uncertainty theta = 0.000912, k = 0.208276
         5         2        15     1      118.469803      435.421760    ;  uncertainty theta = 0.012219, k = 0.266908
         5         3        16     1      111.088867      405.444163    ;  uncertainty theta = 0.013270, k = 0.405322
         5        18        20     1      114.150925      528.128458    ;  uncertainty theta = 0.010004, k = 0.227205
         5        18        21     1      114.150925      528.128458    ;  uncertainty theta = 0.010004, k = 0.227205
         5        18        53     1      108.223343      460.432358    ;  uncertainty theta = 0.014572, k = 0.290458
         6         1        14     1      119.660179      413.047167    ;  uncertainty theta = 0.001249, k = 0.248795
         6        12         9     1      119.898422      377.293011    ;  uncertainty theta = 0.001408, k = 0.288503
         6        12        10     1      120.351624      393.941482    ;  uncertainty theta = 0.003092, k = 0.106441
         6        13        16     1      122.205093      435.651530    ;  uncertainty theta = 0.004166, k = 0.209891
         6        13        31     1      117.215111      460.088150    ;  uncertainty theta = 0.005617, k = 0.241981
         7         9        12     1      125.728737      375.916433    ;  uncertainty theta = 0.002986, k = 0.159692
         7         9        30     1      117.896561      524.825712    ;  uncertainty theta = 0.003490, k = 0.143447
         7        11         8     1      118.121437      384.229720    ;  uncertainty theta = 0.007418, k = 0.154022
         8        10        12     1      123.147827      523.326300    ;  uncertainty theta = 0.003157, k = 0.088008
         8        10        37     1      119.774765      282.185091    ;  uncertainty theta = 0.001428, k = 0.027256
         9         7        11     1      116.926041      489.896437    ;  uncertainty theta = 0.003852, k = 0.085410
         9         7        35     1      121.166466      279.564536    ;  uncertainty theta = 0.001271, k = 0.181624
         9        12        10     1      119.475204      419.013561    ;  uncertainty theta = 0.004145, k = 0.180239
        10         8        11     1      117.219421      519.152771    ;  uncertainty theta = 0.002616, k = 0.052590
        10         8        36     1      121.367210      284.297999    ;  uncertainty theta = 0.002216, k = 0.058754
        11         4        34     1      108.079788      444.499181    ;  uncertainty theta = 0.001392, k = 0.119706
        11         7        35     1      121.473465      299.902386    ;  uncertainty theta = 0.003420, k = 0.063155
        11         8        36     1      120.319481      308.128655    ;  uncertainty theta = 0.000691, k = 0.064390
        12         6        13     1      119.549240      357.603644    ;  uncertainty theta = 0.008501, k = 0.244617
        12         9        30     1      116.969215      496.354995    ;  uncertainty theta = 0.002527, k = 0.047455
        12        10        37     1      117.348801      268.545433    ;  uncertainty theta = 0.001607, k = 0.082918
        13        16        17     1      116.218979      376.267026    ;  uncertainty theta = 0.007071, k = 0.427237
        14        17        15     1      123.034103      375.907718    ;  uncertainty theta = 0.011076, k = 0.311412
        14        17        16     1      120.384048      443.689751    ;  uncertainty theta = 0.005391, k = 0.384006
        15        17        16     1      119.216965      437.829910    ;  uncertainty theta = 0.015649, k = 0.202460
        15        19        23     1      111.249588      412.182735    ;  uncertainty theta = 0.005214, k = 0.275047
        15        19        24     1      111.249588      412.182735    ;  uncertainty theta = 0.005214, k = 0.275047
        16        13        31     1      115.736656      451.006100    ;  uncertainty theta = 0.007224, k = 0.285461
        17        14        38     1      118.149879      255.239274    ;  uncertainty theta = 0.006273, k = 0.194729
        17        15        19     1      120.378738      461.825088    ;  uncertainty theta = 0.006884, k = 0.286715
        18        20        22     1       90.296677      865.013398    ;  uncertainty theta = 0.004772, k = 0.153760
        18        20        39     1      108.589561      473.064641    ;  uncertainty theta = 0.002613, k = 0.143026
        18        20        40     1      108.589561      473.064641    ;  uncertainty theta = 0.002613, k = 0.143026
        18        21        22     1       90.296677      865.013398    ;  uncertainty theta = 0.004772, k = 0.153760
        18        21        41     1      108.589561      473.064641    ;  uncertainty theta = 0.002613, k = 0.143026
        18        21        42     1      108.589561      473.064641    ;  uncertainty theta = 0.002613, k = 0.143026
        19        23        27     1      109.970139      655.475287    ;  uncertainty theta = 0.003345, k = 0.146976
        19        23        43     1      108.414856      456.268533    ;  uncertainty theta = 0.004694, k = 0.176151
        19        23        44     1      108.414856      456.268533    ;  uncertainty theta = 0.004694, k = 0.176151
        19        24        28     1      109.970139      655.475287    ;  uncertainty theta = 0.003345, k = 0.146976
        19        24        45     1      108.414856      456.268533    ;  uncertainty theta = 0.004694, k = 0.176151
        19        24        46     1      108.414856      456.268533    ;  uncertainty theta = 0.004694, k = 0.176151
        20        18        21     1       89.254784      751.813777    ;  uncertainty theta = 0.007592, k = 0.348751
        20        18        53     1      110.279160      442.439358    ;  uncertainty theta = 0.003692, k = 0.321711
        20        22        21     1       88.042938      740.985404    ;  uncertainty theta = 0.007201, k = 0.312988
        20        22        32     1      113.281494      422.074439    ;  uncertainty theta = 0.002731, k = 0.159350
        20        22        33     1      113.281494      422.074439    ;  uncertainty theta = 0.002731, k = 0.159350
        21        18        53     1      110.279160      442.439358    ;  uncertainty theta = 0.003692, k = 0.321711
        21        22        32     1      113.281494      422.074439    ;  uncertainty theta = 0.002731, k = 0.159350
        21        22        33     1      113.281494      422.074439    ;  uncertainty theta = 0.002731, k = 0.159350
        22        20        39     1      116.138901      411.849540    ;  uncertainty theta = 0.006639, k = 0.109064
        22        20        40     1      116.138901      411.849540    ;  uncertainty theta = 0.006639, k = 0.109064
        22        21        41     1      116.138901      411.849540    ;  uncertainty theta = 0.006639, k = 0.109064
        22        21        42     1      116.138901      411.849540    ;  uncertainty theta = 0.006639, k = 0.109064
        23        19        24     1      114.204208      417.334432    ;  uncertainty theta = 0.011335, k = 0.436247
        23        27        25     1      112.961143      535.549255    ;  uncertainty theta = 0.001825, k = 0.221357
        23        27        29     1      107.106102      724.692090    ;  uncertainty theta = 0.009614, k = 0.194544
        23        27        51     1      110.097519      391.839395    ;  uncertainty theta = 0.006671, k = 0.265089
        24        28        26     1      112.961143      535.549255    ;  uncertainty theta = 0.001825, k = 0.221357
        24        28        29     1      107.106102      724.692090    ;  uncertainty theta = 0.009614, k = 0.194544
        24        28        52     1      110.097519      391.839395    ;  uncertainty theta = 0.006671, k = 0.265089
        25        26        28     1      106.024353      704.147996    ;  uncertainty theta = 0.006529, k = 0.081671
        25        26        49     1      110.275002      402.480996    ;  uncertainty theta = 0.003380, k = 0.146044
        25        26        50     1      110.275002      402.480996    ;  uncertainty theta = 0.003380, k = 0.146044
        25        27        29     1      104.244400      885.384478    ;  uncertainty theta = 0.008129, k = 0.207713
        25        27        51     1      111.749313      382.110331    ;  uncertainty theta = 0.005995, k = 0.096527
        26        25        27     1      106.024353      704.147996    ;  uncertainty theta = 0.006529, k = 0.081671
        26        25        47     1      110.275002      402.480996    ;  uncertainty theta = 0.003380, k = 0.146044
        26        25        48     1      110.275002      402.480996    ;  uncertainty theta = 0.003380, k = 0.146044
        26        28        29     1      104.244400      885.384478    ;  uncertainty theta = 0.008129, k = 0.207713
        26        28        52     1      111.749313      382.110331    ;  uncertainty theta = 0.005995, k = 0.096527
        27        23        43     1      108.657677      423.347751    ;  uncertainty theta = 0.003396, k = 0.148177
        27        23        44     1      108.657677      423.347751    ;  uncertainty theta = 0.003396, k = 0.148177
        27        25        47     1      108.154007      411.973044    ;  uncertainty theta = 0.004144, k = 0.083638
        27        25        48     1      108.154007      411.973044    ;  uncertainty theta = 0.004144, k = 0.083638
        27        29        28     1      103.811905      816.372228    ;  uncertainty theta = 0.015300, k = 0.296681
        27        29        54     1      110.536942      414.249869    ;  uncertainty theta = 0.015659, k = 0.317278
        27        29        55     1      110.536942      414.249869    ;  uncertainty theta = 0.015659, k = 0.317278
        28        24        45     1      108.657677      423.347751    ;  uncertainty theta = 0.003396, k = 0.148177
        28        24        46     1      108.657677      423.347751    ;  uncertainty theta = 0.003396, k = 0.148177
        28        26        49     1      108.154015      411.973044    ;  uncertainty theta = 0.004144, k = 0.083638
        28        26        50     1      108.154015      411.973044    ;  uncertainty theta = 0.004144, k = 0.083638
        28        29        54     1      110.536942      414.249869    ;  uncertainty theta = 0.015659, k = 0.317278
        28        29        55     1      110.536942      414.249869    ;  uncertainty theta = 0.015659, k = 0.317278
        29        27        51     1      107.116615      462.413527    ;  uncertainty theta = 0.004311, k = 0.213726
        29        28        52     1      107.116615      462.413527    ;  uncertainty theta = 0.004311, k = 0.213726
        32        22        33     1      108.812294      275.545506    ;  uncertainty theta = 0.002472, k = 0.145309
        39        20        40     1      110.537857      290.156467    ;  uncertainty theta = 0.004294, k = 0.100811
        41        21        42     1      110.537857      290.156467    ;  uncertainty theta = 0.004294, k = 0.100811
        43        23        44     1      105.897926      325.661317    ;  uncertainty theta = 0.002949, k = 0.142469
        45        24        46     1      105.897926      325.661317    ;  uncertainty theta = 0.002949, k = 0.142469
        47        25        48     1      104.910583      313.577125    ;  uncertainty theta = 0.003222, k = 0.124326
        49        26        50     1      104.910583      313.577125    ;  uncertainty theta = 0.003222, k = 0.124326
        54        29        55     1      107.747574      350.201426    ;  uncertainty theta = 0.021723, k = 0.473762

[ dihedrals ] ; propers for gromacs 4.5 or higher, use funct 9
;       ai        aj        ak        al funct           phase               k        pn
         1         6        12         9     9        0.000000        0.631311         1    ;  uncertainty k = 0.929984
         1         6        12         9     9      180.000000        6.011337         2    ;  uncertainty k = 0.319018
         1         6        12         9     9        0.000000        1.020117         3    ;  uncertainty k = 0.374648
         1         6        12         9     9      180.000000        0.327501         4    ;  uncertainty k = 0.198079
         1         6        12        10     9        0.000000        1.203825         1    ;  uncertainty k = 0.729873
         1         6        12        10     9      180.000000        6.209019         2    ;  uncertainty k = 0.198536
         1         6        12        10     9        0.000000        0.335170         3    ;  uncertainty k = 0.278164
         1         6        12        10     9      180.000000        0.291820         4    ;  uncertainty k = 0.131619
         1         6        13        16     9        0.000000        0.055516         1    ;  uncertainty k = 0.402311
         1         6        13        16     9      180.000000        6.509064         2    ;  uncertainty k = 0.733594
         1         6        13        16     9        0.000000        0.500804         3    ;  uncertainty k = 0.354335
         1         6        13        16     9      180.000000        1.304355         4    ;  uncertainty k = 0.322005
         1         6        13        31     9        0.000000        0.189139         1    ;  uncertainty k = 0.507193
         1         6        13        31     9      180.000000       11.961879         2    ;  uncertainty k = 0.751815
         1         6        13        31     9        0.000000        1.343286         3    ;  uncertainty k = 0.185240
         1         6        13        31     9      180.000000        1.463247         4    ;  uncertainty k = 0.410655
         1        14        17        15     9        0.000000        0.090643         1    ;  uncertainty k = 0.604043
         1        14        17        15     9      180.000000        8.432931         2    ;  uncertainty k = 0.999858
         1        14        17        15     9        0.000000        0.453970         3    ;  uncertainty k = 0.197020
         1        14        17        15     9      180.000000        1.188436         4    ;  uncertainty k = 0.341968
         1        14        17        16     9        0.000000        0.115979         1    ;  uncertainty k = 0.377215
         1        14        17        16     9      180.000000       10.952458         2    ;  uncertainty k = 0.525482
         1        14        17        16     9        0.000000       -0.379864         3    ;  uncertainty k = 0.607862
         1        14        17        16     9      180.000000        0.925541         4    ;  uncertainty k = 0.338501
         2         5         3        16     9        0.000000       -0.514725         1    ;  uncertainty k = 0.777962
         2         5         3        16     9      180.000000       16.695204         2    ;  uncertainty k = 0.663566
         2         5         3        16     9        0.000000        0.719744         3    ;  uncertainty k = 0.599031
         2         5         3        16     9      180.000000        1.162686         4    ;  uncertainty k = 0.333588
         2         5        18        20     9        0.000000        0.563912         1    ;  uncertainty k = 1.529429
         2         5        18        20     9      180.000000        3.222937         2    ;  uncertainty k = 0.614854
         2         5        18        20     9        0.000000        0.476725         3    ;  uncertainty k = 0.255300
         2         5        18        20     9      180.000000        0.195933         4    ;  uncertainty k = 0.200841
         2         5        18        21     9        0.000000        0.563912         1    ;  uncertainty k = 1.529429
         2         5        18        21     9      180.000000        3.222937         2    ;  uncertainty k = 0.614854
         2         5        18        21     9        0.000000        0.476725         3    ;  uncertainty k = 0.255300
         2         5        18        21     9      180.000000        0.195933         4    ;  uncertainty k = 0.200841
         2         5        18        53     9        0.000000        7.119895         1    ;  uncertainty k = 1.596007
         2         5        18        53     9      180.000000        1.623937         2    ;  uncertainty k = 0.360399
         2         5        18        53     9        0.000000        0.483837         3    ;  uncertainty k = 0.362408
         2         5        18        53     9      180.000000        0.099821         4    ;  uncertainty k = 0.070331
         2        15        17        14     9        0.000000        0.361480         1    ;  uncertainty k = 0.861132
         2        15        17        14     9      180.000000        4.682580         2    ;  uncertainty k = 1.178636
         2        15        17        14     9        0.000000        0.005022         3    ;  uncertainty k = 0.537477
         2        15        17        14     9      180.000000        0.845566         4    ;  uncertainty k = 0.315798
         2        15        17        16     9        0.000000        0.547992         1    ;  uncertainty k = 1.521657
         2        15        17        16     9      180.000000        5.351703         2    ;  uncertainty k = 1.677140
         2        15        17        16     9        0.000000       -0.076545         3    ;  uncertainty k = 0.565409
         2        15        17        16     9      180.000000        0.826903         4    ;  uncertainty k = 0.280909
         2        15        19        23     9        0.000000        8.155734         1    ;  uncertainty k = 1.439374
         2        15        19        23     9      180.000000       14.656643         2    ;  uncertainty k = 0.310383
         2        15        19        23     9        0.000000        0.566566         3    ;  uncertainty k = 0.195322
         2        15        19        23     9      180.000000       -0.209268         4    ;  uncertainty k = 0.280460
         2        15        19        24     9        0.000000        8.155734         1    ;  uncertainty k = 1.439374
         2        15        19        24     9      180.000000       14.656643         2    ;  uncertainty k = 0.310383
         2        15        19        24     9        0.000000        0.566566         3    ;  uncertainty k = 0.195322
         2        15        19        24     9      180.000000       -0.209268         4    ;  uncertainty k = 0.280460
         3         5         2        15     9        0.000000       -0.427746         1    ;  uncertainty k = 1.480035
         3         5         2        15     9      180.000000       12.922035         2    ;  uncertainty k = 0.796962
         3         5         2        15     9        0.000000        0.610138         3    ;  uncertainty k = 0.843183
         3         5         2        15     9      180.000000        0.894984         4    ;  uncertainty k = 0.193413
         3         5        18        20     9        0.000000        0.494846         1    ;  uncertainty k = 0.607223
         3         5        18        20     9      180.000000        2.964984         2    ;  uncertainty k = 0.891450
         3         5        18        20     9        0.000000        0.224504         3    ;  uncertainty k = 0.183284
         3         5        18        20     9      180.000000        0.149789         4    ;  uncertainty k = 0.216243
         3         5        18        21     9        0.000000        0.494846         1    ;  uncertainty k = 0.607223
         3         5        18        21     9      180.000000        2.964984         2    ;  uncertainty k = 0.891450
         3         5        18        21     9        0.000000        0.224504         3    ;  uncertainty k = 0.183284
         3         5        18        21     9      180.000000        0.149789         4    ;  uncertainty k = 0.216243
         3         5        18        53     9        0.000000        6.135639         1    ;  uncertainty k = 1.104893
         3         5        18        53     9      180.000000        2.004864         2    ;  uncertainty k = 0.529010
         3         5        18        53     9        0.000000        0.235842         3    ;  uncertainty k = 0.371334
         3         5        18        53     9      180.000000        0.069911         4    ;  uncertainty k = 0.132324
         3        16        13         6     9        0.000000       -0.078422         1    ;  uncertainty k = 0.598100
         3        16        13         6     9      180.000000        6.009610         2    ;  uncertainty k = 0.559199
         3        16        13         6     9        0.000000        0.707412         3    ;  uncertainty k = 0.184644
         3        16        13         6     9      180.000000        1.201598         4    ;  uncertainty k = 0.341312
         3        16        13        31     9        0.000000        0.055663         1    ;  uncertainty k = 0.353949
         3        16        13        31     9      180.000000       12.016384         2    ;  uncertainty k = 0.763110
         3        16        13        31     9        0.000000        1.186916         3    ;  uncertainty k = 0.350837
         3        16        13        31     9      180.000000        1.133270         4    ;  uncertainty k = 0.532727
         3        16        17        14     9        0.000000       -0.040850         1    ;  uncertainty k = 0.637913
         3        16        17        14     9      180.000000        7.304381         2    ;  uncertainty k = 0.825807
         3        16        17        14     9        0.000000        0.528202         3    ;  uncertainty k = 0.298378
         3        16        17        14     9      180.000000        1.526756         4    ;  uncertainty k = 0.220484
         3        16        17        15     9        0.000000       -0.068484         1    ;  uncertainty k = 0.378340
         3        16        17        15     9      180.000000        7.012406         2    ;  uncertainty k = 0.807927
         3        16        17        15     9        0.000000        0.725195         3    ;  uncertainty k = 0.366010
         3        16        17        15     9      180.000000        1.579385         4    ;  uncertainty k = 0.273702
         4        11         7         9     9        0.000000        0.033194         1    ;  uncertainty k = 0.383062
         4        11         7         9     9      180.000000       10.844517         2    ;  uncertainty k = 0.451771
         4        11         7         9     9        0.000000        1.038190         3    ;  uncertainty k = 0.270755
         4        11         7         9     9      180.000000        1.419699         4    ;  uncertainty k = 0.119330
         4        11         7        35     9        0.000000       -0.140907         1    ;  uncertainty k = 0.280733
         4        11         7        35     9      180.000000        7.756649         2    ;  uncertainty k = 0.542101
         4        11         7        35     9        0.000000        0.906597         3    ;  uncertainty k = 0.176159
         4        11         7        35     9      180.000000        1.061174         4    ;  uncertainty k = 0.297671
         4        11         8        10     9        0.000000        0.069047         1    ;  uncertainty k = 0.304651
         4        11         8        10     9      180.000000       10.209359         2    ;  uncertainty k = 0.452322
         4        11         8        10     9        0.000000        1.144649         3    ;  uncertainty k = 0.296735
         4        11         8        10     9      180.000000        1.480118         4    ;  uncertainty k = 0.173731
         4        11         8        36     9        0.000000       -0.199582         1    ;  uncertainty k = 0.358373
         4        11         8        36     9      180.000000        7.857968         2    ;  uncertainty k = 0.473193
         4        11         8        36     9        0.000000        0.879661         3    ;  uncertainty k = 0.187980
         4        11         8        36     9      180.000000        1.066919         4    ;  uncertainty k = 0.318639
         5         2        15        17     9        0.000000       -0.288337         1    ;  uncertainty k = 1.185857
         5         2        15        17     9      180.000000       10.425574         2    ;  uncertainty k = 0.582657
         5         2        15        17     9        0.000000        0.851903         3    ;  uncertainty k = 0.961354
         5         2        15        17     9      180.000000        1.375199         4    ;  uncertainty k = 0.359338
         5         2        15        19     9        0.000000        0.637524         1    ;  uncertainty k = 1.320065
         5         2        15        19     9      180.000000       15.531071         2    ;  uncertainty k = 0.772953
         5         2        15        19     9        0.000000        2.462898         3    ;  uncertainty k = 0.706333
         5         2        15        19     9      180.000000        1.523835         4    ;  uncertainty k = 0.594911
         5         3        16        13     9        0.000000        0.695439         1    ;  uncertainty k = 0.967540
         5         3        16        13     9      180.000000       10.284985         2    ;  uncertainty k = 0.129960
         5         3        16        13     9        0.000000        1.607068         3    ;  uncertainty k = 0.154542
         5         3        16        13     9      180.000000        0.681597         4    ;  uncertainty k = 0.312444
         5         3        16        17     9        0.000000       -0.764945         1    ;  uncertainty k = 0.842522
         5         3        16        17     9      180.000000       10.132857         2    ;  uncertainty k = 0.469442
         5         3        16        17     9        0.000000        0.480475         3    ;  uncertainty k = 0.517580
         5         3        16        17     9      180.000000        0.767648         4    ;  uncertainty k = 0.360160
         5        18        20        22     9        0.000000       -6.571973         1    ;  uncertainty k = 2.248848
         5        18        20        22     9      180.000000        5.385374         2    ;  uncertainty k = 1.782844
         5        18        20        22     9        0.000000        1.497774         3    ;  uncertainty k = 0.196547
         5        18        20        22     9      180.000000        0.204811         4    ;  uncertainty k = 0.310223
         5        18        20        39     9        0.000000        0.559108         1    ;  uncertainty k = 1.336853
         5        18        20        39     9      180.000000       -0.600381         2    ;  uncertainty k = 0.696491
         5        18        20        39     9        0.000000        1.440653         3    ;  uncertainty k = 0.361253
         5        18        20        39     9      180.000000        0.176182         4    ;  uncertainty k = 0.133122
         5        18        20        40     9        0.000000        0.559108         1    ;  uncertainty k = 1.336853
         5        18        20        40     9      180.000000       -0.600381         2    ;  uncertainty k = 0.696491
         5        18        20        40     9        0.000000        1.440653         3    ;  uncertainty k = 0.361253
         5        18        20        40     9      180.000000        0.176182         4    ;  uncertainty k = 0.133122
         5        18        21        22     9        0.000000       -6.571973         1    ;  uncertainty k = 2.248848
         5        18        21        22     9      180.000000        5.385374         2    ;  uncertainty k = 1.782844
         5        18        21        22     9        0.000000        1.497774         3    ;  uncertainty k = 0.196547
         5        18        21        22     9      180.000000        0.204811         4    ;  uncertainty k = 0.310223
         5        18        21        41     9        0.000000        0.559108         1    ;  uncertainty k = 1.336853
         5        18        21        41     9      180.000000       -0.600381         2    ;  uncertainty k = 0.696491
         5        18        21        41     9        0.000000        1.440653         3    ;  uncertainty k = 0.361253
         5        18        21        41     9      180.000000        0.176182         4    ;  uncertainty k = 0.133122
         5        18        21        42     9        0.000000        0.559108         1    ;  uncertainty k = 1.336853
         5        18        21        42     9      180.000000       -0.600381         2    ;  uncertainty k = 0.696491
         5        18        21        42     9        0.000000        1.440653         3    ;  uncertainty k = 0.361253
         5        18        21        42     9      180.000000        0.176182         4    ;  uncertainty k = 0.133122
         6         1        14        17     9        0.000000       -0.243312         1    ;  uncertainty k = 0.557120
         6         1        14        17     9      180.000000       16.275869         2    ;  uncertainty k = 0.390004
         6         1        14        17     9        0.000000        1.143129         3    ;  uncertainty k = 0.782615
         6         1        14        17     9      180.000000        1.762046         4    ;  uncertainty k = 0.318234
         6         1        14        38     9        0.000000        0.106305         1    ;  uncertainty k = 0.612934
         6         1        14        38     9      180.000000       16.497018         2    ;  uncertainty k = 0.533386
         6         1        14        38     9        0.000000        2.148472         3    ;  uncertainty k = 0.318958
         6         1        14        38     9      180.000000        1.652931         4    ;  uncertainty k = 0.341510
         6        12         9         7     9        0.000000       -0.057144         1    ;  uncertainty k = 0.404847
         6        12         9         7     9      180.000000        6.075061         2    ;  uncertainty k = 0.566161
         6        12         9         7     9        0.000000        1.108979         3    ;  uncertainty k = 0.307366
         6        12         9         7     9      180.000000        1.732273         4    ;  uncertainty k = 0.171158
         6        12         9        30     9        0.000000       -0.237092         1    ;  uncertainty k = 0.183900
         6        12         9        30     9      180.000000        9.909364         2    ;  uncertainty k = 0.304246
         6        12         9        30     9        0.000000        1.216027         3    ;  uncertainty k = 0.270074
         6        12         9        30     9      180.000000        1.460451         4    ;  uncertainty k = 0.235626
         6        12        10         8     9        0.000000       -0.015169         1    ;  uncertainty k = 0.329332
         6        12        10         8     9      180.000000        8.616754         2    ;  uncertainty k = 0.600226
         6        12        10         8     9        0.000000        1.192887         3    ;  uncertainty k = 0.356700
         6        12        10         8     9      180.000000        1.856282         4    ;  uncertainty k = 0.230698
         6        12        10        37     9        0.000000       -0.319468         1    ;  uncertainty k = 0.238562
         6        12        10        37     9      180.000000        7.126735         2    ;  uncertainty k = 0.154983
         6        12        10        37     9        0.000000        0.749140         3    ;  uncertainty k = 0.290407
         6        12        10        37     9      180.000000        1.260902         4    ;  uncertainty k = 0.123038
         6        13        16        17     9        0.000000       -0.457451         1    ;  uncertainty k = 0.970912
         6        13        16        17     9      180.000000        3.364089         2    ;  uncertainty k = 1.355079
         6        13        16        17     9        0.000000        0.377043         3    ;  uncertainty k = 0.413239
         6        13        16        17     9      180.000000        1.223377         4    ;  uncertainty k = 0.428258
         7         9        12        10     9        0.000000       -0.245398         1    ;  uncertainty k = 0.494796
         7         9        12        10     9      180.000000        6.837780         2    ;  uncertainty k = 0.700559
         7         9        12        10     9        0.000000        0.096091         3    ;  uncertainty k = 0.396205
         7         9        12        10     9      180.000000        1.288353         4    ;  uncertainty k = 0.158127
         7        11         4        34     9        0.000000        7.375606         1    ;  uncertainty k = 0.218798
         7        11         4        34     9      180.000000        5.526125         2    ;  uncertainty k = 0.231652
         7        11         4        34     9        0.000000        0.622259         3    ;  uncertainty k = 0.061004
         7        11         4        34     9      180.000000        0.212441         4    ;  uncertainty k = 0.051336
         7        11         8        10     9        0.000000       -0.081771         1    ;  uncertainty k = 0.108890
         7        11         8        10     9      180.000000        8.460457         2    ;  uncertainty k = 0.611962
         7        11         8        10     9        0.000000       -0.074193         3    ;  uncertainty k = 0.296320
         7        11         8        10     9      180.000000        1.238091         4    ;  uncertainty k = 0.303488
         7        11         8        36     9        0.000000       -0.234293         1    ;  uncertainty k = 0.376918
         7        11         8        36     9      180.000000        5.666693         2    ;  uncertainty k = 0.512962
         7        11         8        36     9        0.000000        1.257606         3    ;  uncertainty k = 0.191168
         7        11         8        36     9      180.000000        1.375321         4    ;  uncertainty k = 0.170417
         8        10        12         9     9        0.000000       -0.084340         1    ;  uncertainty k = 0.121564
         8        10        12         9     9      180.000000       10.806091         2    ;  uncertainty k = 0.365517
         8        10        12         9     9        0.000000       -0.264321         3    ;  uncertainty k = 0.133647
         8        10        12         9     9      180.000000        1.113008         4    ;  uncertainty k = 0.323218
         8        11         4        34     9        0.000000        6.398324         1    ;  uncertainty k = 0.277576
         8        11         4        34     9      180.000000        6.173074         2    ;  uncertainty k = 0.135787
         8        11         4        34     9        0.000000        0.757348         3    ;  uncertainty k = 0.124516
         8        11         4        34     9      180.000000        0.195063         4    ;  uncertainty k = 0.021600
         8        11         7         9     9        0.000000       -0.103335         1    ;  uncertainty k = 0.244111
         8        11         7         9     9      180.000000        8.237311         2    ;  uncertainty k = 0.552844
         8        11         7         9     9        0.000000        0.049344         3    ;  uncertainty k = 0.457398
         8        11         7         9     9      180.000000        1.345284         4    ;  uncertainty k = 0.263566
         8        11         7        35     9        0.000000       -0.116104         1    ;  uncertainty k = 0.351895
         8        11         7        35     9      180.000000        5.566255         2    ;  uncertainty k = 0.411488
         8        11         7        35     9        0.000000        1.250840         3    ;  uncertainty k = 0.276001
         8        11         7        35     9      180.000000        1.387679         4    ;  uncertainty k = 0.194769
         9        12         6        13     9        0.000000        0.215547         1    ;  uncertainty k = 0.512301
         9        12         6        13     9      180.000000        4.834160         2    ;  uncertainty k = 0.580013
         9        12         6        13     9        0.000000        0.657751         3    ;  uncertainty k = 0.272924
         9        12         6        13     9      180.000000        0.229160         4    ;  uncertainty k = 0.142184
         9        12        10        37     9        0.000000       -0.008396         1    ;  uncertainty k = 0.065945
         9        12        10        37     9      180.000000        7.076913         2    ;  uncertainty k = 0.387676
         9        12        10        37     9        0.000000        1.215046         3    ;  uncertainty k = 0.262404
         9        12        10        37     9      180.000000        1.572897         4    ;  uncertainty k = 0.151127
        10        12         6        13     9        0.000000        0.404166         1    ;  uncertainty k = 0.294978
        10        12         6        13     9      180.000000        5.260736         2    ;  uncertainty k = 0.488254
        10        12         6        13     9        0.000000        0.394934         3    ;  uncertainty k = 0.220851
        10        12         6        13     9      180.000000        0.281374         4    ;  uncertainty k = 0.025107
        10        12         9        30     9        0.000000        0.015417         1    ;  uncertainty k = 0.207644
        10        12         9        30     9      180.000000       10.078274         2    ;  uncertainty k = 0.417923
        10        12         9        30     9        0.000000        1.494025         3    ;  uncertainty k = 0.222352
        10        12         9        30     9      180.000000        1.617125         4    ;  uncertainty k = 0.108978
        11         7         9        12     9        0.000000        0.197676         1    ;  uncertainty k = 0.321877
        11         7         9        12     9      180.000000        9.103655         2    ;  uncertainty k = 0.534423
        11         7         9        12     9        0.000000        0.120500         3    ;  uncertainty k = 0.361413
        11         7         9        12     9      180.000000        1.362040         4    ;  uncertainty k = 0.280195
        11         7         9        30     9        0.000000       -0.089784         1    ;  uncertainty k = 0.210395
        11         7         9        30     9      180.000000       13.100224         2    ;  uncertainty k = 0.518335
        11         7         9        30     9        0.000000        1.411926         3    ;  uncertainty k = 0.291704
        11         7         9        30     9      180.000000        1.501566         4    ;  uncertainty k = 0.307172
        11         8        10        12     9        0.000000       -0.085096         1    ;  uncertainty k = 0.251382
        11         8        10        12     9      180.000000       14.490644         2    ;  uncertainty k = 0.277630
        11         8        10        12     9        0.000000       -0.860567         3    ;  uncertainty k = 0.375987
        11         8        10        12     9      180.000000        0.924186         4    ;  uncertainty k = 0.286557
        11         8        10        37     9        0.000000       -0.036461         1    ;  uncertainty k = 0.261634
        11         8        10        37     9      180.000000        8.216375         2    ;  uncertainty k = 0.149400
        11         8        10        37     9        0.000000        1.177408         3    ;  uncertainty k = 0.286096
        11         8        10        37     9      180.000000        1.748660         4    ;  uncertainty k = 0.168849
        12         6         1        14     9        0.000000        0.785845         1    ;  uncertainty k = 0.953742
        12         6         1        14     9      180.000000       14.010129         2    ;  uncertainty k = 0.334664
        12         6         1        14     9        0.000000        2.416591         3    ;  uncertainty k = 0.485172
        12         6         1        14     9      180.000000        1.478968         4    ;  uncertainty k = 0.156287
        12         6        13        16     9        0.000000        0.150406         1    ;  uncertainty k = 0.463867
        12         6        13        16     9      180.000000        5.545065         2    ;  uncertainty k = 0.562075
        12         6        13        16     9        0.000000        1.013122         3    ;  uncertainty k = 0.303977
        12         6        13        16     9      180.000000        1.349558         4    ;  uncertainty k = 0.118863
        12         6        13        31     9        0.000000        0.099332         1    ;  uncertainty k = 0.141953
        12         6        13        31     9      180.000000       10.850911         2    ;  uncertainty k = 0.508241
        12         6        13        31     9        0.000000        1.288812         3    ;  uncertainty k = 0.268991
        12         6        13        31     9      180.000000        1.311000         4    ;  uncertainty k = 0.330624
        12         9         7        35     9        0.000000        0.091732         1    ;  uncertainty k = 0.364344
        12         9         7        35     9      180.000000        5.847099         2    ;  uncertainty k = 0.599216
        12         9         7        35     9        0.000000        1.423886         3    ;  uncertainty k = 0.334355
        12         9         7        35     9      180.000000        1.633266         4    ;  uncertainty k = 0.209093
        12        10         8        36     9        0.000000        0.253791         1    ;  uncertainty k = 0.168025
        12        10         8        36     9      180.000000        8.341642         2    ;  uncertainty k = 0.444510
        12        10         8        36     9        0.000000        1.424265         3    ;  uncertainty k = 0.298756
        12        10         8        36     9      180.000000        1.910747         4    ;  uncertainty k = 0.137961
        13         6         1        14     9        0.000000        0.324658         1    ;  uncertainty k = 0.759999
        13         6         1        14     9      180.000000       10.554118         2    ;  uncertainty k = 0.508679
        13         6         1        14     9        0.000000        1.616770         3    ;  uncertainty k = 0.670405
        13         6         1        14     9      180.000000        1.266614         4    ;  uncertainty k = 0.117335
        13        16        17        14     9        0.000000       -0.732891         1    ;  uncertainty k = 1.072637
        13        16        17        14     9      180.000000        5.643293         2    ;  uncertainty k = 1.229945
        13        16        17        14     9        0.000000        0.196683         3    ;  uncertainty k = 0.370227
        13        16        17        14     9      180.000000        1.511209         4    ;  uncertainty k = 0.325191
        13        16        17        15     9        0.000000       -0.500230         1    ;  uncertainty k = 0.956286
        13        16        17        15     9      180.000000        5.714310         2    ;  uncertainty k = 0.885811
        13        16        17        15     9        0.000000        0.494005         3    ;  uncertainty k = 0.369549
        13        16        17        15     9      180.000000        1.410587         4    ;  uncertainty k = 0.293525
        14        17        15        19     9        0.000000       -0.824294         1    ;  uncertainty k = 0.455351
        14        17        15        19     9      180.000000        6.189610         2    ;  uncertainty k = 1.093050
        14        17        15        19     9        0.000000        0.018048         3    ;  uncertainty k = 0.707250
        14        17        15        19     9      180.000000        0.756174         4    ;  uncertainty k = 0.400010
        15         2         5        18     9        0.000000       -0.944246         1    ;  uncertainty k = 0.773659
        15         2         5        18     9      180.000000       13.802824         2    ;  uncertainty k = 0.554501
        15         2         5        18     9        0.000000        1.823784         3    ;  uncertainty k = 0.409140
        15         2         5        18     9      180.000000        1.321976         4    ;  uncertainty k = 0.541032
        15        17        14        38     9        0.000000       -0.756522         1    ;  uncertainty k = 1.474934
        15        17        14        38     9      180.000000        5.823569         2    ;  uncertainty k = 0.456493
        15        17        14        38     9        0.000000        1.018708         3    ;  uncertainty k = 0.225356
        15        17        14        38     9      180.000000        0.742400         4    ;  uncertainty k = 0.189696
        15        19        23        27     9        0.000000       -0.242818         1    ;  uncertainty k = 1.529029
        15        19        23        27     9      180.000000       -1.751217         2    ;  uncertainty k = 0.663506
        15        19        23        27     9        0.000000       -0.099715         3    ;  uncertainty k = 0.269812
        15        19        23        27     9      180.000000        0.268870         4    ;  uncertainty k = 0.083459
        15        19        23        43     9        0.000000       -0.453757         1    ;  uncertainty k = 0.883171
        15        19        23        43     9      180.000000       -0.663047         2    ;  uncertainty k = 0.318180
        15        19        23        43     9        0.000000       -0.048876         3    ;  uncertainty k = 0.180845
        15        19        23        43     9      180.000000        0.185706         4    ;  uncertainty k = 0.116522
        15        19        23        44     9        0.000000       -0.453757         1    ;  uncertainty k = 0.883171
        15        19        23        44     9      180.000000       -0.663047         2    ;  uncertainty k = 0.318180
        15        19        23        44     9        0.000000       -0.048876         3    ;  uncertainty k = 0.180845
        15        19        23        44     9      180.000000        0.185706         4    ;  uncertainty k = 0.116522
        15        19        24        28     9        0.000000       -0.242818         1    ;  uncertainty k = 1.529029
        15        19        24        28     9      180.000000       -1.751217         2    ;  uncertainty k = 0.663506
        15        19        24        28     9        0.000000       -0.099715         3    ;  uncertainty k = 0.269812
        15        19        24        28     9      180.000000        0.268870         4    ;  uncertainty k = 0.083459
        15        19        24        45     9        0.000000       -0.453757         1    ;  uncertainty k = 0.883171
        15        19        24        45     9      180.000000       -0.663047         2    ;  uncertainty k = 0.318180
        15        19        24        45     9        0.000000       -0.048876         3    ;  uncertainty k = 0.180845
        15        19        24        45     9      180.000000        0.185706         4    ;  uncertainty k = 0.116522
        15        19        24        46     9        0.000000       -0.453757         1    ;  uncertainty k = 0.883171
        15        19        24        46     9      180.000000       -0.663047         2    ;  uncertainty k = 0.318180
        15        19        24        46     9        0.000000       -0.048876         3    ;  uncertainty k = 0.180845
        15        19        24        46     9      180.000000        0.185706         4    ;  uncertainty k = 0.116522
        16         3         5        18     9        0.000000       -0.848835         1    ;  uncertainty k = 0.572178
        16         3         5        18     9      180.000000       18.406307         2    ;  uncertainty k = 0.533259
        16         3         5        18     9        0.000000        2.877073         3    ;  uncertainty k = 0.351762
        16         3         5        18     9      180.000000        1.532122         4    ;  uncertainty k = 0.487654
        16        17        14        38     9        0.000000       -0.742769         1    ;  uncertainty k = 0.479912
        16        17        14        38     9      180.000000        5.864103         2    ;  uncertainty k = 0.460545
        16        17        14        38     9        0.000000        0.852396         3    ;  uncertainty k = 0.213612
        16        17        14        38     9      180.000000        0.844814         4    ;  uncertainty k = 0.349382
        16        17        15        19     9        0.000000       -0.686566         1    ;  uncertainty k = 1.607407
        16        17        15        19     9      180.000000        6.080064         2    ;  uncertainty k = 0.867560
        16        17        15        19     9        0.000000        0.080805         3    ;  uncertainty k = 0.396701
        16        17        15        19     9      180.000000        0.878437         4    ;  uncertainty k = 0.334491
        17        15        19        23     9        0.000000       -0.294293         1    ;  uncertainty k = 1.893998
        17        15        19        23     9      180.000000       10.257981         2    ;  uncertainty k = 0.379706
        17        15        19        23     9        0.000000        0.584105         3    ;  uncertainty k = 0.396910
        17        15        19        23     9      180.000000        0.265252         4    ;  uncertainty k = 0.309730
        17        15        19        24     9        0.000000       -0.294293         1    ;  uncertainty k = 1.893998
        17        15        19        24     9      180.000000       10.257981         2    ;  uncertainty k = 0.379706
        17        15        19        24     9        0.000000        0.584105         3    ;  uncertainty k = 0.396910
        17        15        19        24     9      180.000000        0.265252         4    ;  uncertainty k = 0.309730
        17        16        13        31     9        0.000000        0.401070         1    ;  uncertainty k = 0.776287
        17        16        13        31     9      180.000000        8.121014         2    ;  uncertainty k = 0.674722
        17        16        13        31     9        0.000000        1.388850         3    ;  uncertainty k = 0.226504
        17        16        13        31     9      180.000000        1.475786         4    ;  uncertainty k = 0.217646
        18        20        22        21     9        0.000000        2.521977         1    ;  uncertainty k = 1.386164
        18        20        22        21     9      180.000000       18.783140         2    ;  uncertainty k = 0.270219
        18        20        22        21     9        0.000000       -1.199735         3    ;  uncertainty k = 0.191930
        18        20        22        21     9      180.000000       -0.239039         4    ;  uncertainty k = 0.575259
        18        20        22        32     9        0.000000        0.058131         1    ;  uncertainty k = 1.007919
        18        20        22        32     9      180.000000       -0.782003         2    ;  uncertainty k = 0.440086
        18        20        22        32     9        0.000000        0.844422         3    ;  uncertainty k = 0.378329
        18        20        22        32     9      180.000000        0.108838         4    ;  uncertainty k = 0.284519
        18        20        22        33     9        0.000000        0.058131         1    ;  uncertainty k = 1.007919
        18        20        22        33     9      180.000000       -0.782003         2    ;  uncertainty k = 0.440086
        18        20        22        33     9        0.000000        0.844422         3    ;  uncertainty k = 0.378329
        18        20        22        33     9      180.000000        0.108838         4    ;  uncertainty k = 0.284519
        18        21        22        20     9        0.000000        2.521977         1    ;  uncertainty k = 1.386164
        18        21        22        20     9      180.000000       18.783140         2    ;  uncertainty k = 0.270219
        18        21        22        20     9        0.000000       -1.199735         3    ;  uncertainty k = 0.191930
        18        21        22        20     9      180.000000       -0.239039         4    ;  uncertainty k = 0.575259
        18        21        22        32     9        0.000000        0.058131         1    ;  uncertainty k = 1.007919
        18        21        22        32     9      180.000000       -0.782003         2    ;  uncertainty k = 0.440086
        18        21        22        32     9        0.000000        0.844422         3    ;  uncertainty k = 0.378329
        18        21        22        32     9      180.000000        0.108838         4    ;  uncertainty k = 0.284519
        18        21        22        33     9        0.000000        0.058131         1    ;  uncertainty k = 1.007919
        18        21        22        33     9      180.000000       -0.782003         2    ;  uncertainty k = 0.440086
        18        21        22        33     9        0.000000        0.844422         3    ;  uncertainty k = 0.378329
        18        21        22        33     9      180.000000        0.108838         4    ;  uncertainty k = 0.284519
        19        23        27        25     9        0.000000        8.203331         1    ;  uncertainty k = 2.317277
        19        23        27        25     9      180.000000        2.152997         2    ;  uncertainty k = 1.371599
        19        23        27        25     9        0.000000        1.657800         3    ;  uncertainty k = 0.316827
        19        23        27        25     9      180.000000       -0.409323         4    ;  uncertainty k = 0.202208
        19        23        27        29     9        0.000000        8.631171         1    ;  uncertainty k = 1.204307
        19        23        27        29     9      180.000000       -3.425052         2    ;  uncertainty k = 1.315723
        19        23        27        29     9        0.000000        2.181269         3    ;  uncertainty k = 0.226803
        19        23        27        29     9      180.000000       -0.496535         4    ;  uncertainty k = 0.343076
        19        23        27        51     9        0.000000        1.522087         1    ;  uncertainty k = 0.401883
        19        23        27        51     9      180.000000       -2.130253         2    ;  uncertainty k = 2.210968
        19        23        27        51     9        0.000000        0.525188         3    ;  uncertainty k = 0.431419
        19        23        27        51     9      180.000000        0.301870         4    ;  uncertainty k = 0.506101
        19        24        28        26     9        0.000000        8.203331         1    ;  uncertainty k = 2.317277
        19        24        28        26     9      180.000000        2.152997         2    ;  uncertainty k = 1.371599
        19        24        28        26     9        0.000000        1.657800         3    ;  uncertainty k = 0.316827
        19        24        28        26     9      180.000000       -0.409323         4    ;  uncertainty k = 0.202208
        19        24        28        29     9        0.000000        8.631171         1    ;  uncertainty k = 1.204307
        19        24        28        29     9      180.000000       -3.425052         2    ;  uncertainty k = 1.315723
        19        24        28        29     9        0.000000        2.181269         3    ;  uncertainty k = 0.226803
        19        24        28        29     9      180.000000       -0.496535         4    ;  uncertainty k = 0.343076
        19        24        28        52     9        0.000000        1.522087         1    ;  uncertainty k = 0.401883
        19        24        28        52     9      180.000000       -2.130253         2    ;  uncertainty k = 2.210968
        19        24        28        52     9        0.000000        0.525188         3    ;  uncertainty k = 0.431419
        19        24        28        52     9      180.000000        0.301870         4    ;  uncertainty k = 0.506101
        20        18        21        22     9        0.000000        0.309878         1    ;  uncertainty k = 2.306675
        20        18        21        22     9      180.000000       21.483887         2    ;  uncertainty k = 0.844768
        20        18        21        22     9        0.000000       -0.395125         3    ;  uncertainty k = 0.617851
        20        18        21        22     9      180.000000        0.158234         4    ;  uncertainty k = 0.375481
        20        18        21        41     9        0.000000        0.729903         1    ;  uncertainty k = 0.735749
        20        18        21        41     9      180.000000        0.665758         2    ;  uncertainty k = 1.177643
        20        18        21        41     9        0.000000        0.507740         3    ;  uncertainty k = 0.353810
        20        18        21        41     9      180.000000        0.268597         4    ;  uncertainty k = 0.376077
        20        18        21        42     9        0.000000        0.729903         1    ;  uncertainty k = 0.735749
        20        18        21        42     9      180.000000        0.665758         2    ;  uncertainty k = 1.177643
        20        18        21        42     9        0.000000        0.507740         3    ;  uncertainty k = 0.353810
        20        18        21        42     9      180.000000        0.268597         4    ;  uncertainty k = 0.376077
        20        22        21        41     9        0.000000        0.127982         1    ;  uncertainty k = 0.908374
        20        22        21        41     9      180.000000       -0.027609         2    ;  uncertainty k = 0.342467
        20        22        21        41     9        0.000000        0.255595         3    ;  uncertainty k = 0.205164
        20        22        21        41     9      180.000000        0.095858         4    ;  uncertainty k = 0.190176
        20        22        21        42     9        0.000000        0.127982         1    ;  uncertainty k = 0.908374
        20        22        21        42     9      180.000000       -0.027609         2    ;  uncertainty k = 0.342467
        20        22        21        42     9        0.000000        0.255595         3    ;  uncertainty k = 0.205164
        20        22        21        42     9      180.000000        0.095858         4    ;  uncertainty k = 0.190176
        21        18        20        22     9        0.000000        0.309878         1    ;  uncertainty k = 2.306675
        21        18        20        22     9      180.000000       21.483887         2    ;  uncertainty k = 0.844768
        21        18        20        22     9        0.000000       -0.395125         3    ;  uncertainty k = 0.617851
        21        18        20        22     9      180.000000        0.158234         4    ;  uncertainty k = 0.375481
        21        18        20        39     9        0.000000        0.729903         1    ;  uncertainty k = 0.735749
        21        18        20        39     9      180.000000        0.665758         2    ;  uncertainty k = 1.177643
        21        18        20        39     9        0.000000        0.507740         3    ;  uncertainty k = 0.353810
        21        18        20        39     9      180.000000        0.268597         4    ;  uncertainty k = 0.376077
        21        18        20        40     9        0.000000        0.729903         1    ;  uncertainty k = 0.735749
        21        18        20        40     9      180.000000        0.665758         2    ;  uncertainty k = 1.177643
        21        18        20        40     9        0.000000        0.507740         3    ;  uncertainty k = 0.353810
        21        18        20        40     9      180.000000        0.268597         4    ;  uncertainty k = 0.376077
        21        22        20        39     9        0.000000        0.127982         1    ;  uncertainty k = 0.908374
        21        22        20        39     9      180.000000       -0.027609         2    ;  uncertainty k = 0.342467
        21        22        20        39     9        0.000000        0.255595         3    ;  uncertainty k = 0.205164
        21        22        20        39     9      180.000000        0.095858         4    ;  uncertainty k = 0.190176
        21        22        20        40     9        0.000000        0.127982         1    ;  uncertainty k = 0.908374
        21        22        20        40     9      180.000000       -0.027609         2    ;  uncertainty k = 0.342467
        21        22        20        40     9        0.000000        0.255595         3    ;  uncertainty k = 0.205164
        21        22        20        40     9      180.000000        0.095858         4    ;  uncertainty k = 0.190176
        22        20        18        53     9        0.000000       -0.462177         1    ;  uncertainty k = 0.988634
        22        20        18        53     9      180.000000        3.669578         2    ;  uncertainty k = 1.873034
        22        20        18        53     9        0.000000        0.931927         3    ;  uncertainty k = 0.296627
        22        20        18        53     9      180.000000       -0.296510         4    ;  uncertainty k = 0.299344
        22        21        18        53     9        0.000000       -0.462177         1    ;  uncertainty k = 0.988634
        22        21        18        53     9      180.000000        3.669578         2    ;  uncertainty k = 1.873034
        22        21        18        53     9        0.000000        0.931927         3    ;  uncertainty k = 0.296627
        22        21        18        53     9      180.000000       -0.296510         4    ;  uncertainty k = 0.299344
        23        19        24        28     9        0.000000        0.806330         1    ;  uncertainty k = 2.992091
        23        19        24        28     9      180.000000       -3.779432         2    ;  uncertainty k = 1.162793
        23        19        24        28     9        0.000000        0.628665         3    ;  uncertainty k = 0.344766
        23        19        24        28     9      180.000000       -0.071682         4    ;  uncertainty k = 0.210185
        23        19        24        45     9        0.000000       -4.162437         1    ;  uncertainty k = 1.392801
        23        19        24        45     9      180.000000        0.530810         2    ;  uncertainty k = 0.707188
        23        19        24        45     9        0.000000        0.943590         3    ;  uncertainty k = 0.057867
        23        19        24        45     9      180.000000       -0.089404         4    ;  uncertainty k = 0.118880
        23        19        24        46     9        0.000000       -4.162437         1    ;  uncertainty k = 1.392801
        23        19        24        46     9      180.000000        0.530810         2    ;  uncertainty k = 0.707188
        23        19        24        46     9        0.000000        0.943590         3    ;  uncertainty k = 0.057867
        23        19        24        46     9      180.000000       -0.089404         4    ;  uncertainty k = 0.118880
        23        27        25        26     9        0.000000        1.425980         1    ;  uncertainty k = 2.348982
        23        27        25        26     9      180.000000        1.085251         2    ;  uncertainty k = 1.083517
        23        27        25        26     9        0.000000        1.042529         3    ;  uncertainty k = 0.388855
        23        27        25        26     9      180.000000       -0.396419         4    ;  uncertainty k = 0.415100
        23        27        25        47     9        0.000000       -0.935671         1    ;  uncertainty k = 0.319566
        23        27        25        47     9      180.000000       -0.073399         2    ;  uncertainty k = 0.323153
        23        27        25        47     9        0.000000        0.584904         3    ;  uncertainty k = 0.288153
        23        27        25        47     9      180.000000       -0.098098         4    ;  uncertainty k = 0.050566
        23        27        25        48     9        0.000000       -0.935671         1    ;  uncertainty k = 0.319566
        23        27        25        48     9      180.000000       -0.073399         2    ;  uncertainty k = 0.323153
        23        27        25        48     9        0.000000        0.584904         3    ;  uncertainty k = 0.288153
        23        27        25        48     9      180.000000       -0.098098         4    ;  uncertainty k = 0.050566
        23        27        29        28     9        0.000000        2.332970         1    ;  uncertainty k = 3.433746
        23        27        29        28     9      180.000000       -0.969465         2    ;  uncertainty k = 2.647798
        23        27        29        28     9        0.000000        0.669799         3    ;  uncertainty k = 0.434210
        23        27        29        28     9      180.000000       -0.707708         4    ;  uncertainty k = 0.580677
        23        27        29        54     9        0.000000        1.449086         1    ;  uncertainty k = 1.710021
        23        27        29        54     9      180.000000       -0.149482         2    ;  uncertainty k = 1.068320
        23        27        29        54     9        0.000000        0.745969         3    ;  uncertainty k = 0.389032
        23        27        29        54     9      180.000000        0.030759         4    ;  uncertainty k = 0.168263
        23        27        29        55     9        0.000000        1.449086         1    ;  uncertainty k = 1.710021
        23        27        29        55     9      180.000000       -0.149482         2    ;  uncertainty k = 1.068320
        23        27        29        55     9        0.000000        0.745969         3    ;  uncertainty k = 0.389032
        23        27        29        55     9      180.000000        0.030759         4    ;  uncertainty k = 0.168263
        24        19        23        27     9        0.000000        0.806330         1    ;  uncertainty k = 2.992091
        24        19        23        27     9      180.000000       -3.779432         2    ;  uncertainty k = 1.162793
        24        19        23        27     9        0.000000        0.628665         3    ;  uncertainty k = 0.344766
        24        19        23        27     9      180.000000       -0.071682         4    ;  uncertainty k = 0.210185
        24        19        23        43     9        0.000000       -4.162437         1    ;  uncertainty k = 1.392801
        24        19        23        43     9      180.000000        0.530810         2    ;  uncertainty k = 0.707188
        24        19        23        43     9        0.000000        0.943590         3    ;  uncertainty k = 0.057867
        24        19        23        43     9      180.000000       -0.089404         4    ;  uncertainty k = 0.118880
        24        19        23        44     9        0.000000       -4.162437         1    ;  uncertainty k = 1.392801
        24        19        23        44     9      180.000000        0.530810         2    ;  uncertainty k = 0.707188
        24        19        23        44     9        0.000000        0.943590         3    ;  uncertainty k = 0.057867
        24        19        23        44     9      180.000000       -0.089404         4    ;  uncertainty k = 0.118880
        24        28        26        25     9        0.000000        1.425980         1    ;  uncertainty k = 2.348982
        24        28        26        25     9      180.000000        1.085251         2    ;  uncertainty k = 1.083517
        24        28        26        25     9        0.000000        1.042529         3    ;  uncertainty k = 0.388855
        24        28        26        25     9      180.000000       -0.396419         4    ;  uncertainty k = 0.415100
        24        28        26        49     9        0.000000       -0.935671         1    ;  uncertainty k = 0.319566
        24        28        26        49     9      180.000000       -0.073399         2    ;  uncertainty k = 0.323153
        24        28        26        49     9        0.000000        0.584904         3    ;  uncertainty k = 0.288153
        24        28        26        49     9      180.000000       -0.098098         4    ;  uncertainty k = 0.050566
        24        28        26        50     9        0.000000       -0.935671         1    ;  uncertainty k = 0.319566
        24        28        26        50     9      180.000000       -0.073399         2    ;  uncertainty k = 0.323153
        24        28        26        50     9        0.000000        0.584904         3    ;  uncertainty k = 0.288153
        24        28        26        50     9      180.000000       -0.098098         4    ;  uncertainty k = 0.050566
        24        28        29        27     9        0.000000        2.332970         1    ;  uncertainty k = 3.433746
        24        28        29        27     9      180.000000       -0.969465         2    ;  uncertainty k = 2.647798
        24        28        29        27     9        0.000000        0.669799         3    ;  uncertainty k = 0.434210
        24        28        29        27     9      180.000000       -0.707708         4    ;  uncertainty k = 0.580677
        24        28        29        54     9        0.000000        1.449086         1    ;  uncertainty k = 1.710021
        24        28        29        54     9      180.000000       -0.149482         2    ;  uncertainty k = 1.068320
        24        28        29        54     9        0.000000        0.745969         3    ;  uncertainty k = 0.389032
        24        28        29        54     9      180.000000        0.030759         4    ;  uncertainty k = 0.168263
        24        28        29        55     9        0.000000        1.449086         1    ;  uncertainty k = 1.710021
        24        28        29        55     9      180.000000       -0.149482         2    ;  uncertainty k = 1.068320
        24        28        29        55     9        0.000000        0.745969         3    ;  uncertainty k = 0.389032
        24        28        29        55     9      180.000000        0.030759         4    ;  uncertainty k = 0.168263
        25        26        28        29     9        0.000000        0.189325         1    ;  uncertainty k = 1.089258
        25        26        28        29     9      180.000000        0.699805         2    ;  uncertainty k = 0.973193
        25        26        28        29     9        0.000000        2.265728         3    ;  uncertainty k = 0.479934
        25        26        28        29     9      180.000000       -1.705008         4    ;  uncertainty k = 0.384238
        25        26        28        52     9        0.000000       -0.957162         1    ;  uncertainty k = 1.390038
        25        26        28        52     9      180.000000        0.911072         2    ;  uncertainty k = 0.870351
        25        26        28        52     9        0.000000        0.472912         3    ;  uncertainty k = 0.357987
        25        26        28        52     9      180.000000       -0.015053         4    ;  uncertainty k = 0.294989
        25        27        23        43     9        0.000000       -1.591268         1    ;  uncertainty k = 0.965380
        25        27        23        43     9      180.000000        0.142376         2    ;  uncertainty k = 0.299071
        25        27        23        43     9        0.000000        0.343526         3    ;  uncertainty k = 0.196373
        25        27        23        43     9      180.000000       -0.030757         4    ;  uncertainty k = 0.039234
        25        27        23        44     9        0.000000       -1.591268         1    ;  uncertainty k = 0.965380
        25        27        23        44     9      180.000000        0.142376         2    ;  uncertainty k = 0.299071
        25        27        23        44     9        0.000000        0.343526         3    ;  uncertainty k = 0.196373
        25        27        23        44     9      180.000000       -0.030757         4    ;  uncertainty k = 0.039234
        25        27        29        28     9        0.000000       -2.863887         1    ;  uncertainty k = 0.953350
        25        27        29        28     9      180.000000        5.881053         2    ;  uncertainty k = 1.496647
        25        27        29        28     9        0.000000        0.959501         3    ;  uncertainty k = 0.308107
        25        27        29        28     9      180.000000       -1.578220         4    ;  uncertainty k = 0.785950
        25        27        29        54     9        0.000000       -1.262214         1    ;  uncertainty k = 1.005155
        25        27        29        54     9      180.000000        2.725547         2    ;  uncertainty k = 0.732838
        25        27        29        54     9        0.000000        0.844380         3    ;  uncertainty k = 0.439476
        25        27        29        54     9      180.000000       -0.092959         4    ;  uncertainty k = 0.177018
        25        27        29        55     9        0.000000       -1.262214         1    ;  uncertainty k = 1.005155
        25        27        29        55     9      180.000000        2.725547         2    ;  uncertainty k = 0.732838
        25        27        29        55     9        0.000000        0.844380         3    ;  uncertainty k = 0.439476
        25        27        29        55     9      180.000000       -0.092959         4    ;  uncertainty k = 0.177018
        26        25        27        29     9        0.000000        0.189325         1    ;  uncertainty k = 1.089258
        26        25        27        29     9      180.000000        0.699805         2    ;  uncertainty k = 0.973193
        26        25        27        29     9        0.000000        2.265728         3    ;  uncertainty k = 0.479934
        26        25        27        29     9      180.000000       -1.705008         4    ;  uncertainty k = 0.384238
        26        25        27        51     9        0.000000       -0.957162         1    ;  uncertainty k = 1.390038
        26        25        27        51     9      180.000000        0.911072         2    ;  uncertainty k = 0.870351
        26        25        27        51     9        0.000000        0.472912         3    ;  uncertainty k = 0.357987
        26        25        27        51     9      180.000000       -0.015053         4    ;  uncertainty k = 0.294989
        26        28        24        45     9        0.000000       -1.591268         1    ;  uncertainty k = 0.965380
        26        28        24        45     9      180.000000        0.142376         2    ;  uncertainty k = 0.299071
        26        28        24        45     9        0.000000        0.343526         3    ;  uncertainty k = 0.196373
        26        28        24        45     9      180.000000       -0.030757         4    ;  uncertainty k = 0.039234
        26        28        24        46     9        0.000000       -1.591268         1    ;  uncertainty k = 0.965380
        26        28        24        46     9      180.000000        0.142376         2    ;  uncertainty k = 0.299071
        26        28        24        46     9        0.000000        0.343526         3    ;  uncertainty k = 0.196373
        26        28        24        46     9      180.000000       -0.030757         4    ;  uncertainty k = 0.039234
        26        28        29        27     9        0.000000       -2.863887         1    ;  uncertainty k = 0.953350
        26        28        29        27     9      180.000000        5.881053         2    ;  uncertainty k = 1.496647
        26        28        29        27     9        0.000000        0.959501         3    ;  uncertainty k = 0.308107
        26        28        29        27     9      180.000000       -1.578220         4    ;  uncertainty k = 0.785950
        26        28        29        54     9        0.000000       -1.262214         1    ;  uncertainty k = 1.005155
        26        28        29        54     9      180.000000        2.725547         2    ;  uncertainty k = 0.732838
        26        28        29        54     9        0.000000        0.844380         3    ;  uncertainty k = 0.439476
        26        28        29        54     9      180.000000       -0.092959         4    ;  uncertainty k = 0.177018
        26        28        29        55     9        0.000000       -1.262214         1    ;  uncertainty k = 1.005155
        26        28        29        55     9      180.000000        2.725547         2    ;  uncertainty k = 0.732838
        26        28        29        55     9        0.000000        0.844380         3    ;  uncertainty k = 0.439476
        26        28        29        55     9      180.000000       -0.092959         4    ;  uncertainty k = 0.177018
        27        25        26        28     9        0.000000       -2.135286         1    ;  uncertainty k = 3.339579
        27        25        26        28     9      180.000000        7.371280         2    ;  uncertainty k = 1.668222
        27        25        26        28     9        0.000000        0.556706         3    ;  uncertainty k = 0.529877
        27        25        26        28     9      180.000000       -1.870356         4    ;  uncertainty k = 0.587895
        27        25        26        49     9        0.000000       -1.534652         1    ;  uncertainty k = 0.857223
        27        25        26        49     9      180.000000        0.015554         2    ;  uncertainty k = 0.276002
        27        25        26        49     9        0.000000        0.812494         3    ;  uncertainty k = 0.034992
        27        25        26        49     9      180.000000        0.159228         4    ;  uncertainty k = 0.085386
        27        25        26        50     9        0.000000       -1.534652         1    ;  uncertainty k = 0.857223
        27        25        26        50     9      180.000000        0.015554         2    ;  uncertainty k = 0.276002
        27        25        26        50     9        0.000000        0.812494         3    ;  uncertainty k = 0.034992
        27        25        26        50     9      180.000000        0.159228         4    ;  uncertainty k = 0.085386
        27        29        28        52     9        0.000000       -2.464296         1    ;  uncertainty k = 3.480426
        27        29        28        52     9      180.000000       -1.153886         2    ;  uncertainty k = 0.886334
        27        29        28        52     9        0.000000        0.163905         3    ;  uncertainty k = 0.495814
        27        29        28        52     9      180.000000       -0.156421         4    ;  uncertainty k = 0.288580
        28        26        25        47     9        0.000000       -1.534652         1    ;  uncertainty k = 0.857223
        28        26        25        47     9      180.000000        0.015554         2    ;  uncertainty k = 0.276002
        28        26        25        47     9        0.000000        0.812494         3    ;  uncertainty k = 0.034992
        28        26        25        47     9      180.000000        0.159228         4    ;  uncertainty k = 0.085386
        28        26        25        48     9        0.000000       -1.534652         1    ;  uncertainty k = 0.857223
        28        26        25        48     9      180.000000        0.015554         2    ;  uncertainty k = 0.276002
        28        26        25        48     9        0.000000        0.812494         3    ;  uncertainty k = 0.034992
        28        26        25        48     9      180.000000        0.159228         4    ;  uncertainty k = 0.085386
        28        29        27        51     9        0.000000       -2.464296         1    ;  uncertainty k = 3.480426
        28        29        27        51     9      180.000000       -1.153886         2    ;  uncertainty k = 0.886334
        28        29        27        51     9        0.000000        0.163905         3    ;  uncertainty k = 0.495814
        28        29        27        51     9      180.000000       -0.156421         4    ;  uncertainty k = 0.288580
        29        27        23        43     9        0.000000       -1.226083         1    ;  uncertainty k = 2.151710
        29        27        23        43     9      180.000000       -0.881110         2    ;  uncertainty k = 0.372614
        29        27        23        43     9        0.000000        0.771596         3    ;  uncertainty k = 0.306669
        29        27        23        43     9      180.000000       -0.188527         4    ;  uncertainty k = 0.228071
        29        27        23        44     9        0.000000       -1.226083         1    ;  uncertainty k = 2.151710
        29        27        23        44     9      180.000000       -0.881110         2    ;  uncertainty k = 0.372614
        29        27        23        44     9        0.000000        0.771596         3    ;  uncertainty k = 0.306669
        29        27        23        44     9      180.000000       -0.188527         4    ;  uncertainty k = 0.228071
        29        27        25        47     9        0.000000       -2.507567         1    ;  uncertainty k = 1.392526
        29        27        25        47     9      180.000000       -0.064909         2    ;  uncertainty k = 0.466806
        29        27        25        47     9        0.000000        1.243318         3    ;  uncertainty k = 0.217719
        29        27        25        47     9      180.000000       -0.274757         4    ;  uncertainty k = 0.163796
        29        27        25        48     9        0.000000       -2.507567         1    ;  uncertainty k = 1.392526
        29        27        25        48     9      180.000000       -0.064909         2    ;  uncertainty k = 0.466806
        29        27        25        48     9        0.000000        1.243318         3    ;  uncertainty k = 0.217719
        29        27        25        48     9      180.000000       -0.274757         4    ;  uncertainty k = 0.163796
        29        28        24        45     9        0.000000       -1.226083         1    ;  uncertainty k = 2.151710
        29        28        24        45     9      180.000000       -0.881110         2    ;  uncertainty k = 0.372614
        29        28        24        45     9        0.000000        0.771596         3    ;  uncertainty k = 0.306669
        29        28        24        45     9      180.000000       -0.188527         4    ;  uncertainty k = 0.228071
        29        28        24        46     9        0.000000       -1.226083         1    ;  uncertainty k = 2.151710
        29        28        24        46     9      180.000000       -0.881110         2    ;  uncertainty k = 0.372614
        29        28        24        46     9        0.000000        0.771596         3    ;  uncertainty k = 0.306669
        29        28        24        46     9      180.000000       -0.188527         4    ;  uncertainty k = 0.228071
        29        28        26        49     9        0.000000       -2.507567         1    ;  uncertainty k = 1.392526
        29        28        26        49     9      180.000000       -0.064909         2    ;  uncertainty k = 0.466806
        29        28        26        49     9        0.000000        1.243318         3    ;  uncertainty k = 0.217719
        29        28        26        49     9      180.000000       -0.274757         4    ;  uncertainty k = 0.163796
        29        28        26        50     9        0.000000       -2.507567         1    ;  uncertainty k = 1.392526
        29        28        26        50     9      180.000000       -0.064909         2    ;  uncertainty k = 0.466806
        29        28        26        50     9        0.000000        1.243318         3    ;  uncertainty k = 0.217719
        29        28        26        50     9      180.000000       -0.274757         4    ;  uncertainty k = 0.163796
        30         9         7        35     9        0.000000       -0.282725         1    ;  uncertainty k = 0.267737
        30         9         7        35     9      180.000000        9.460360         2    ;  uncertainty k = 0.433737
        30         9         7        35     9        0.000000        0.834708         3    ;  uncertainty k = 0.257741
        30         9         7        35     9      180.000000        1.180922         4    ;  uncertainty k = 0.329512
        32        22        20        39     9        0.000000        0.104914         1    ;  uncertainty k = 0.221427
        32        22        20        39     9      180.000000       -0.705239         2    ;  uncertainty k = 0.248770
        32        22        20        39     9        0.000000        1.266358         3    ;  uncertainty k = 0.133182
        32        22        20        39     9      180.000000        0.118058         4    ;  uncertainty k = 0.041357
        32        22        20        40     9        0.000000        0.104914         1    ;  uncertainty k = 0.221427
        32        22        20        40     9      180.000000       -0.705239         2    ;  uncertainty k = 0.248770
        32        22        20        40     9        0.000000        1.266358         3    ;  uncertainty k = 0.133182
        32        22        20        40     9      180.000000        0.118058         4    ;  uncertainty k = 0.041357
        32        22        21        41     9        0.000000        0.104914         1    ;  uncertainty k = 0.221427
        32        22        21        41     9      180.000000       -0.705239         2    ;  uncertainty k = 0.248770
        32        22        21        41     9        0.000000        1.266358         3    ;  uncertainty k = 0.133182
        32        22        21        41     9      180.000000        0.118058         4    ;  uncertainty k = 0.041357
        32        22        21        42     9        0.000000        0.104914         1    ;  uncertainty k = 0.221427
        32        22        21        42     9      180.000000       -0.705239         2    ;  uncertainty k = 0.248770
        32        22        21        42     9        0.000000        1.266358         3    ;  uncertainty k = 0.133182
        32        22        21        42     9      180.000000        0.118058         4    ;  uncertainty k = 0.041357
        33        22        20        39     9        0.000000        0.104914         1    ;  uncertainty k = 0.221427
        33        22        20        39     9      180.000000       -0.705239         2    ;  uncertainty k = 0.248770
        33        22        20        39     9        0.000000        1.266358         3    ;  uncertainty k = 0.133182
        33        22        20        39     9      180.000000        0.118058         4    ;  uncertainty k = 0.041357
        33        22        20        40     9        0.000000        0.104914         1    ;  uncertainty k = 0.221427
        33        22        20        40     9      180.000000       -0.705239         2    ;  uncertainty k = 0.248770
        33        22        20        40     9        0.000000        1.266358         3    ;  uncertainty k = 0.133182
        33        22        20        40     9      180.000000        0.118058         4    ;  uncertainty k = 0.041357
        33        22        21        41     9        0.000000        0.104914         1    ;  uncertainty k = 0.221427
        33        22        21        41     9      180.000000       -0.705239         2    ;  uncertainty k = 0.248770
        33        22        21        41     9        0.000000        1.266358         3    ;  uncertainty k = 0.133182
        33        22        21        41     9      180.000000        0.118058         4    ;  uncertainty k = 0.041357
        33        22        21        42     9        0.000000        0.104914         1    ;  uncertainty k = 0.221427
        33        22        21        42     9      180.000000       -0.705239         2    ;  uncertainty k = 0.248770
        33        22        21        42     9        0.000000        1.266358         3    ;  uncertainty k = 0.133182
        33        22        21        42     9      180.000000        0.118058         4    ;  uncertainty k = 0.041357
        36         8        10        37     9        0.000000        0.037586         1    ;  uncertainty k = 0.197353
        36         8        10        37     9      180.000000        7.786471         2    ;  uncertainty k = 0.464543
        36         8        10        37     9        0.000000       -0.278018         3    ;  uncertainty k = 0.273220
        36         8        10        37     9      180.000000        0.282957         4    ;  uncertainty k = 0.180881
        39        20        18        53     9        0.000000        0.542078         1    ;  uncertainty k = 0.516468
        39        20        18        53     9      180.000000       -0.862515         2    ;  uncertainty k = 0.579778
        39        20        18        53     9        0.000000        0.916615         3    ;  uncertainty k = 0.219024
        39        20        18        53     9      180.000000        0.237163         4    ;  uncertainty k = 0.119103
        40        20        18        53     9        0.000000        0.542078         1    ;  uncertainty k = 0.516468
        40        20        18        53     9      180.000000       -0.862515         2    ;  uncertainty k = 0.579778
        40        20        18        53     9        0.000000        0.916615         3    ;  uncertainty k = 0.219024
        40        20        18        53     9      180.000000        0.237163         4    ;  uncertainty k = 0.119103
        41        21        18        53     9        0.000000        0.542078         1    ;  uncertainty k = 0.516468
        41        21        18        53     9      180.000000       -0.862515         2    ;  uncertainty k = 0.579778
        41        21        18        53     9        0.000000        0.916615         3    ;  uncertainty k = 0.219024
        41        21        18        53     9      180.000000        0.237163         4    ;  uncertainty k = 0.119103
        42        21        18        53     9        0.000000        0.542078         1    ;  uncertainty k = 0.516468
        42        21        18        53     9      180.000000       -0.862515         2    ;  uncertainty k = 0.579778
        42        21        18        53     9        0.000000        0.916615         3    ;  uncertainty k = 0.219024
        42        21        18        53     9      180.000000        0.237163         4    ;  uncertainty k = 0.119103
        43        23        27        51     9        0.000000       -0.439453         1    ;  uncertainty k = 0.906270
        43        23        27        51     9      180.000000        0.487196         2    ;  uncertainty k = 0.479541
        43        23        27        51     9        0.000000        0.253526         3    ;  uncertainty k = 0.175912
        43        23        27        51     9      180.000000       -0.139844         4    ;  uncertainty k = 0.167927
        44        23        27        51     9        0.000000       -0.439453         1    ;  uncertainty k = 0.906270
        44        23        27        51     9      180.000000        0.487196         2    ;  uncertainty k = 0.479541
        44        23        27        51     9        0.000000        0.253526         3    ;  uncertainty k = 0.175912
        44        23        27        51     9      180.000000       -0.139844         4    ;  uncertainty k = 0.167927
        45        24        28        52     9        0.000000       -0.439453         1    ;  uncertainty k = 0.906270
        45        24        28        52     9      180.000000        0.487196         2    ;  uncertainty k = 0.479541
        45        24        28        52     9        0.000000        0.253526         3    ;  uncertainty k = 0.175912
        45        24        28        52     9      180.000000       -0.139844         4    ;  uncertainty k = 0.167927
        46        24        28        52     9        0.000000       -0.439453         1    ;  uncertainty k = 0.906270
        46        24        28        52     9      180.000000        0.487196         2    ;  uncertainty k = 0.479541
        46        24        28        52     9        0.000000        0.253526         3    ;  uncertainty k = 0.175912
        46        24        28        52     9      180.000000       -0.139844         4    ;  uncertainty k = 0.167927
        47        25        26        49     9        0.000000        1.361375         1    ;  uncertainty k = 0.592308
        47        25        26        49     9      180.000000       -0.075431         2    ;  uncertainty k = 0.471152
        47        25        26        49     9        0.000000        1.070581         3    ;  uncertainty k = 0.228523
        47        25        26        49     9      180.000000        0.077193         4    ;  uncertainty k = 0.031933
        47        25        26        50     9        0.000000        1.361375         1    ;  uncertainty k = 0.592308
        47        25        26        50     9      180.000000       -0.075431         2    ;  uncertainty k = 0.471152
        47        25        26        50     9        0.000000        1.070581         3    ;  uncertainty k = 0.228523
        47        25        26        50     9      180.000000        0.077193         4    ;  uncertainty k = 0.031933
        47        25        27        51     9        0.000000        1.228960         1    ;  uncertainty k = 0.553312
        47        25        27        51     9      180.000000       -0.001862         2    ;  uncertainty k = 0.239274
        47        25        27        51     9        0.000000        0.353228         3    ;  uncertainty k = 0.286861
        47        25        27        51     9      180.000000        0.045307         4    ;  uncertainty k = 0.112736
        48        25        26        49     9        0.000000        1.361375         1    ;  uncertainty k = 0.592308
        48        25        26        49     9      180.000000       -0.075431         2    ;  uncertainty k = 0.471152
        48        25        26        49     9        0.000000        1.070581         3    ;  uncertainty k = 0.228523
        48        25        26        49     9      180.000000        0.077193         4    ;  uncertainty k = 0.031933
        48        25        26        50     9        0.000000        1.361375         1    ;  uncertainty k = 0.592308
        48        25        26        50     9      180.000000       -0.075431         2    ;  uncertainty k = 0.471152
        48        25        26        50     9        0.000000        1.070581         3    ;  uncertainty k = 0.228523
        48        25        26        50     9      180.000000        0.077193         4    ;  uncertainty k = 0.031933
        48        25        27        51     9        0.000000        1.228960         1    ;  uncertainty k = 0.553312
        48        25        27        51     9      180.000000       -0.001862         2    ;  uncertainty k = 0.239274
        48        25        27        51     9        0.000000        0.353228         3    ;  uncertainty k = 0.286861
        48        25        27        51     9      180.000000        0.045307         4    ;  uncertainty k = 0.112736
        49        26        28        52     9        0.000000        1.228960         1    ;  uncertainty k = 0.553312
        49        26        28        52     9      180.000000       -0.001862         2    ;  uncertainty k = 0.239274
        49        26        28        52     9        0.000000        0.353228         3    ;  uncertainty k = 0.286861
        49        26        28        52     9      180.000000        0.045307         4    ;  uncertainty k = 0.112736
        50        26        28        52     9        0.000000        1.228960         1    ;  uncertainty k = 0.553312
        50        26        28        52     9      180.000000       -0.001862         2    ;  uncertainty k = 0.239274
        50        26        28        52     9        0.000000        0.353228         3    ;  uncertainty k = 0.286861
        50        26        28        52     9      180.000000        0.045307         4    ;  uncertainty k = 0.112736
        51        27        29        54     9        0.000000       -1.423009         1    ;  uncertainty k = 0.616459
        51        27        29        54     9      180.000000        1.515701         2    ;  uncertainty k = 1.087822
        51        27        29        54     9        0.000000        0.256623         3    ;  uncertainty k = 0.208319
        51        27        29        54     9      180.000000       -0.095640         4    ;  uncertainty k = 0.130121
        51        27        29        55     9        0.000000       -1.423009         1    ;  uncertainty k = 0.616459
        51        27        29        55     9      180.000000        1.515701         2    ;  uncertainty k = 1.087822
        51        27        29        55     9        0.000000        0.256623         3    ;  uncertainty k = 0.208319
        51        27        29        55     9      180.000000       -0.095640         4    ;  uncertainty k = 0.130121
        52        28        29        54     9        0.000000       -1.423009         1    ;  uncertainty k = 0.616459
        52        28        29        54     9      180.000000        1.515701         2    ;  uncertainty k = 1.087822
        52        28        29        54     9        0.000000        0.256623         3    ;  uncertainty k = 0.208319
        52        28        29        54     9      180.000000       -0.095640         4    ;  uncertainty k = 0.130121
        52        28        29        55     9        0.000000       -1.423009         1    ;  uncertainty k = 0.616459
        52        28        29        55     9      180.000000        1.515701         2    ;  uncertainty k = 1.087822
        52        28        29        55     9        0.000000        0.256623         3    ;  uncertainty k = 0.208319
        52        28        29        55     9      180.000000       -0.095640         4    ;  uncertainty k = 0.130121

[ dihedrals ] ; impropers
;       ai        aj        ak        al funct           phase               k        pn
         5         2         3        18     4      180.000000       32.175593         2    ;  uncertainty k = 0.121400
         5         3        18         2     4      180.000000       32.175593         2    ;  uncertainty k = 0.121400
         5        18         2         3     4      180.000000       32.175593         2    ;  uncertainty k = 0.121400
         6         1        12        13     4      180.000000       23.487857         2    ;  uncertainty k = 0.096202
         6        12        13         1     4      180.000000       23.487857         2    ;  uncertainty k = 0.096202
         6        13         1        12     4      180.000000       23.487857         2    ;  uncertainty k = 0.096202
         7         9        11        35     4      180.000000        0.694298         2    ;  uncertainty k = 0.499739
         7        11        35         9     4      180.000000        0.694298         2    ;  uncertainty k = 0.499739
         7        35         9        11     4      180.000000        0.694298         2    ;  uncertainty k = 0.499739
         8        10        11        36     4      180.000000        1.360625         2    ;  uncertainty k = 0.221763
         8        11        36        10     4      180.000000        1.360625         2    ;  uncertainty k = 0.221763
         8        36        10        11     4      180.000000        1.360625         2    ;  uncertainty k = 0.221763
         9         7        12        30     4      180.000000       17.733275         2    ;  uncertainty k = 0.086886
         9        12        30         7     4      180.000000       17.733275         2    ;  uncertainty k = 0.086886
         9        30         7        12     4      180.000000       17.733275         2    ;  uncertainty k = 0.086886
        10         8        12        37     4      180.000000        4.574709         2    ;  uncertainty k = 0.095718
        10        12        37         8     4      180.000000        4.574709         2    ;  uncertainty k = 0.095718
        10        37         8        12     4      180.000000        4.574709         2    ;  uncertainty k = 0.095718
        11         4         7         8     4      180.000000       19.943691         2    ;  uncertainty k = 0.027251
        11         7         8         4     4      180.000000       19.943691         2    ;  uncertainty k = 0.027251
        11         8         4         7     4      180.000000       19.943691         2    ;  uncertainty k = 0.027251
        12         6         9        10     4      180.000000        8.267357         2    ;  uncertainty k = 0.178285
        12         9        10         6     4      180.000000        8.267357         2    ;  uncertainty k = 0.178285
        12        10         6         9     4      180.000000        8.267357         2    ;  uncertainty k = 0.178285
        13         6        16        31     4      180.000000       14.554484         2    ;  uncertainty k = 0.106497
        13        16        31         6     4      180.000000       14.554484         2    ;  uncertainty k = 0.106497
        13        31         6        16     4      180.000000       14.554484         2    ;  uncertainty k = 0.106497
        14         1        17        38     4      180.000000       14.757991         2    ;  uncertainty k = 0.114705
        14        17        38         1     4      180.000000       14.757991         2    ;  uncertainty k = 0.114705
        14        38         1        17     4      180.000000       14.757991         2    ;  uncertainty k = 0.114705
        15         2        17        19     4      180.000000       35.806172         2    ;  uncertainty k = 0.127612
        15        17        19         2     4      180.000000       35.806172         2    ;  uncertainty k = 0.127612
        15        19         2        17     4      180.000000       35.806172         2    ;  uncertainty k = 0.127612
        16         3        13        17     4      180.000000       19.188737         2    ;  uncertainty k = 0.084046
        16        13        17         3     4      180.000000       19.188737         2    ;  uncertainty k = 0.084046
        16        17         3        13     4      180.000000       19.188737         2    ;  uncertainty k = 0.084046
        17        14        15        16     4      180.000000        7.192875         2    ;  uncertainty k = 0.300529
        17        15        16        14     4      180.000000        7.192875         2    ;  uncertainty k = 0.300529
        17        16        14        15     4      180.000000        7.192875         2    ;  uncertainty k = 0.300529

[ pairs ]
;       ai        aj funct
         1         9     1
         1        10     1
         1        15     1
         1        16     1
         1        31     1
         2        14     1
         2        16     1
         2        20     1
         2        21     1
         2        23     1
         2        24     1
         2        53     1
         3         6     1
         3        14     1
         3        15     1
         3        20     1
         3        21     1
         3        31     1
         3        53     1
         4         9     1
         4        10     1
         4        35     1
         4        36     1
         5        13     1
         5        17     1
         5        19     1
         5        22     1
         5        39     1
         5        40     1
         5        41     1
         5        42     1
         6         7     1
         6         8     1
         6        17     1
         6        30     1
         6        37     1
         6        38     1
         7        10     1
         7        34     1
         7        36     1
         8         9     1
         8        34     1
         8        35     1
         9        13     1
         9        37     1
        10        13     1
        10        30     1
        11        12     1
        11        30     1
        11        37     1
        12        14     1
        12        16     1
        12        31     1
        12        35     1
        12        36     1
        13        14     1
        13        15     1
        14        19     1
        15        18     1
        15        27     1
        15        28     1
        15        38     1
        15        43     1
        15        44     1
        15        45     1
        15        46     1
        16        18     1
        16        19     1
        16        38     1
        17        23     1
        17        24     1
        17        31     1
        18        32     1
        18        33     1
        19        25     1
        19        26     1
        19        29     1
        19        51     1
        19        52     1
        20        41     1
        20        42     1
        21        39     1
        21        40     1
        22        53     1
        23        26     1
        23        28     1
        23        45     1
        23        46     1
        23        47     1
        23        48     1
        23        54     1
        23        55     1
        24        25     1
        24        27     1
        24        43     1
        24        44     1
        24        49     1
        24        50     1
        24        54     1
        24        55     1
        25        43     1
        25        44     1
        25        52     1
        25        54     1
        25        55     1
        26        45     1
        26        46     1
        26        51     1
        26        54     1
        26        55     1
        27        49     1
        27        50     1
        27        52     1
        28        47     1
        28        48     1
        28        51     1
        29        43     1
        29        44     1
        29        45     1
        29        46     1
        29        47     1
        29        48     1
        29        49     1
        29        50     1
        30        35     1
        32        39     1
        32        40     1
        32        41     1
        32        42     1
        33        39     1
        33        40     1
        33        41     1
        33        42     1
        36        37     1
        39        53     1
        40        53     1
        41        53     1
        42        53     1
        43        51     1
        44        51     1
        45        52     1
        46        52     1
        47        49     1
        47        50     1
        47        51     1
        48        49     1
        48        50     1
        48        51     1
        49        52     1
        50        52     1
        51        54     1
        51        55     1
        52        54     1
        52        55     1
