; ITP file created by ByteFF-joint-25, 2026-01-07 07:35:55.297648

[ atomtypes ]
;name           bonded.type        at.num        mass        charge   ptype           sigma         epsilon
 c0bf                                   6      0.0000       0.00000       A     3.31609e-01     4.13754e-01    ;  uncertainty sigma = 0.000037, epsilon = 0.001385
 n1bf                                   7      0.0000       0.00000       A     3.38379e-01     3.93387e-01    ;  uncertainty sigma = 0.000023, epsilon = 0.000836
 o2bf                                   8      0.0000       0.00000       A     3.15717e-01     3.04039e-01    ;  uncertainty sigma = 0.000030, epsilon = 0.003724
 c3bf                                   6      0.0000       0.00000       A     3.31557e-01     4.13063e-01    ;  uncertainty sigma = 0.000015, epsilon = 0.001926
 n4bf                                   7      0.0000       0.00000       A     3.38414e-01     3.93806e-01    ;  uncertainty sigma = 0.000029, epsilon = 0.000903
 o5bf                                   8      0.0000       0.00000       A     3.24356e-01     3.88258e-01    ;  uncertainty sigma = 0.000013, epsilon = 0.001547
 c6bf                                   6      0.0000       0.00000       A     3.31540e-01     4.14420e-01    ;  uncertainty sigma = 0.000020, epsilon = 0.000938
 n7bf                                   7      0.0000       0.00000       A     3.38437e-01     3.93230e-01    ;  uncertainty sigma = 0.000018, epsilon = 0.000914
 c8bf                                   6      0.0000       0.00000       A     3.31572e-01     4.13781e-01    ;  uncertainty sigma = 0.000022, epsilon = 0.001282
 n9bf                                   7      0.0000       0.00000       A     3.19092e-01     8.99502e-01    ;  uncertainty sigma = 0.000028, epsilon = 0.008757
 c10bf                                  6      0.0000       0.00000       A     3.31513e-01     4.12956e-01    ;  uncertainty sigma = 0.000024, epsilon = 0.001063
 n11bf                                  7      0.0000       0.00000       A     2.67683e-01     7.09588e+00    ;  uncertainty sigma = 0.000108, epsilon = 0.014793
 c12bf                                  6      0.0000       0.00000       A     3.31535e-01     4.13307e-01    ;  uncertainty sigma = 0.000019, epsilon = 0.000890
 n13bf                                  7      0.0000       0.00000       A     2.58937e-01     1.06558e+01    ;  uncertainty sigma = 0.000176, epsilon = 0.002978
 c14bf                                  6      0.0000       0.00000       A     3.31565e-01     4.12785e-01    ;  uncertainty sigma = 0.000012, epsilon = 0.000504
 c15bf                                  6      0.0000       0.00000       A     3.31468e-01     4.13214e-01    ;  uncertainty sigma = 0.000012, epsilon = 0.000858
 c16bf                                  6      0.0000       0.00000       A     3.39602e-01     4.50333e-01    ;  uncertainty sigma = 0.000118, epsilon = 0.001842
 c17bf                                  6      0.0000       0.00000       A     3.39764e-01     4.51773e-01    ;  uncertainty sigma = 0.000031, epsilon = 0.001688
 c18bf                                  6      0.0000       0.00000       A     3.39827e-01     4.49600e-01    ;  uncertainty sigma = 0.000034, epsilon = 0.001832
 c19bf                                  6      0.0000       0.00000       A     3.39827e-01     4.49600e-01    ;  uncertainty sigma = 0.000034, epsilon = 0.001832
 c20bf                                  6      0.0000       0.00000       A     3.39764e-01     4.51773e-01    ;  uncertainty sigma = 0.000031, epsilon = 0.001688
 c21bf                                  6      0.0000       0.00000       A     3.39736e-01     4.50291e-01    ;  uncertainty sigma = 0.000017, epsilon = 0.001100
 c22bf                                  6      0.0000       0.00000       A     3.39736e-01     4.50291e-01    ;  uncertainty sigma = 0.000017, epsilon = 0.001100
 c23bf                                  6      0.0000       0.00000       A     3.31550e-01     4.13372e-01    ;  uncertainty sigma = 0.000017, epsilon = 0.001208
 c24bf                                  6      0.0000       0.00000       A     3.31494e-01     4.13657e-01    ;  uncertainty sigma = 0.000026, epsilon = 0.001346
 c25bf                                  6      0.0000       0.00000       A     3.31543e-01     4.13360e-01    ;  uncertainty sigma = 0.000007, epsilon = 0.000597
 c26bf                                  6      0.0000       0.00000       A     3.31523e-01     4.13519e-01    ;  uncertainty sigma = 0.000008, epsilon = 0.000880
 c27bf                                  6      0.0000       0.00000       A     3.31526e-01     4.13194e-01    ;  uncertainty sigma = 0.000005, epsilon = 0.000851
 c28bf                                  6      0.0000       0.00000       A     3.39780e-01     4.50806e-01    ;  uncertainty sigma = 0.000036, epsilon = 0.002297
 c29bf                                  6      0.0000       0.00000       A     3.39755e-01     4.50286e-01    ;  uncertainty sigma = 0.000032, epsilon = 0.000756
 c30bf                                  6      0.0000       0.00000       A     3.39752e-01     4.50838e-01    ;  uncertainty sigma = 0.000045, epsilon = 0.001063
 c31bf                                  6      0.0000       0.00000       A     3.39763e-01     4.51582e-01    ;  uncertainty sigma = 0.000016, epsilon = 0.001023
 c32bf                                  6      0.0000       0.00000       A     3.39763e-01     4.51582e-01    ;  uncertainty sigma = 0.000016, epsilon = 0.001023
 c33bf                                  6      0.0000       0.00000       A     3.39752e-01     4.50838e-01    ;  uncertainty sigma = 0.000045, epsilon = 0.001063
 c34bf                                  6      0.0000       0.00000       A     3.39755e-01     4.50286e-01    ;  uncertainty sigma = 0.000032, epsilon = 0.000756
 f35bf                                  9      0.0000       0.00000       A     3.03449e-01     3.48449e-01    ;  uncertainty sigma = 0.000028, epsilon = 0.000879
 f36bf                                  9      0.0000       0.00000       A     3.03359e-01     3.48619e-01    ;  uncertainty sigma = 0.000027, epsilon = 0.001735
 f37bf                                  9      0.0000       0.00000       A     3.03418e-01     3.47885e-01    ;  uncertainty sigma = 0.000029, epsilon = 0.001479
 f38bf                                  9      0.0000       0.00000       A     3.03431e-01     3.47731e-01    ;  uncertainty sigma = 0.000027, epsilon = 0.000923
 h39bf                                  1      0.0000       0.00000       A     5.37917e-02     1.92753e-02    ;  uncertainty sigma = 0.000080, epsilon = 0.001295
 h40bf                                  1      0.0000       0.00000       A     2.53623e-01     6.70308e-02    ;  uncertainty sigma = 0.000068, epsilon = 0.000562
 h41bf                                  1      0.0000       0.00000       A     1.10717e-01     3.90827e-02    ;  uncertainty sigma = 0.000124, epsilon = 0.002380
 h42bf                                  1      0.0000       0.00000       A     2.42234e-01     8.69300e-02    ;  uncertainty sigma = 0.000073, epsilon = 0.001078
 h43bf                                  1      0.0000       0.00000       A     2.42234e-01     8.69300e-02    ;  uncertainty sigma = 0.000073, epsilon = 0.001078
 h44bf                                  1      0.0000       0.00000       A     2.42256e-01     8.68712e-02    ;  uncertainty sigma = 0.000054, epsilon = 0.000742
 h45bf                                  1      0.0000       0.00000       A     2.42256e-01     8.68712e-02    ;  uncertainty sigma = 0.000054, epsilon = 0.000742
 h46bf                                  1      0.0000       0.00000       A     1.88892e-01     8.79018e-02    ;  uncertainty sigma = 0.000675, epsilon = 0.002116
 h47bf                                  1      0.0000       0.00000       A     1.88892e-01     8.79018e-02    ;  uncertainty sigma = 0.000675, epsilon = 0.002116
 h48bf                                  1      0.0000       0.00000       A     2.42256e-01     8.68712e-02    ;  uncertainty sigma = 0.000054, epsilon = 0.000742
 h49bf                                  1      0.0000       0.00000       A     2.42256e-01     8.68712e-02    ;  uncertainty sigma = 0.000054, epsilon = 0.000742
 h50bf                                  1      0.0000       0.00000       A     2.60051e-01     8.66631e-02    ;  uncertainty sigma = 0.000008, epsilon = 0.001058
 h51bf                                  1      0.0000       0.00000       A     2.60051e-01     8.66631e-02    ;  uncertainty sigma = 0.000008, epsilon = 0.001058
 h52bf                                  1      0.0000       0.00000       A     2.60051e-01     8.66631e-02    ;  uncertainty sigma = 0.000008, epsilon = 0.001058
 h53bf                                  1      0.0000       0.00000       A     2.60051e-01     8.66631e-02    ;  uncertainty sigma = 0.000008, epsilon = 0.001058
 h54bf                                  1      0.0000       0.00000       A     2.62564e-01     6.73383e-02    ;  uncertainty sigma = 0.000010, epsilon = 0.000372
 h55bf                                  1      0.0000       0.00000       A     2.60017e-01     8.67763e-02    ;  uncertainty sigma = 0.000029, epsilon = 0.000562
 h56bf                                  1      0.0000       0.00000       A     2.60017e-01     8.67763e-02    ;  uncertainty sigma = 0.000029, epsilon = 0.000562
 h57bf                                  1      0.0000       0.00000       A     2.59996e-01     8.64833e-02    ;  uncertainty sigma = 0.000020, epsilon = 0.000411
 h58bf                                  1      0.0000       0.00000       A     1.88743e-01     8.53835e-02    ;  uncertainty sigma = 0.000048, epsilon = 0.000360
 h59bf                                  1      0.0000       0.00000       A     1.88743e-01     8.53835e-02    ;  uncertainty sigma = 0.000048, epsilon = 0.000360
 h60bf                                  1      0.0000       0.00000       A     1.88743e-01     8.53835e-02    ;  uncertainty sigma = 0.000048, epsilon = 0.000360
 h61bf                                  1      0.0000       0.00000       A     1.88743e-01     8.53835e-02    ;  uncertainty sigma = 0.000048, epsilon = 0.000360
 h62bf                                  1      0.0000       0.00000       A     2.59996e-01     8.64833e-02    ;  uncertainty sigma = 0.000020, epsilon = 0.000411
 h63bf                                  1      0.0000       0.00000       A     2.59996e-01     8.64833e-02    ;  uncertainty sigma = 0.000020, epsilon = 0.000411
 h64bf                                  1      0.0000       0.00000       A     2.60017e-01     8.67763e-02    ;  uncertainty sigma = 0.000029, epsilon = 0.000562
 h65bf                                  1      0.0000       0.00000       A     2.60017e-01     8.67763e-02    ;  uncertainty sigma = 0.000029, epsilon = 0.000562
 h66bf                                  1      0.0000       0.00000       A     1.10718e-01     3.90827e-02    ;  uncertainty sigma = 0.000124, epsilon = 0.002380
 h67bf                                  1      0.0000       0.00000       A     1.10659e-01     4.07539e-02    ;  uncertainty sigma = 0.000284, epsilon = 0.004510
 h68bf                                  1      0.0000       0.00000       A     2.59996e-01     8.64833e-02    ;  uncertainty sigma = 0.000020, epsilon = 0.000412

[ moleculetype ]
;name             nrexcl
 MOL                   3

[ atoms ]
;       nr            type      resi   res      atom      cgnr      charge          mass ; qtot
         1            c0bf         1   UNL        c0         1    -0.39982       12.0110 ; qtot   -0.400
         2            n1bf         1   UNL        n1         2    -0.74696       14.0070 ; qtot   -1.147
         3            o2bf         1   UNL        o2         3    -0.41374       15.9990 ; qtot   -1.561
         4            c3bf         1   UNL        c3         4     0.46673       12.0110 ; qtot   -1.094
         5            n4bf         1   UNL        n4         5    -0.82134       14.0070 ; qtot   -1.915
         6            o5bf         1   UNL        o5         6    -0.46258       15.9990 ; qtot   -2.378
         7            c6bf         1   UNL        c6         7     0.93489       12.0110 ; qtot   -1.443
         8            n7bf         1   UNL        n7         8    -0.64036       14.0070 ; qtot   -2.083
         9            c8bf         1   UNL        c8         9     0.73686       12.0110 ; qtot   -1.346
        10            n9bf         1   UNL        n9        10    -0.77286       14.0070 ; qtot   -2.119
        11           c10bf         1   UNL       c10        11     0.46216       12.0110 ; qtot   -1.657
        12           n11bf         1   UNL       n11        12    -0.80074       14.0070 ; qtot   -2.458
        13           c12bf         1   UNL       c12        13     0.45284       12.0110 ; qtot   -2.005
        14           n13bf         1   UNL       n13        14    -0.73862       14.0070 ; qtot   -2.744
        15           c14bf         1   UNL       c14        15    -0.02213       12.0110 ; qtot   -2.766
        16           c15bf         1   UNL       c15        16    -0.20340       12.0110 ; qtot   -2.969
        17           c16bf         1   UNL       c16        17     0.14655       12.0110 ; qtot   -2.823
        18           c17bf         1   UNL       c17        18     0.19300       12.0110 ; qtot   -2.630
        19           c18bf         1   UNL       c18        19     0.14438       12.0110 ; qtot   -2.485
        20           c19bf         1   UNL       c19        20     0.14438       12.0110 ; qtot   -2.341
        21           c20bf         1   UNL       c20        21     0.19300       12.0110 ; qtot   -2.148
        22           c21bf         1   UNL       c21        22    -0.09656       12.0110 ; qtot   -2.244
        23           c22bf         1   UNL       c22        23    -0.09656       12.0110 ; qtot   -2.341
        24           c23bf         1   UNL       c23        24     0.15366       12.0110 ; qtot   -2.187
        25           c24bf         1   UNL       c24        25     0.04707       12.0110 ; qtot   -2.140
        26           c25bf         1   UNL       c25        26     0.13184       12.0110 ; qtot   -2.008
        27           c26bf         1   UNL       c26        27    -0.19406       12.0110 ; qtot   -2.202
        28           c27bf         1   UNL       c27        28     0.19848       12.0110 ; qtot   -2.004
        29           c28bf         1   UNL       c28        29     0.16542       12.0110 ; qtot   -1.838
        30           c29bf         1   UNL       c29        30    -0.09389       12.0110 ; qtot   -1.932
        31           c30bf         1   UNL       c30        31    -0.09603       12.0110 ; qtot   -2.028
        32           c31bf         1   UNL       c31        32     0.14189       12.0110 ; qtot   -1.886
        33           c32bf         1   UNL       c32        33     0.14189       12.0110 ; qtot   -1.745
        34           c33bf         1   UNL       c33        34    -0.09603       12.0110 ; qtot   -1.841
        35           c34bf         1   UNL       c34        35    -0.09389       12.0110 ; qtot   -1.935
        36           f35bf         1   UNL       f35        36    -0.11979       18.9980 ; qtot   -2.054
        37           f36bf         1   UNL       f36        37    -0.10491       18.9980 ; qtot   -2.159
        38           f37bf         1   UNL       f37        38    -0.12026       18.9980 ; qtot   -2.279
        39           f38bf         1   UNL       f38        39    -0.12739       18.9980 ; qtot   -2.407
        40           h39bf         1   UNL       h39        40     0.43562        1.0080 ; qtot   -1.971
        41           h40bf         1   UNL       h40        41     0.03501        1.0080 ; qtot   -1.936
        42           h41bf         1   UNL       h41        42     0.46548        1.0080 ; qtot   -1.471
        43           h42bf         1   UNL       h42        43     0.08889        1.0080 ; qtot   -1.382
        44           h43bf         1   UNL       h43        44     0.08889        1.0080 ; qtot   -1.293
        45           h44bf         1   UNL       h44        45     0.09669        1.0080 ; qtot   -1.196
        46           h45bf         1   UNL       h45        46     0.09669        1.0080 ; qtot   -1.100
        47           h46bf         1   UNL       h46        47     0.12687        1.0080 ; qtot   -0.973
        48           h47bf         1   UNL       h47        48     0.12687        1.0080 ; qtot   -0.846
        49           h48bf         1   UNL       h48        49     0.09669        1.0080 ; qtot   -0.749
        50           h49bf         1   UNL       h49        50     0.09669        1.0080 ; qtot   -0.652
        51           h50bf         1   UNL       h50        51     0.09820        1.0080 ; qtot   -0.554
        52           h51bf         1   UNL       h51        52     0.09820        1.0080 ; qtot   -0.456
        53           h52bf         1   UNL       h52        53     0.09820        1.0080 ; qtot   -0.358
        54           h53bf         1   UNL       h53        54     0.09820        1.0080 ; qtot   -0.260
        55           h54bf         1   UNL       h54        55     0.17862        1.0080 ; qtot   -0.081
        56           h55bf         1   UNL       h55        56     0.09259        1.0080 ; qtot    0.012
        57           h56bf         1   UNL       h56        57     0.09259        1.0080 ; qtot    0.104
        58           h57bf         1   UNL       h57        58     0.09445        1.0080 ; qtot    0.199
        59           h58bf         1   UNL       h58        59     0.10426        1.0080 ; qtot    0.303
        60           h59bf         1   UNL       h59        60     0.10426        1.0080 ; qtot    0.407
        61           h60bf         1   UNL       h60        61     0.10426        1.0080 ; qtot    0.511
        62           h61bf         1   UNL       h61        62     0.10426        1.0080 ; qtot    0.616
        63           h62bf         1   UNL       h62        63     0.09445        1.0080 ; qtot    0.710
        64           h63bf         1   UNL       h63        64     0.09445        1.0080 ; qtot    0.805
        65           h64bf         1   UNL       h64        65     0.09259        1.0080 ; qtot    0.897
        66           h65bf         1   UNL       h65        66     0.09259        1.0080 ; qtot    0.990
        67           h66bf         1   UNL       h66        67     0.46548        1.0080 ; qtot    1.455
        68           h67bf         1   UNL       h67        68     0.45038        1.0080 ; qtot    1.906
        69           h68bf         1   UNL       h68        69     0.09446        1.0080 ; qtot    2.000

[ bonds ]
;       ai        aj funct               r               k
         1         4     1        0.143070   478774.731836    ;  uncertainty r = 0.000218, k = 20.394292
         1         9     1        0.143984   362341.550391    ;  uncertainty r = 0.000299, k = 18.047099
         1        11     1        0.141860   374077.665283    ;  uncertainty r = 0.000071, k = 28.902378
         2         4     1        0.136182   419438.364404    ;  uncertainty r = 0.000143, k = 20.336720
         2         7     1        0.132546   399493.881982    ;  uncertainty r = 0.000085, k = 18.177902
         3         7     1        0.135693   306710.898438    ;  uncertainty r = 0.000236, k = 12.061316
         3        17     1        0.141611   256605.353320    ;  uncertainty r = 0.000292, k = 22.354154
         4        15     1        0.141322   365626.312158    ;  uncertainty r = 0.000098, k = 27.518218
         5         7     1        0.136972   410517.894580    ;  uncertainty r = 0.000209, k = 11.526559
         5         9     1        0.134153   486855.132910    ;  uncertainty r = 0.000475, k = 52.549853
         6        25     1        0.136559   338364.783936    ;  uncertainty r = 0.000125, k = 7.227726
         6        40     1        0.097411   464872.176270    ;  uncertainty r = 0.000062, k = 6.429416
         8        11     1        0.131671   381941.026465    ;  uncertainty r = 0.000123, k = 17.999967
         8        13     1        0.135510   359229.777002    ;  uncertainty r = 0.000320, k = 34.945636
         9        10     1        0.141100   334049.063525    ;  uncertainty r = 0.000263, k = 22.684729
        10        18     1        0.146717   282616.354834    ;  uncertainty r = 0.000141, k = 29.596462
        10        21     1        0.146717   282616.354834    ;  uncertainty r = 0.000141, k = 29.596462
        11        41     1        0.108809   334180.477490    ;  uncertainty r = 0.000033, k = 4.241271
        12        19     1        0.152813   214684.834814    ;  uncertainty r = 0.000144, k = 10.532020
        12        20     1        0.152813   214684.834814    ;  uncertainty r = 0.000144, k = 10.532020
        12        42     1        0.102746   394210.356201    ;  uncertainty r = 0.000084, k = 22.499263
        12        67     1        0.102746   394210.356201    ;  uncertainty r = 0.000084, k = 22.499263
        13        15     1        0.138386   343827.554688    ;  uncertainty r = 0.000143, k = 22.095013
        13        16     1        0.148378   295810.510986    ;  uncertainty r = 0.000108, k = 18.596692
        14        29     1        0.155224   184952.208203    ;  uncertainty r = 0.000300, k = 56.728238
        14        32     1        0.151109   220189.052295    ;  uncertainty r = 0.000187, k = 34.028566
        14        33     1        0.151109   220189.052295    ;  uncertainty r = 0.000187, k = 34.028566
        14        68     1        0.102554   392256.537500    ;  uncertainty r = 0.000124, k = 6.661417
        15        37     1        0.134014   335779.304834    ;  uncertainty r = 0.000103, k = 8.195967
        16        24     1        0.139107   335569.645166    ;  uncertainty r = 0.000140, k = 5.166040
        16        28     1        0.139335   337934.866699    ;  uncertainty r = 0.000068, k = 1.971107
        17        29     1        0.152458   191789.654321    ;  uncertainty r = 0.000127, k = 16.429765
        17        43     1        0.109401   312138.121533    ;  uncertainty r = 0.000054, k = 3.379619
        17        44     1        0.109401   312138.121533    ;  uncertainty r = 0.000054, k = 3.379619
        18        19     1        0.153389   209363.769482    ;  uncertainty r = 0.000246, k = 15.699766
        18        45     1        0.109512   306916.880762    ;  uncertainty r = 0.000054, k = 2.592156
        18        46     1        0.109512   306916.880762    ;  uncertainty r = 0.000054, k = 2.592156
        19        23     1        0.154170   203666.746826    ;  uncertainty r = 0.000096, k = 14.555225
        19        47     1        0.109104   316017.438281    ;  uncertainty r = 0.000091, k = 5.591607
        20        21     1        0.153389   209363.769482    ;  uncertainty r = 0.000246, k = 15.699741
        20        22     1        0.154170   203666.721289    ;  uncertainty r = 0.000096, k = 14.555239
        20        48     1        0.109104   316017.438281    ;  uncertainty r = 0.000091, k = 5.591607
        21        49     1        0.109512   306916.880762    ;  uncertainty r = 0.000054, k = 2.592167
        21        50     1        0.109512   306916.880762    ;  uncertainty r = 0.000054, k = 2.592167
        22        23     1        0.155765   216858.119434    ;  uncertainty r = 0.000150, k = 17.193911
        22        51     1        0.109186   310069.411377    ;  uncertainty r = 0.000038, k = 1.121843
        22        52     1        0.109186   310069.411377    ;  uncertainty r = 0.000038, k = 1.121843
        23        53     1        0.109186   310069.411377    ;  uncertainty r = 0.000038, k = 1.121843
        23        54     1        0.109186   310069.411377    ;  uncertainty r = 0.000038, k = 1.121843
        24        25     1        0.139037   352196.729395    ;  uncertainty r = 0.000045, k = 4.637538
        24        38     1        0.134609   345516.400342    ;  uncertainty r = 0.000064, k = 6.264198
        25        26     1        0.139156   364101.210449    ;  uncertainty r = 0.000074, k = 8.709722
        26        27     1        0.138602   365665.945752    ;  uncertainty r = 0.000041, k = 3.518230
        26        39     1        0.135163   345017.047705    ;  uncertainty r = 0.000112, k = 8.483496
        27        28     1        0.138789   359993.004590    ;  uncertainty r = 0.000037, k = 3.187449
        27        55     1        0.108730   338330.794043    ;  uncertainty r = 0.000010, k = 1.919194
        28        36     1        0.134606   344824.523438    ;  uncertainty r = 0.000080, k = 7.518854
        29        30     1        0.153852   199516.468579    ;  uncertainty r = 0.000144, k = 13.681237
        29        35     1        0.153852   199516.468579    ;  uncertainty r = 0.000144, k = 13.681237
        30        31     1        0.154640   222184.138965    ;  uncertainty r = 0.000111, k = 11.852652
        30        56     1        0.109269   307948.784277    ;  uncertainty r = 0.000014, k = 2.634055
        30        57     1        0.109269   307948.784277    ;  uncertainty r = 0.000014, k = 2.634055
        31        32     1        0.154105   226924.643652    ;  uncertainty r = 0.000124, k = 6.136758
        31        58     1        0.109199   311658.841064    ;  uncertainty r = 0.000012, k = 2.085790
        31        69     1        0.109199   311658.841064    ;  uncertainty r = 0.000012, k = 2.085790
        32        59     1        0.109039   312875.582178    ;  uncertainty r = 0.000042, k = 4.281756
        32        60     1        0.109039   312875.582178    ;  uncertainty r = 0.000042, k = 4.281766
        33        34     1        0.154105   226924.643652    ;  uncertainty r = 0.000124, k = 6.136790
        33        61     1        0.109039   312875.582178    ;  uncertainty r = 0.000042, k = 4.281766
        33        62     1        0.109039   312875.582178    ;  uncertainty r = 0.000042, k = 4.281766
        34        35     1        0.154640   222184.138965    ;  uncertainty r = 0.000111, k = 11.852649
        34        63     1        0.109199   311658.841064    ;  uncertainty r = 0.000012, k = 2.085824
        34        64     1        0.109199   311658.841064    ;  uncertainty r = 0.000012, k = 2.085824
        35        65     1        0.109269   307948.809814    ;  uncertainty r = 0.000014, k = 2.634017
        35        66     1        0.109269   307948.809814    ;  uncertainty r = 0.000014, k = 2.634017

[ angles ]
;       ai        aj        ak funct           theta             cth
         1         4         2     1      122.572815      577.494212    ;  uncertainty theta = 0.002497, k = 0.101284
         1         4        15     1      114.663147      382.351114    ;  uncertainty theta = 0.008785, k = 0.438593
         1         9         5     1      123.146286      524.777479    ;  uncertainty theta = 0.003526, k = 0.330096
         1         9        10     1      120.769066      459.953984    ;  uncertainty theta = 0.006455, k = 0.393069
         1        11         8     1      124.407425      690.034593    ;  uncertainty theta = 0.004538, k = 0.249543
         1        11        41     1      118.353355      255.226426    ;  uncertainty theta = 0.006984, k = 0.193798
         2         4        15     1      120.669884      450.784534    ;  uncertainty theta = 0.005902, k = 0.064456
         2         7         3     1      116.936478      557.966049    ;  uncertainty theta = 0.012083, k = 0.197542
         2         7         5     1      129.563202      744.255367    ;  uncertainty theta = 0.002879, k = 0.093993
         3         7         5     1      115.775780      567.111015    ;  uncertainty theta = 0.011292, k = 0.094910
         3        17        29     1      106.595055      553.744126    ;  uncertainty theta = 0.008151, k = 0.093093
         3        17        43     1      106.838943      434.360119    ;  uncertainty theta = 0.003754, k = 0.111159
         3        17        44     1      106.838951      434.360119    ;  uncertainty theta = 0.003754, k = 0.111159
         4         1         9     1      119.332130      424.374471    ;  uncertainty theta = 0.012616, k = 0.216775
         4         1        11     1      120.741455      439.722369    ;  uncertainty theta = 0.002424, k = 0.505059
         4         2         7     1      111.966881      428.676069    ;  uncertainty theta = 0.012383, k = 0.157954
         4        15        13     1      122.685013      431.517583    ;  uncertainty theta = 0.003969, k = 0.292622
         4        15        37     1      116.139023      445.104251    ;  uncertainty theta = 0.005937, k = 0.369051
         5         9        10     1      122.671585      669.625272    ;  uncertainty theta = 0.004829, k = 0.216895
         6        25        24     1      121.379761      586.809767    ;  uncertainty theta = 0.004875, k = 0.256345
         6        25        26     1      120.941528      624.254256    ;  uncertainty theta = 0.003832, k = 0.371934
         7         3        17     1      108.601456      499.508094    ;  uncertainty theta = 0.005147, k = 0.164811
         7         5         9     1      121.180313      407.919251    ;  uncertainty theta = 0.012509, k = 0.258354
         8        11        41     1      116.903442      320.700733    ;  uncertainty theta = 0.004963, k = 0.149960
         8        13        15     1      123.188171      503.653277    ;  uncertainty theta = 0.005989, k = 0.239932
         8        13        16     1      119.040970      452.600255    ;  uncertainty theta = 0.005079, k = 0.132887
         9         1        11     1      123.641983      371.310113    ;  uncertainty theta = 0.010766, k = 0.420202
         9        10        18     1      110.984398      422.188111    ;  uncertainty theta = 0.004181, k = 0.144764
         9        10        21     1      110.984398      422.188111    ;  uncertainty theta = 0.004181, k = 0.144764
        10        18        19     1      110.133949      649.655188    ;  uncertainty theta = 0.001985, k = 0.133737
        10        18        45     1      108.568321      453.936420    ;  uncertainty theta = 0.004489, k = 0.158239
        10        18        46     1      108.568321      453.936420    ;  uncertainty theta = 0.004489, k = 0.158239
        10        21        20     1      110.133949      649.655188    ;  uncertainty theta = 0.001985, k = 0.133737
        10        21        49     1      108.568321      453.936420    ;  uncertainty theta = 0.004489, k = 0.158239
        10        21        50     1      108.568321      453.936420    ;  uncertainty theta = 0.004489, k = 0.158239
        11         8        13     1      119.142532      413.102933    ;  uncertainty theta = 0.002226, k = 0.319847
        12        19        18     1      107.106102      724.692026    ;  uncertainty theta = 0.009614, k = 0.194545
        12        19        23     1      104.244408      885.384478    ;  uncertainty theta = 0.008129, k = 0.207714
        12        19        47     1      107.116600      462.413527    ;  uncertainty theta = 0.004311, k = 0.213725
        12        20        21     1      107.106102      724.692026    ;  uncertainty theta = 0.009614, k = 0.194545
        12        20        22     1      104.244408      885.384478    ;  uncertainty theta = 0.008129, k = 0.207714
        12        20        48     1      107.116600      462.413527    ;  uncertainty theta = 0.004311, k = 0.213725
        13        15        37     1      117.155212      464.188644    ;  uncertainty theta = 0.003872, k = 0.241374
        13        16        24     1      120.231277      367.075486    ;  uncertainty theta = 0.003409, k = 0.413551
        13        16        28     1      121.117165      372.211190    ;  uncertainty theta = 0.003117, k = 0.230313
        14        29        17     1      106.284836      574.217610    ;  uncertainty theta = 0.012937, k = 0.510808
        14        29        30     1      105.778381      809.799614    ;  uncertainty theta = 0.009654, k = 0.257182
        14        29        35     1      105.778381      809.799614    ;  uncertainty theta = 0.009654, k = 0.257182
        14        32        31     1      107.224747      810.317379    ;  uncertainty theta = 0.008297, k = 0.131034
        14        32        59     1      106.415634      467.219356    ;  uncertainty theta = 0.004560, k = 0.161185
        14        32        60     1      106.415634      467.219356    ;  uncertainty theta = 0.004560, k = 0.161185
        14        33        34     1      107.224747      810.317379    ;  uncertainty theta = 0.008297, k = 0.131034
        14        33        61     1      106.415634      467.219356    ;  uncertainty theta = 0.004560, k = 0.161185
        14        33        62     1      106.415634      467.219356    ;  uncertainty theta = 0.004560, k = 0.161185
        15        13        16     1      118.891159      352.656659    ;  uncertainty theta = 0.010010, k = 0.228723
        16        24        25     1      126.736801      358.287624    ;  uncertainty theta = 0.005510, k = 0.264265
        16        24        38     1      116.625244      496.054200    ;  uncertainty theta = 0.004713, k = 0.070049
        16        28        27     1      126.044235      380.469795    ;  uncertainty theta = 0.002774, k = 0.131795
        16        28        36     1      115.900253      494.168189    ;  uncertainty theta = 0.002566, k = 0.095877
        17        29        30     1      110.371605      496.045581    ;  uncertainty theta = 0.008288, k = 0.196767
        17        29        35     1      110.371605      496.045581    ;  uncertainty theta = 0.008288, k = 0.196767
        18        10        21     1      113.145386      423.689501    ;  uncertainty theta = 0.008189, k = 0.281148
        18        19        23     1      112.961143      535.549191    ;  uncertainty theta = 0.001825, k = 0.221357
        18        19        47     1      110.097534      391.839395    ;  uncertainty theta = 0.006671, k = 0.265089
        19        12        20     1      103.811913      816.372228    ;  uncertainty theta = 0.015300, k = 0.296682
        19        12        42     1      110.536942      414.249901    ;  uncertainty theta = 0.015659, k = 0.317278
        19        12        67     1      110.536942      414.249901    ;  uncertainty theta = 0.015659, k = 0.317278
        19        18        45     1      108.657677      423.347815    ;  uncertainty theta = 0.003396, k = 0.148176
        19        18        46     1      108.657677      423.347815    ;  uncertainty theta = 0.003396, k = 0.148176
        19        23        22     1      106.024353      704.148060    ;  uncertainty theta = 0.006529, k = 0.081670
        19        23        53     1      108.154015      411.973012    ;  uncertainty theta = 0.004144, k = 0.083638
        19        23        54     1      108.154015      411.973012    ;  uncertainty theta = 0.004144, k = 0.083638
        20        12        42     1      110.536942      414.249901    ;  uncertainty theta = 0.015659, k = 0.317278
        20        12        67     1      110.536942      414.249901    ;  uncertainty theta = 0.015659, k = 0.317278
        20        21        49     1      108.657677      423.347815    ;  uncertainty theta = 0.003396, k = 0.148176
        20        21        50     1      108.657677      423.347815    ;  uncertainty theta = 0.003396, k = 0.148176
        20        22        23     1      106.024353      704.148060    ;  uncertainty theta = 0.006529, k = 0.081670
        20        22        51     1      108.154015      411.973012    ;  uncertainty theta = 0.004144, k = 0.083638
        20        22        52     1      108.154015      411.973012    ;  uncertainty theta = 0.004144, k = 0.083638
        21        20        22     1      112.961143      535.549191    ;  uncertainty theta = 0.001825, k = 0.221357
        21        20        48     1      110.097534      391.839395    ;  uncertainty theta = 0.006671, k = 0.265089
        22        20        48     1      111.749313      382.110299    ;  uncertainty theta = 0.005995, k = 0.096527
        22        23        53     1      110.275002      402.480996    ;  uncertainty theta = 0.003380, k = 0.146043
        22        23        54     1      110.275002      402.480996    ;  uncertainty theta = 0.003380, k = 0.146043
        23        19        47     1      111.749313      382.110299    ;  uncertainty theta = 0.005995, k = 0.096527
        23        22        51     1      110.275002      402.480996    ;  uncertainty theta = 0.003380, k = 0.146043
        23        22        52     1      110.275002      402.480996    ;  uncertainty theta = 0.003380, k = 0.146043
        24        16        28     1      119.992966      398.866154    ;  uncertainty theta = 0.005995, k = 0.152710
        24        25        26     1      118.083801      345.038844    ;  uncertainty theta = 0.008507, k = 0.270743
        25         6        40     1      108.375038      468.575664    ;  uncertainty theta = 0.002818, k = 0.132290
        25        24        38     1      115.452454      466.383111    ;  uncertainty theta = 0.004175, k = 0.142898
        25        26        27     1      123.107262      339.762238    ;  uncertainty theta = 0.006185, k = 0.185996
        25        26        39     1      116.118141      458.011536    ;  uncertainty theta = 0.003925, k = 0.190362
        26        27        28     1      118.377762      461.787038    ;  uncertainty theta = 0.002518, k = 0.063298
        26        27        55     1      121.103989      274.052894    ;  uncertainty theta = 0.001674, k = 0.051415
        27        26        39     1      119.948570      508.700400    ;  uncertainty theta = 0.002214, k = 0.099103
        27        28        36     1      118.236267      526.201524    ;  uncertainty theta = 0.003419, k = 0.111903
        28        27        55     1      121.446266      272.560026    ;  uncertainty theta = 0.002444, k = 0.080152
        29        14        32     1      109.500443      671.027706    ;  uncertainty theta = 0.010613, k = 0.226076
        29        14        33     1      109.500443      671.027706    ;  uncertainty theta = 0.010613, k = 0.226076
        29        14        68     1      107.421738      427.058517    ;  uncertainty theta = 0.004962, k = 0.188703
        29        17        43     1      109.305344      390.580831    ;  uncertainty theta = 0.002877, k = 0.181361
        29        17        44     1      109.305344      390.580831    ;  uncertainty theta = 0.002877, k = 0.181361
        29        30        31     1      106.967346      693.578570    ;  uncertainty theta = 0.002687, k = 0.116935
        29        30        56     1      107.494629      383.689993    ;  uncertainty theta = 0.003069, k = 0.106292
        29        30        57     1      107.494629      383.689993    ;  uncertainty theta = 0.003069, k = 0.106292
        29        35        34     1      106.967346      693.578570    ;  uncertainty theta = 0.002687, k = 0.116935
        29        35        65     1      107.494629      383.689993    ;  uncertainty theta = 0.003069, k = 0.106292
        29        35        66     1      107.494629      383.689993    ;  uncertainty theta = 0.003069, k = 0.106292
        30        29        35     1      114.258972      532.747610    ;  uncertainty theta = 0.009198, k = 0.443478
        30        31        32     1      106.229187      739.506295    ;  uncertainty theta = 0.006421, k = 0.206061
        30        31        58     1      109.823608      416.239114    ;  uncertainty theta = 0.002620, k = 0.124241
        30        31        69     1      109.823608      416.239114    ;  uncertainty theta = 0.002620, k = 0.124241
        31        30        56     1      109.868820      419.411940    ;  uncertainty theta = 0.001900, k = 0.084503
        31        30        57     1      109.868820      419.411940    ;  uncertainty theta = 0.001900, k = 0.084503
        31        32        59     1      111.660072      406.702663    ;  uncertainty theta = 0.002130, k = 0.033830
        31        32        60     1      111.660072      406.702663    ;  uncertainty theta = 0.002130, k = 0.033830
        32        14        33     1      113.700485      549.168068    ;  uncertainty theta = 0.004238, k = 0.416263
        32        14        68     1      107.799637      432.346582    ;  uncertainty theta = 0.003746, k = 0.160676
        32        31        58     1      108.843155      420.711204    ;  uncertainty theta = 0.000990, k = 0.100881
        32        31        69     1      108.843155      420.711204    ;  uncertainty theta = 0.000990, k = 0.100881
        33        14        68     1      107.799637      432.346582    ;  uncertainty theta = 0.003746, k = 0.160676
        33        34        35     1      106.229187      739.506295    ;  uncertainty theta = 0.006421, k = 0.206061
        33        34        63     1      108.843155      420.711204    ;  uncertainty theta = 0.000990, k = 0.100881
        33        34        64     1      108.843155      420.711204    ;  uncertainty theta = 0.000990, k = 0.100881
        34        33        61     1      111.660072      406.702663    ;  uncertainty theta = 0.002130, k = 0.033830
        34        33        62     1      111.660072      406.702663    ;  uncertainty theta = 0.002130, k = 0.033830
        34        35        65     1      109.868820      419.411940    ;  uncertainty theta = 0.001900, k = 0.084503
        34        35        66     1      109.868820      419.411908    ;  uncertainty theta = 0.001900, k = 0.084503
        35        34        63     1      109.823608      416.239114    ;  uncertainty theta = 0.002620, k = 0.124241
        35        34        64     1      109.823608      416.239114    ;  uncertainty theta = 0.002620, k = 0.124241
        42        12        67     1      107.747574      350.201458    ;  uncertainty theta = 0.021723, k = 0.473762
        43        17        44     1      108.156700      328.051942    ;  uncertainty theta = 0.001770, k = 0.064740
        45        18        46     1      105.897926      325.661285    ;  uncertainty theta = 0.002949, k = 0.142469
        49        21        50     1      105.897926      325.661285    ;  uncertainty theta = 0.002949, k = 0.142469
        51        22        52     1      104.910583      313.577093    ;  uncertainty theta = 0.003222, k = 0.124326
        53        23        54     1      104.910583      313.577093    ;  uncertainty theta = 0.003222, k = 0.124326
        56        30        57     1      105.537453      314.863110    ;  uncertainty theta = 0.002226, k = 0.107726
        58        31        69     1      105.080666      317.747622    ;  uncertainty theta = 0.002226, k = 0.118787
        59        32        60     1      107.439987      318.892163    ;  uncertainty theta = 0.003482, k = 0.084420
        61        33        62     1      107.439987      318.892163    ;  uncertainty theta = 0.003482, k = 0.084420
        63        34        64     1      105.080666      317.747622    ;  uncertainty theta = 0.002226, k = 0.118787
        65        35        66     1      105.537453      314.863110    ;  uncertainty theta = 0.002226, k = 0.107726

[ dihedrals ] ; propers for gromacs 4.5 or higher, use funct 9
;       ai        aj        ak        al funct           phase               k        pn
         1         4         2         7     9        0.000000       -0.303140         1    ;  uncertainty k = 1.274681
         1         4         2         7     9      180.000000       12.857785         2    ;  uncertainty k = 0.538718
         1         4         2         7     9        0.000000        0.627222         3    ;  uncertainty k = 0.321372
         1         4         2         7     9      180.000000        1.148580         4    ;  uncertainty k = 0.354389
         1         4        15        13     9        0.000000       -0.449691         1    ;  uncertainty k = 0.406197
         1         4        15        13     9      180.000000        3.673504         2    ;  uncertainty k = 1.137056
         1         4        15        13     9        0.000000        0.273424         3    ;  uncertainty k = 0.232185
         1         4        15        13     9      180.000000        1.243406         4    ;  uncertainty k = 0.354742
         1         4        15        37     9        0.000000        0.328546         1    ;  uncertainty k = 0.544801
         1         4        15        37     9      180.000000        7.920629         2    ;  uncertainty k = 0.644513
         1         4        15        37     9        0.000000        1.425847         3    ;  uncertainty k = 0.148065
         1         4        15        37     9      180.000000        1.521148         4    ;  uncertainty k = 0.224966
         1         9         5         7     9        0.000000       -0.781881         1    ;  uncertainty k = 1.422060
         1         9         5         7     9      180.000000       12.984261         2    ;  uncertainty k = 0.677102
         1         9         5         7     9        0.000000        0.656450         3    ;  uncertainty k = 0.998368
         1         9         5         7     9      180.000000        1.732429         4    ;  uncertainty k = 0.821786
         1         9        10        18     9        0.000000       -1.427466         1    ;  uncertainty k = 1.188999
         1         9        10        18     9      180.000000        9.343136         2    ;  uncertainty k = 0.264294
         1         9        10        18     9        0.000000        0.295999         3    ;  uncertainty k = 0.386319
         1         9        10        18     9      180.000000        0.358373         4    ;  uncertainty k = 0.207630
         1         9        10        21     9        0.000000       -1.427466         1    ;  uncertainty k = 1.188999
         1         9        10        21     9      180.000000        9.343136         2    ;  uncertainty k = 0.264294
         1         9        10        21     9        0.000000        0.295999         3    ;  uncertainty k = 0.386319
         1         9        10        21     9      180.000000        0.358373         4    ;  uncertainty k = 0.207630
         1        11         8        13     9        0.000000       -0.188924         1    ;  uncertainty k = 0.521302
         1        11         8        13     9      180.000000       16.240794         2    ;  uncertainty k = 0.439522
         1        11         8        13     9        0.000000        1.215130         3    ;  uncertainty k = 0.756635
         1        11         8        13     9      180.000000        1.793661         4    ;  uncertainty k = 0.367884
         2         4         1         9     9        0.000000        0.000606         1    ;  uncertainty k = 0.516794
         2         4         1         9     9      180.000000        7.296038         2    ;  uncertainty k = 0.995018
         2         4         1         9     9        0.000000        0.355752         3    ;  uncertainty k = 0.304261
         2         4         1         9     9      180.000000        1.558802         4    ;  uncertainty k = 0.322062
         2         4         1        11     9        0.000000       -0.065643         1    ;  uncertainty k = 0.421001
         2         4         1        11     9      180.000000        7.588267         2    ;  uncertainty k = 0.908347
         2         4         1        11     9        0.000000        0.218458         3    ;  uncertainty k = 0.349393
         2         4         1        11     9      180.000000        1.518570         4    ;  uncertainty k = 0.343810
         2         4        15        13     9        0.000000       -0.141656         1    ;  uncertainty k = 0.263699
         2         4        15        13     9      180.000000        6.292071         2    ;  uncertainty k = 0.741343
         2         4        15        13     9        0.000000        0.458370         3    ;  uncertainty k = 0.188569
         2         4        15        13     9      180.000000        1.243862         4    ;  uncertainty k = 0.329742
         2         4        15        37     9        0.000000        0.076883         1    ;  uncertainty k = 0.668373
         2         4        15        37     9      180.000000       11.709852         2    ;  uncertainty k = 0.694738
         2         4        15        37     9        0.000000        1.131988         3    ;  uncertainty k = 0.387824
         2         4        15        37     9      180.000000        1.159837         4    ;  uncertainty k = 0.443904
         2         7         3        17     9        0.000000        2.623298         1    ;  uncertainty k = 1.871436
         2         7         3        17     9      180.000000        9.642735         2    ;  uncertainty k = 0.501480
         2         7         3        17     9        0.000000        0.037029         3    ;  uncertainty k = 0.155246
         2         7         3        17     9      180.000000       -0.194193         4    ;  uncertainty k = 0.214902
         2         7         5         9     9        0.000000       -0.488652         1    ;  uncertainty k = 1.057490
         2         7         5         9     9      180.000000        8.899800         2    ;  uncertainty k = 0.865025
         2         7         5         9     9        0.000000        1.151301         3    ;  uncertainty k = 0.231591
         2         7         5         9     9      180.000000        0.505791         4    ;  uncertainty k = 0.486052
         3         7         2         4     9        0.000000        0.031731         1    ;  uncertainty k = 1.308308
         3         7         2         4     9      180.000000       14.445120         2    ;  uncertainty k = 0.375834
         3         7         2         4     9        0.000000        2.574868         3    ;  uncertainty k = 0.326661
         3         7         2         4     9      180.000000        1.440357         4    ;  uncertainty k = 0.272305
         3         7         5         9     9        0.000000        0.338737         1    ;  uncertainty k = 1.906639
         3         7         5         9     9      180.000000       10.107912         2    ;  uncertainty k = 0.413422
         3         7         5         9     9        0.000000        2.022860         3    ;  uncertainty k = 0.211585
         3         7         5         9     9      180.000000        0.951306         4    ;  uncertainty k = 0.118729
         3        17        29        14     9        0.000000        1.667481         1    ;  uncertainty k = 1.658329
         3        17        29        14     9      180.000000       -5.172814         2    ;  uncertainty k = 0.909049
         3        17        29        14     9        0.000000        1.083887         3    ;  uncertainty k = 0.284091
         3        17        29        14     9      180.000000       -0.083542         4    ;  uncertainty k = 0.181790
         3        17        29        30     9        0.000000       -0.048924         1    ;  uncertainty k = 0.603179
         3        17        29        30     9      180.000000       -0.220818         2    ;  uncertainty k = 0.884819
         3        17        29        30     9        0.000000        1.223634         3    ;  uncertainty k = 0.306273
         3        17        29        30     9      180.000000       -0.097243         4    ;  uncertainty k = 0.124780
         3        17        29        35     9        0.000000       -0.048924         1    ;  uncertainty k = 0.603179
         3        17        29        35     9      180.000000       -0.220818         2    ;  uncertainty k = 0.884819
         3        17        29        35     9        0.000000        1.223634         3    ;  uncertainty k = 0.306273
         3        17        29        35     9      180.000000       -0.097243         4    ;  uncertainty k = 0.124780
         4         1         9         5     9        0.000000       -0.423377         1    ;  uncertainty k = 0.923633
         4         1         9         5     9      180.000000        6.590879         2    ;  uncertainty k = 1.141880
         4         1         9         5     9        0.000000       -0.367463         3    ;  uncertainty k = 0.551713
         4         1         9         5     9      180.000000        0.840071         4    ;  uncertainty k = 0.377301
         4         1         9        10     9        0.000000       -1.026338         1    ;  uncertainty k = 1.280535
         4         1         9        10     9      180.000000        7.036742         2    ;  uncertainty k = 0.897426
         4         1         9        10     9        0.000000        0.123041         3    ;  uncertainty k = 0.340679
         4         1         9        10     9      180.000000        0.879752         4    ;  uncertainty k = 0.332052
         4         1        11         8     9        0.000000        0.012205         1    ;  uncertainty k = 0.453874
         4         1        11         8     9      180.000000       11.493141         2    ;  uncertainty k = 0.557569
         4         1        11         8     9        0.000000       -0.612830         3    ;  uncertainty k = 0.681637
         4         1        11         8     9      180.000000        0.803450         4    ;  uncertainty k = 0.347350
         4         1        11        41     9        0.000000       -0.503876         1    ;  uncertainty k = 0.587422
         4         1        11        41     9      180.000000        5.937830         2    ;  uncertainty k = 0.460762
         4         1        11        41     9        0.000000        0.699839         3    ;  uncertainty k = 0.222637
         4         1        11        41     9      180.000000        0.762432         4    ;  uncertainty k = 0.277022
         4         2         7         5     9        0.000000       -0.191039         1    ;  uncertainty k = 1.038352
         4         2         7         5     9      180.000000       11.785430         2    ;  uncertainty k = 0.754107
         4         2         7         5     9        0.000000        1.699122         3    ;  uncertainty k = 0.535426
         4         2         7         5     9      180.000000        1.154447         4    ;  uncertainty k = 0.244520
         4        15        13         8     9        0.000000       -0.187094         1    ;  uncertainty k = 0.400165
         4        15        13         8     9      180.000000        7.136820         2    ;  uncertainty k = 0.540053
         4        15        13         8     9        0.000000        0.385405         3    ;  uncertainty k = 0.552524
         4        15        13         8     9      180.000000        1.350696         4    ;  uncertainty k = 0.273594
         4        15        13        16     9        0.000000       -0.204344         1    ;  uncertainty k = 0.416836
         4        15        13        16     9      180.000000        5.804679         2    ;  uncertainty k = 0.565929
         4        15        13        16     9        0.000000        0.956284         3    ;  uncertainty k = 0.069813
         4        15        13        16     9      180.000000        1.383967         4    ;  uncertainty k = 0.112293
         5         7         3        17     9        0.000000        5.587201         1    ;  uncertainty k = 1.515190
         5         7         3        17     9      180.000000        9.613485         2    ;  uncertainty k = 0.103275
         5         7         3        17     9        0.000000        0.228433         3    ;  uncertainty k = 0.205484
         5         7         3        17     9      180.000000       -0.125973         4    ;  uncertainty k = 0.274990
         5         9         1        11     9        0.000000        1.007998         1    ;  uncertainty k = 0.793488
         5         9         1        11     9      180.000000        5.491509         2    ;  uncertainty k = 1.814268
         5         9         1        11     9        0.000000       -0.027944         3    ;  uncertainty k = 0.476646
         5         9         1        11     9      180.000000        0.753595         4    ;  uncertainty k = 0.495682
         5         9        10        18     9        0.000000        8.637731         1    ;  uncertainty k = 1.424692
         5         9        10        18     9      180.000000       12.771763         2    ;  uncertainty k = 0.293856
         5         9        10        18     9        0.000000        0.441311         3    ;  uncertainty k = 0.155128
         5         9        10        18     9      180.000000        0.169356         4    ;  uncertainty k = 0.328120
         5         9        10        21     9        0.000000        8.637731         1    ;  uncertainty k = 1.424692
         5         9        10        21     9      180.000000       12.771763         2    ;  uncertainty k = 0.293856
         5         9        10        21     9        0.000000        0.441311         3    ;  uncertainty k = 0.155128
         5         9        10        21     9      180.000000        0.169356         4    ;  uncertainty k = 0.328120
         6        25        24        16     9        0.000000        0.067020         1    ;  uncertainty k = 0.265006
         6        25        24        16     9      180.000000        7.704846         2    ;  uncertainty k = 0.433199
         6        25        24        16     9        0.000000        1.163051         3    ;  uncertainty k = 0.172647
         6        25        24        16     9      180.000000        1.613390         4    ;  uncertainty k = 0.147125
         6        25        24        38     9        0.000000       -0.172999         1    ;  uncertainty k = 0.540446
         6        25        24        38     9      180.000000       13.405801         2    ;  uncertainty k = 0.601927
         6        25        24        38     9        0.000000        0.990668         3    ;  uncertainty k = 0.227832
         6        25        24        38     9      180.000000        1.166066         4    ;  uncertainty k = 0.325181
         6        25        26        27     9        0.000000        0.074184         1    ;  uncertainty k = 0.314600
         6        25        26        27     9      180.000000        7.893077         2    ;  uncertainty k = 0.550527
         6        25        26        27     9        0.000000        1.128969         3    ;  uncertainty k = 0.196644
         6        25        26        27     9      180.000000        1.522982         4    ;  uncertainty k = 0.130084
         6        25        26        39     9        0.000000       -0.079525         1    ;  uncertainty k = 0.553056
         6        25        26        39     9      180.000000       12.956510         2    ;  uncertainty k = 0.597796
         6        25        26        39     9        0.000000        1.079455         3    ;  uncertainty k = 0.211971
         6        25        26        39     9      180.000000        1.132890         4    ;  uncertainty k = 0.249110
         7         2         4        15     9        0.000000       -0.270160         1    ;  uncertainty k = 1.238264
         7         2         4        15     9      180.000000       12.767308         2    ;  uncertainty k = 0.295670
         7         2         4        15     9        0.000000        1.845114         3    ;  uncertainty k = 0.795321
         7         2         4        15     9      180.000000        1.100465         4    ;  uncertainty k = 0.456602
         7         3        17        29     9        0.000000       -7.641870         1    ;  uncertainty k = 1.613379
         7         3        17        29     9      180.000000        2.738265         2    ;  uncertainty k = 0.821182
         7         3        17        29     9        0.000000       -0.767060         3    ;  uncertainty k = 0.341296
         7         3        17        29     9      180.000000        0.930359         4    ;  uncertainty k = 0.429066
         7         3        17        43     9        0.000000        3.151609         1    ;  uncertainty k = 1.564051
         7         3        17        43     9      180.000000        1.346624         2    ;  uncertainty k = 0.597677
         7         3        17        43     9        0.000000       -0.133706         3    ;  uncertainty k = 0.311318
         7         3        17        43     9      180.000000        0.396277         4    ;  uncertainty k = 0.118867
         7         3        17        44     9        0.000000        3.151609         1    ;  uncertainty k = 1.564051
         7         3        17        44     9      180.000000        1.346624         2    ;  uncertainty k = 0.597677
         7         3        17        44     9        0.000000       -0.133706         3    ;  uncertainty k = 0.311318
         7         3        17        44     9      180.000000        0.396277         4    ;  uncertainty k = 0.118867
         7         5         9        10     9        0.000000        0.434878         1    ;  uncertainty k = 1.165997
         7         5         9        10     9      180.000000       18.095739         2    ;  uncertainty k = 0.788100
         7         5         9        10     9        0.000000        2.581721         3    ;  uncertainty k = 0.811252
         7         5         9        10     9      180.000000        1.672242         4    ;  uncertainty k = 0.700518
         8        11         1         9     9        0.000000        0.127140         1    ;  uncertainty k = 0.372768
         8        11         1         9     9      180.000000        8.762447         2    ;  uncertainty k = 0.975666
         8        11         1         9     9        0.000000        0.389672         3    ;  uncertainty k = 0.384316
         8        11         1         9     9      180.000000        1.148171         4    ;  uncertainty k = 0.306971
         8        13        15        37     9        0.000000        0.169712         1    ;  uncertainty k = 0.541813
         8        13        15        37     9      180.000000       11.949965         2    ;  uncertainty k = 0.685779
         8        13        15        37     9        0.000000        1.307986         3    ;  uncertainty k = 0.166425
         8        13        15        37     9      180.000000        1.469384         4    ;  uncertainty k = 0.358146
         8        13        16        24     9        0.000000        0.474679         1    ;  uncertainty k = 0.537863
         8        13        16        24     9      180.000000        6.499333         2    ;  uncertainty k = 0.289293
         8        13        16        24     9        0.000000        0.733717         3    ;  uncertainty k = 0.227271
         8        13        16        24     9      180.000000        0.340407         4    ;  uncertainty k = 0.167565
         8        13        16        28     9        0.000000        1.218412         1    ;  uncertainty k = 0.445966
         8        13        16        28     9      180.000000        6.316610         2    ;  uncertainty k = 0.319354
         8        13        16        28     9        0.000000        0.783592         3    ;  uncertainty k = 0.367592
         8        13        16        28     9      180.000000        0.330983         4    ;  uncertainty k = 0.175619
         9         1         4        15     9        0.000000       -0.332014         1    ;  uncertainty k = 0.786380
         9         1         4        15     9      180.000000        5.813478         2    ;  uncertainty k = 0.622969
         9         1         4        15     9        0.000000        0.199140         3    ;  uncertainty k = 0.437924
         9         1         4        15     9      180.000000        1.393295         4    ;  uncertainty k = 0.274510
         9         1        11        41     9        0.000000       -0.816445         1    ;  uncertainty k = 1.528149
         9         1        11        41     9      180.000000        5.566428         2    ;  uncertainty k = 0.574045
         9         1        11        41     9        0.000000        0.952419         3    ;  uncertainty k = 0.254050
         9         1        11        41     9      180.000000        0.675040         4    ;  uncertainty k = 0.247873
         9        10        18        19     9        0.000000       -0.458195         1    ;  uncertainty k = 1.681825
         9        10        18        19     9      180.000000       -1.874762         2    ;  uncertainty k = 0.739856
         9        10        18        19     9        0.000000       -0.040748         3    ;  uncertainty k = 0.186193
         9        10        18        19     9      180.000000        0.284566         4    ;  uncertainty k = 0.036558
         9        10        18        45     9        0.000000       -0.358961         1    ;  uncertainty k = 0.549202
         9        10        18        45     9      180.000000       -0.676027         2    ;  uncertainty k = 0.423916
         9        10        18        45     9        0.000000        0.014841         3    ;  uncertainty k = 0.121211
         9        10        18        45     9      180.000000        0.198073         4    ;  uncertainty k = 0.095184
         9        10        18        46     9        0.000000       -0.358961         1    ;  uncertainty k = 0.549202
         9        10        18        46     9      180.000000       -0.676027         2    ;  uncertainty k = 0.423916
         9        10        18        46     9        0.000000        0.014841         3    ;  uncertainty k = 0.121211
         9        10        18        46     9      180.000000        0.198073         4    ;  uncertainty k = 0.095184
         9        10        21        20     9        0.000000       -0.458195         1    ;  uncertainty k = 1.681825
         9        10        21        20     9      180.000000       -1.874762         2    ;  uncertainty k = 0.739856
         9        10        21        20     9        0.000000       -0.040748         3    ;  uncertainty k = 0.186193
         9        10        21        20     9      180.000000        0.284566         4    ;  uncertainty k = 0.036558
         9        10        21        49     9        0.000000       -0.358961         1    ;  uncertainty k = 0.549202
         9        10        21        49     9      180.000000       -0.676027         2    ;  uncertainty k = 0.423916
         9        10        21        49     9        0.000000        0.014841         3    ;  uncertainty k = 0.121211
         9        10        21        49     9      180.000000        0.198073         4    ;  uncertainty k = 0.095184
         9        10        21        50     9        0.000000       -0.358961         1    ;  uncertainty k = 0.549202
         9        10        21        50     9      180.000000       -0.676027         2    ;  uncertainty k = 0.423916
         9        10        21        50     9        0.000000        0.014841         3    ;  uncertainty k = 0.121211
         9        10        21        50     9      180.000000        0.198073         4    ;  uncertainty k = 0.095184
        10         9         1        11     9        0.000000       -0.413227         1    ;  uncertainty k = 0.684190
        10         9         1        11     9      180.000000        6.461466         2    ;  uncertainty k = 1.055660
        10         9         1        11     9        0.000000        0.191773         3    ;  uncertainty k = 0.579159
        10         9         1        11     9      180.000000        0.830849         4    ;  uncertainty k = 0.430075
        10        18        19        12     9        0.000000        9.107743         1    ;  uncertainty k = 1.082844
        10        18        19        12     9      180.000000       -3.282809         2    ;  uncertainty k = 1.314094
        10        18        19        12     9        0.000000        2.160516         3    ;  uncertainty k = 0.186385
        10        18        19        12     9      180.000000       -0.493621         4    ;  uncertainty k = 0.354842
        10        18        19        23     9        0.000000        8.403191         1    ;  uncertainty k = 2.185287
        10        18        19        23     9      180.000000        2.355906         2    ;  uncertainty k = 1.415442
        10        18        19        23     9        0.000000        1.695368         3    ;  uncertainty k = 0.321915
        10        18        19        23     9      180.000000       -0.398746         4    ;  uncertainty k = 0.237742
        10        18        19        47     9        0.000000        1.706369         1    ;  uncertainty k = 0.425655
        10        18        19        47     9      180.000000       -2.100813         2    ;  uncertainty k = 2.274752
        10        18        19        47     9        0.000000        0.528673         3    ;  uncertainty k = 0.426932
        10        18        19        47     9      180.000000        0.298925         4    ;  uncertainty k = 0.509447
        10        21        20        12     9        0.000000        9.107743         1    ;  uncertainty k = 1.082844
        10        21        20        12     9      180.000000       -3.282809         2    ;  uncertainty k = 1.314094
        10        21        20        12     9        0.000000        2.160516         3    ;  uncertainty k = 0.186385
        10        21        20        12     9      180.000000       -0.493621         4    ;  uncertainty k = 0.354842
        10        21        20        22     9        0.000000        8.403191         1    ;  uncertainty k = 2.185287
        10        21        20        22     9      180.000000        2.355906         2    ;  uncertainty k = 1.415442
        10        21        20        22     9        0.000000        1.695368         3    ;  uncertainty k = 0.321915
        10        21        20        22     9      180.000000       -0.398746         4    ;  uncertainty k = 0.237742
        10        21        20        48     9        0.000000        1.706369         1    ;  uncertainty k = 0.425655
        10        21        20        48     9      180.000000       -2.100813         2    ;  uncertainty k = 2.274752
        10        21        20        48     9        0.000000        0.528673         3    ;  uncertainty k = 0.426932
        10        21        20        48     9      180.000000        0.298925         4    ;  uncertainty k = 0.509447
        11         1         4        15     9        0.000000       -0.639131         1    ;  uncertainty k = 1.087473
        11         1         4        15     9      180.000000        5.291773         2    ;  uncertainty k = 1.325962
        11         1         4        15     9        0.000000        0.149874         3    ;  uncertainty k = 0.251183
        11         1         4        15     9      180.000000        1.490969         4    ;  uncertainty k = 0.318201
        11         8        13        15     9        0.000000        0.407834         1    ;  uncertainty k = 0.877182
        11         8        13        15     9      180.000000       10.933288         2    ;  uncertainty k = 0.394796
        11         8        13        15     9        0.000000        1.562750         3    ;  uncertainty k = 0.587357
        11         8        13        15     9      180.000000        1.242788         4    ;  uncertainty k = 0.094117
        11         8        13        16     9        0.000000        0.848511         1    ;  uncertainty k = 1.205210
        11         8        13        16     9      180.000000       14.430682         2    ;  uncertainty k = 0.334035
        11         8        13        16     9        0.000000        2.477575         3    ;  uncertainty k = 0.466790
        11         8        13        16     9      180.000000        1.574469         4    ;  uncertainty k = 0.158451
        12        19        18        45     9        0.000000       -1.226081         1    ;  uncertainty k = 2.151708
        12        19        18        45     9      180.000000       -0.881111         2    ;  uncertainty k = 0.372613
        12        19        18        45     9        0.000000        0.771595         3    ;  uncertainty k = 0.306670
        12        19        18        45     9      180.000000       -0.188527         4    ;  uncertainty k = 0.228071
        12        19        18        46     9        0.000000       -1.226081         1    ;  uncertainty k = 2.151708
        12        19        18        46     9      180.000000       -0.881111         2    ;  uncertainty k = 0.372613
        12        19        18        46     9        0.000000        0.771595         3    ;  uncertainty k = 0.306670
        12        19        18        46     9      180.000000       -0.188527         4    ;  uncertainty k = 0.228071
        12        19        23        22     9        0.000000        0.189331         1    ;  uncertainty k = 1.089252
        12        19        23        22     9      180.000000        0.699806         2    ;  uncertainty k = 0.973188
        12        19        23        22     9        0.000000        2.265726         3    ;  uncertainty k = 0.479934
        12        19        23        22     9      180.000000       -1.705008         4    ;  uncertainty k = 0.384237
        12        19        23        53     9        0.000000       -2.507565         1    ;  uncertainty k = 1.392526
        12        19        23        53     9      180.000000       -0.064910         2    ;  uncertainty k = 0.466805
        12        19        23        53     9        0.000000        1.243317         3    ;  uncertainty k = 0.217719
        12        19        23        53     9      180.000000       -0.274757         4    ;  uncertainty k = 0.163796
        12        19        23        54     9        0.000000       -2.507565         1    ;  uncertainty k = 1.392526
        12        19        23        54     9      180.000000       -0.064910         2    ;  uncertainty k = 0.466805
        12        19        23        54     9        0.000000        1.243317         3    ;  uncertainty k = 0.217719
        12        19        23        54     9      180.000000       -0.274757         4    ;  uncertainty k = 0.163796
        12        20        21        49     9        0.000000       -1.226081         1    ;  uncertainty k = 2.151708
        12        20        21        49     9      180.000000       -0.881111         2    ;  uncertainty k = 0.372613
        12        20        21        49     9        0.000000        0.771595         3    ;  uncertainty k = 0.306670
        12        20        21        49     9      180.000000       -0.188527         4    ;  uncertainty k = 0.228071
        12        20        21        50     9        0.000000       -1.226081         1    ;  uncertainty k = 2.151708
        12        20        21        50     9      180.000000       -0.881111         2    ;  uncertainty k = 0.372613
        12        20        21        50     9        0.000000        0.771595         3    ;  uncertainty k = 0.306670
        12        20        21        50     9      180.000000       -0.188527         4    ;  uncertainty k = 0.228071
        12        20        22        23     9        0.000000        0.189331         1    ;  uncertainty k = 1.089252
        12        20        22        23     9      180.000000        0.699806         2    ;  uncertainty k = 0.973188
        12        20        22        23     9        0.000000        2.265726         3    ;  uncertainty k = 0.479934
        12        20        22        23     9      180.000000       -1.705008         4    ;  uncertainty k = 0.384237
        12        20        22        51     9        0.000000       -2.507565         1    ;  uncertainty k = 1.392526
        12        20        22        51     9      180.000000       -0.064910         2    ;  uncertainty k = 0.466805
        12        20        22        51     9        0.000000        1.243317         3    ;  uncertainty k = 0.217719
        12        20        22        51     9      180.000000       -0.274757         4    ;  uncertainty k = 0.163796
        12        20        22        52     9        0.000000       -2.507565         1    ;  uncertainty k = 1.392526
        12        20        22        52     9      180.000000       -0.064910         2    ;  uncertainty k = 0.466805
        12        20        22        52     9        0.000000        1.243317         3    ;  uncertainty k = 0.217719
        12        20        22        52     9      180.000000       -0.274757         4    ;  uncertainty k = 0.163796
        13         8        11        41     9        0.000000        0.184885         1    ;  uncertainty k = 0.611124
        13         8        11        41     9      180.000000       16.887846         2    ;  uncertainty k = 0.561469
        13         8        11        41     9        0.000000        2.149498         3    ;  uncertainty k = 0.325460
        13         8        11        41     9      180.000000        1.613184         4    ;  uncertainty k = 0.397853
        13        16        24        25     9        0.000000       -0.140919         1    ;  uncertainty k = 0.553445
        13        16        24        25     9      180.000000        6.630918         2    ;  uncertainty k = 0.723180
        13        16        24        25     9        0.000000        1.210344         3    ;  uncertainty k = 0.136790
        13        16        24        25     9      180.000000        1.658714         4    ;  uncertainty k = 0.172046
        13        16        24        38     9        0.000000       -0.249638         1    ;  uncertainty k = 0.133645
        13        16        24        38     9      180.000000       10.361880         2    ;  uncertainty k = 0.431879
        13        16        24        38     9        0.000000        1.257450         3    ;  uncertainty k = 0.316419
        13        16        24        38     9      180.000000        1.524023         4    ;  uncertainty k = 0.286891
        13        16        28        27     9        0.000000        0.001109         1    ;  uncertainty k = 0.416762
        13        16        28        27     9      180.000000        6.419257         2    ;  uncertainty k = 0.744186
        13        16        28        27     9        0.000000        1.191366         3    ;  uncertainty k = 0.225178
        13        16        28        27     9      180.000000        1.749971         4    ;  uncertainty k = 0.230824
        13        16        28        36     9        0.000000       -0.257204         1    ;  uncertainty k = 0.092374
        13        16        28        36     9      180.000000        9.941873         2    ;  uncertainty k = 0.441376
        13        16        28        36     9        0.000000        1.270256         3    ;  uncertainty k = 0.309094
        13        16        28        36     9      180.000000        1.531931         4    ;  uncertainty k = 0.246280
        14        29        17        43     9        0.000000        0.049742         1    ;  uncertainty k = 0.745563
        14        29        17        43     9      180.000000       -1.170188         2    ;  uncertainty k = 0.650585
        14        29        17        43     9        0.000000        0.499370         3    ;  uncertainty k = 0.136241
        14        29        17        43     9      180.000000       -0.292875         4    ;  uncertainty k = 0.198185
        14        29        17        44     9        0.000000        0.049742         1    ;  uncertainty k = 0.745563
        14        29        17        44     9      180.000000       -1.170188         2    ;  uncertainty k = 0.650585
        14        29        17        44     9        0.000000        0.499370         3    ;  uncertainty k = 0.136241
        14        29        17        44     9      180.000000       -0.292875         4    ;  uncertainty k = 0.198185
        14        29        30        31     9        0.000000       -0.898348         1    ;  uncertainty k = 1.726283
        14        29        30        31     9      180.000000        3.193405         2    ;  uncertainty k = 1.515929
        14        29        30        31     9        0.000000        0.725565         3    ;  uncertainty k = 0.344337
        14        29        30        31     9      180.000000       -1.120834         4    ;  uncertainty k = 0.364794
        14        29        30        56     9        0.000000       -0.541689         1    ;  uncertainty k = 0.702923
        14        29        30        56     9      180.000000       -1.022977         2    ;  uncertainty k = 0.261511
        14        29        30        56     9        0.000000        0.537575         3    ;  uncertainty k = 0.249839
        14        29        30        56     9      180.000000       -0.219637         4    ;  uncertainty k = 0.107355
        14        29        30        57     9        0.000000       -0.541689         1    ;  uncertainty k = 0.702923
        14        29        30        57     9      180.000000       -1.022977         2    ;  uncertainty k = 0.261511
        14        29        30        57     9        0.000000        0.537575         3    ;  uncertainty k = 0.249839
        14        29        30        57     9      180.000000       -0.219637         4    ;  uncertainty k = 0.107355
        14        29        35        34     9        0.000000       -0.898348         1    ;  uncertainty k = 1.726283
        14        29        35        34     9      180.000000        3.193405         2    ;  uncertainty k = 1.515929
        14        29        35        34     9        0.000000        0.725565         3    ;  uncertainty k = 0.344337
        14        29        35        34     9      180.000000       -1.120834         4    ;  uncertainty k = 0.364794
        14        29        35        65     9        0.000000       -0.541689         1    ;  uncertainty k = 0.702923
        14        29        35        65     9      180.000000       -1.022977         2    ;  uncertainty k = 0.261511
        14        29        35        65     9        0.000000        0.537575         3    ;  uncertainty k = 0.249839
        14        29        35        65     9      180.000000       -0.219637         4    ;  uncertainty k = 0.107355
        14        29        35        66     9        0.000000       -0.541689         1    ;  uncertainty k = 0.702923
        14        29        35        66     9      180.000000       -1.022977         2    ;  uncertainty k = 0.261511
        14        29        35        66     9        0.000000        0.537575         3    ;  uncertainty k = 0.249839
        14        29        35        66     9      180.000000       -0.219637         4    ;  uncertainty k = 0.107355
        14        32        31        30     9        0.000000       -1.387610         1    ;  uncertainty k = 1.109405
        14        32        31        30     9      180.000000        2.012668         2    ;  uncertainty k = 1.230856
        14        32        31        30     9        0.000000        0.923773         3    ;  uncertainty k = 0.400646
        14        32        31        30     9      180.000000       -1.631414         4    ;  uncertainty k = 0.408040
        14        32        31        58     9        0.000000       -0.675511         1    ;  uncertainty k = 1.211569
        14        32        31        58     9      180.000000       -1.038004         2    ;  uncertainty k = 0.678426
        14        32        31        58     9        0.000000        0.841439         3    ;  uncertainty k = 0.145159
        14        32        31        58     9      180.000000        0.063912         4    ;  uncertainty k = 0.145681
        14        32        31        69     9        0.000000       -0.675511         1    ;  uncertainty k = 1.211569
        14        32        31        69     9      180.000000       -1.038004         2    ;  uncertainty k = 0.678426
        14        32        31        69     9        0.000000        0.841439         3    ;  uncertainty k = 0.145159
        14        32        31        69     9      180.000000        0.063912         4    ;  uncertainty k = 0.145681
        14        33        34        35     9        0.000000       -1.387610         1    ;  uncertainty k = 1.109405
        14        33        34        35     9      180.000000        2.012668         2    ;  uncertainty k = 1.230856
        14        33        34        35     9        0.000000        0.923773         3    ;  uncertainty k = 0.400646
        14        33        34        35     9      180.000000       -1.631414         4    ;  uncertainty k = 0.408040
        14        33        34        63     9        0.000000       -0.675511         1    ;  uncertainty k = 1.211569
        14        33        34        63     9      180.000000       -1.038004         2    ;  uncertainty k = 0.678426
        14        33        34        63     9        0.000000        0.841439         3    ;  uncertainty k = 0.145159
        14        33        34        63     9      180.000000        0.063912         4    ;  uncertainty k = 0.145681
        14        33        34        64     9        0.000000       -0.675511         1    ;  uncertainty k = 1.211569
        14        33        34        64     9      180.000000       -1.038004         2    ;  uncertainty k = 0.678426
        14        33        34        64     9        0.000000        0.841439         3    ;  uncertainty k = 0.145159
        14        33        34        64     9      180.000000        0.063912         4    ;  uncertainty k = 0.145681
        15        13        16        24     9        0.000000        0.086358         1    ;  uncertainty k = 0.927674
        15        13        16        24     9      180.000000        5.360259         2    ;  uncertainty k = 0.550423
        15        13        16        24     9        0.000000        0.764856         3    ;  uncertainty k = 0.356358
        15        13        16        24     9      180.000000        0.271214         4    ;  uncertainty k = 0.259681
        15        13        16        28     9        0.000000        0.379729         1    ;  uncertainty k = 0.768012
        15        13        16        28     9      180.000000        5.306425         2    ;  uncertainty k = 0.565478
        15        13        16        28     9        0.000000        0.621593         3    ;  uncertainty k = 0.233484
        15        13        16        28     9      180.000000        0.287930         4    ;  uncertainty k = 0.230007
        16        13        15        37     9        0.000000        0.041482         1    ;  uncertainty k = 0.241487
        16        13        15        37     9      180.000000       10.816232         2    ;  uncertainty k = 0.511909
        16        13        15        37     9        0.000000        1.233643         3    ;  uncertainty k = 0.282660
        16        13        15        37     9      180.000000        1.369434         4    ;  uncertainty k = 0.298320
        16        24        25        26     9        0.000000       -0.530158         1    ;  uncertainty k = 0.563929
        16        24        25        26     9      180.000000        4.013008         2    ;  uncertainty k = 1.336566
        16        24        25        26     9        0.000000        0.670331         3    ;  uncertainty k = 0.213779
        16        24        25        26     9      180.000000        1.368995         4    ;  uncertainty k = 0.201968
        16        28        27        26     9        0.000000        0.199799         1    ;  uncertainty k = 0.403799
        16        28        27        26     9      180.000000        8.126011         2    ;  uncertainty k = 0.585130
        16        28        27        26     9        0.000000        0.172469         3    ;  uncertainty k = 0.225063
        16        28        27        26     9      180.000000        1.376649         4    ;  uncertainty k = 0.285654
        16        28        27        55     9        0.000000        0.003060         1    ;  uncertainty k = 0.402308
        16        28        27        55     9      180.000000        5.342276         2    ;  uncertainty k = 0.719572
        16        28        27        55     9        0.000000        1.259559         3    ;  uncertainty k = 0.286602
        16        28        27        55     9      180.000000        1.567607         4    ;  uncertainty k = 0.236915
        17        29        14        32     9        0.000000       -0.670657         1    ;  uncertainty k = 0.851882
        17        29        14        32     9      180.000000        0.665948         2    ;  uncertainty k = 0.395041
        17        29        14        32     9        0.000000        1.161263         3    ;  uncertainty k = 0.236122
        17        29        14        32     9      180.000000       -0.025637         4    ;  uncertainty k = 0.124773
        17        29        14        33     9        0.000000       -0.670657         1    ;  uncertainty k = 0.851882
        17        29        14        33     9      180.000000        0.665948         2    ;  uncertainty k = 0.395041
        17        29        14        33     9        0.000000        1.161263         3    ;  uncertainty k = 0.236122
        17        29        14        33     9      180.000000       -0.025637         4    ;  uncertainty k = 0.124773
        17        29        14        68     9        0.000000        3.034450         1    ;  uncertainty k = 1.672040
        17        29        14        68     9      180.000000       -1.172070         2    ;  uncertainty k = 0.894701
        17        29        14        68     9        0.000000        0.496658         3    ;  uncertainty k = 0.257929
        17        29        14        68     9      180.000000       -0.163886         4    ;  uncertainty k = 0.133720
        17        29        30        31     9        0.000000       -3.031200         1    ;  uncertainty k = 1.067232
        17        29        30        31     9      180.000000        1.292167         2    ;  uncertainty k = 0.715682
        17        29        30        31     9        0.000000        0.831784         3    ;  uncertainty k = 0.203645
        17        29        30        31     9      180.000000       -0.023948         4    ;  uncertainty k = 0.296811
        17        29        30        56     9        0.000000        0.134067         1    ;  uncertainty k = 0.327465
        17        29        30        56     9      180.000000       -0.441122         2    ;  uncertainty k = 0.399250
        17        29        30        56     9        0.000000        0.711440         3    ;  uncertainty k = 0.190826
        17        29        30        56     9      180.000000       -0.126491         4    ;  uncertainty k = 0.133758
        17        29        30        57     9        0.000000        0.134067         1    ;  uncertainty k = 0.327465
        17        29        30        57     9      180.000000       -0.441122         2    ;  uncertainty k = 0.399250
        17        29        30        57     9        0.000000        0.711440         3    ;  uncertainty k = 0.190826
        17        29        30        57     9      180.000000       -0.126491         4    ;  uncertainty k = 0.133758
        17        29        35        34     9        0.000000       -3.031200         1    ;  uncertainty k = 1.067232
        17        29        35        34     9      180.000000        1.292167         2    ;  uncertainty k = 0.715682
        17        29        35        34     9        0.000000        0.831784         3    ;  uncertainty k = 0.203645
        17        29        35        34     9      180.000000       -0.023948         4    ;  uncertainty k = 0.296811
        17        29        35        65     9        0.000000        0.134067         1    ;  uncertainty k = 0.327465
        17        29        35        65     9      180.000000       -0.441122         2    ;  uncertainty k = 0.399250
        17        29        35        65     9        0.000000        0.711440         3    ;  uncertainty k = 0.190826
        17        29        35        65     9      180.000000       -0.126491         4    ;  uncertainty k = 0.133758
        17        29        35        66     9        0.000000        0.134067         1    ;  uncertainty k = 0.327465
        17        29        35        66     9      180.000000       -0.441122         2    ;  uncertainty k = 0.399250
        17        29        35        66     9        0.000000        0.711440         3    ;  uncertainty k = 0.190826
        17        29        35        66     9      180.000000       -0.126491         4    ;  uncertainty k = 0.133758
        18        10        21        20     9        0.000000        0.996296         1    ;  uncertainty k = 3.091746
        18        10        21        20     9      180.000000       -3.882568         2    ;  uncertainty k = 0.920126
        18        10        21        20     9        0.000000        0.631843         3    ;  uncertainty k = 0.319690
        18        10        21        20     9      180.000000       -0.069009         4    ;  uncertainty k = 0.224471
        18        10        21        49     9        0.000000       -4.262002         1    ;  uncertainty k = 1.361313
        18        10        21        49     9      180.000000        0.464518         2    ;  uncertainty k = 0.710044
        18        10        21        49     9        0.000000        0.955170         3    ;  uncertainty k = 0.043456
        18        10        21        49     9      180.000000       -0.070179         4    ;  uncertainty k = 0.112495
        18        10        21        50     9        0.000000       -4.262002         1    ;  uncertainty k = 1.361313
        18        10        21        50     9      180.000000        0.464518         2    ;  uncertainty k = 0.710044
        18        10        21        50     9        0.000000        0.955170         3    ;  uncertainty k = 0.043456
        18        10        21        50     9      180.000000       -0.070179         4    ;  uncertainty k = 0.112495
        18        19        12        20     9        0.000000        2.332974         1    ;  uncertainty k = 3.433745
        18        19        12        20     9      180.000000       -0.969466         2    ;  uncertainty k = 2.647801
        18        19        12        20     9        0.000000        0.669799         3    ;  uncertainty k = 0.434210
        18        19        12        20     9      180.000000       -0.707708         4    ;  uncertainty k = 0.580677
        18        19        12        42     9        0.000000        1.449081         1    ;  uncertainty k = 1.710019
        18        19        12        42     9      180.000000       -0.149483         2    ;  uncertainty k = 1.068319
        18        19        12        42     9        0.000000        0.745969         3    ;  uncertainty k = 0.389032
        18        19        12        42     9      180.000000        0.030759         4    ;  uncertainty k = 0.168263
        18        19        12        67     9        0.000000        1.449081         1    ;  uncertainty k = 1.710019
        18        19        12        67     9      180.000000       -0.149483         2    ;  uncertainty k = 1.068319
        18        19        12        67     9        0.000000        0.745969         3    ;  uncertainty k = 0.389032
        18        19        12        67     9      180.000000        0.030759         4    ;  uncertainty k = 0.168263
        18        19        23        22     9        0.000000        1.425983         1    ;  uncertainty k = 2.348979
        18        19        23        22     9      180.000000        1.085251         2    ;  uncertainty k = 1.083519
        18        19        23        22     9        0.000000        1.042528         3    ;  uncertainty k = 0.388855
        18        19        23        22     9      180.000000       -0.396419         4    ;  uncertainty k = 0.415101
        18        19        23        53     9        0.000000       -0.935670         1    ;  uncertainty k = 0.319567
        18        19        23        53     9      180.000000       -0.073400         2    ;  uncertainty k = 0.323152
        18        19        23        53     9        0.000000        0.584904         3    ;  uncertainty k = 0.288153
        18        19        23        53     9      180.000000       -0.098097         4    ;  uncertainty k = 0.050566
        18        19        23        54     9        0.000000       -0.935670         1    ;  uncertainty k = 0.319567
        18        19        23        54     9      180.000000       -0.073400         2    ;  uncertainty k = 0.323152
        18        19        23        54     9        0.000000        0.584904         3    ;  uncertainty k = 0.288153
        18        19        23        54     9      180.000000       -0.098097         4    ;  uncertainty k = 0.050566
        19        12        20        21     9        0.000000        2.332974         1    ;  uncertainty k = 3.433745
        19        12        20        21     9      180.000000       -0.969466         2    ;  uncertainty k = 2.647801
        19        12        20        21     9        0.000000        0.669799         3    ;  uncertainty k = 0.434210
        19        12        20        21     9      180.000000       -0.707708         4    ;  uncertainty k = 0.580677
        19        12        20        22     9        0.000000       -2.863884         1    ;  uncertainty k = 0.953340
        19        12        20        22     9      180.000000        5.881051         2    ;  uncertainty k = 1.496646
        19        12        20        22     9        0.000000        0.959501         3    ;  uncertainty k = 0.308106
        19        12        20        22     9      180.000000       -1.578218         4    ;  uncertainty k = 0.785949
        19        12        20        48     9        0.000000       -2.464294         1    ;  uncertainty k = 3.480424
        19        12        20        48     9      180.000000       -1.153887         2    ;  uncertainty k = 0.886333
        19        12        20        48     9        0.000000        0.163905         3    ;  uncertainty k = 0.495815
        19        12        20        48     9      180.000000       -0.156421         4    ;  uncertainty k = 0.288580
        19        18        10        21     9        0.000000        0.996296         1    ;  uncertainty k = 3.091746
        19        18        10        21     9      180.000000       -3.882568         2    ;  uncertainty k = 0.920126
        19        18        10        21     9        0.000000        0.631843         3    ;  uncertainty k = 0.319690
        19        18        10        21     9      180.000000       -0.069009         4    ;  uncertainty k = 0.224471
        19        23        22        20     9        0.000000       -2.135289         1    ;  uncertainty k = 3.339583
        19        23        22        20     9      180.000000        7.371280         2    ;  uncertainty k = 1.668222
        19        23        22        20     9        0.000000        0.556705         3    ;  uncertainty k = 0.529878
        19        23        22        20     9      180.000000       -1.870357         4    ;  uncertainty k = 0.587896
        19        23        22        51     9        0.000000       -1.534651         1    ;  uncertainty k = 0.857224
        19        23        22        51     9      180.000000        0.015553         2    ;  uncertainty k = 0.276003
        19        23        22        51     9        0.000000        0.812494         3    ;  uncertainty k = 0.034992
        19        23        22        51     9      180.000000        0.159229         4    ;  uncertainty k = 0.085386
        19        23        22        52     9        0.000000       -1.534651         1    ;  uncertainty k = 0.857224
        19        23        22        52     9      180.000000        0.015553         2    ;  uncertainty k = 0.276003
        19        23        22        52     9        0.000000        0.812494         3    ;  uncertainty k = 0.034992
        19        23        22        52     9      180.000000        0.159229         4    ;  uncertainty k = 0.085386
        20        12        19        23     9        0.000000       -2.863884         1    ;  uncertainty k = 0.953340
        20        12        19        23     9      180.000000        5.881051         2    ;  uncertainty k = 1.496646
        20        12        19        23     9        0.000000        0.959501         3    ;  uncertainty k = 0.308106
        20        12        19        23     9      180.000000       -1.578218         4    ;  uncertainty k = 0.785949
        20        12        19        47     9        0.000000       -2.464294         1    ;  uncertainty k = 3.480424
        20        12        19        47     9      180.000000       -1.153887         2    ;  uncertainty k = 0.886333
        20        12        19        47     9        0.000000        0.163905         3    ;  uncertainty k = 0.495815
        20        12        19        47     9      180.000000       -0.156421         4    ;  uncertainty k = 0.288580
        20        22        23        53     9        0.000000       -1.534651         1    ;  uncertainty k = 0.857224
        20        22        23        53     9      180.000000        0.015553         2    ;  uncertainty k = 0.276003
        20        22        23        53     9        0.000000        0.812494         3    ;  uncertainty k = 0.034992
        20        22        23        53     9      180.000000        0.159229         4    ;  uncertainty k = 0.085386
        20        22        23        54     9        0.000000       -1.534651         1    ;  uncertainty k = 0.857224
        20        22        23        54     9      180.000000        0.015553         2    ;  uncertainty k = 0.276003
        20        22        23        54     9        0.000000        0.812494         3    ;  uncertainty k = 0.034992
        20        22        23        54     9      180.000000        0.159229         4    ;  uncertainty k = 0.085386
        21        10        18        45     9        0.000000       -4.262002         1    ;  uncertainty k = 1.361313
        21        10        18        45     9      180.000000        0.464518         2    ;  uncertainty k = 0.710044
        21        10        18        45     9        0.000000        0.955170         3    ;  uncertainty k = 0.043456
        21        10        18        45     9      180.000000       -0.070179         4    ;  uncertainty k = 0.112495
        21        10        18        46     9        0.000000       -4.262002         1    ;  uncertainty k = 1.361313
        21        10        18        46     9      180.000000        0.464518         2    ;  uncertainty k = 0.710044
        21        10        18        46     9        0.000000        0.955170         3    ;  uncertainty k = 0.043456
        21        10        18        46     9      180.000000       -0.070179         4    ;  uncertainty k = 0.112495
        21        20        12        42     9        0.000000        1.449081         1    ;  uncertainty k = 1.710019
        21        20        12        42     9      180.000000       -0.149483         2    ;  uncertainty k = 1.068319
        21        20        12        42     9        0.000000        0.745969         3    ;  uncertainty k = 0.389032
        21        20        12        42     9      180.000000        0.030759         4    ;  uncertainty k = 0.168263
        21        20        12        67     9        0.000000        1.449081         1    ;  uncertainty k = 1.710019
        21        20        12        67     9      180.000000       -0.149483         2    ;  uncertainty k = 1.068319
        21        20        12        67     9        0.000000        0.745969         3    ;  uncertainty k = 0.389032
        21        20        12        67     9      180.000000        0.030759         4    ;  uncertainty k = 0.168263
        21        20        22        23     9        0.000000        1.425983         1    ;  uncertainty k = 2.348979
        21        20        22        23     9      180.000000        1.085251         2    ;  uncertainty k = 1.083519
        21        20        22        23     9        0.000000        1.042528         3    ;  uncertainty k = 0.388855
        21        20        22        23     9      180.000000       -0.396419         4    ;  uncertainty k = 0.415101
        21        20        22        51     9        0.000000       -0.935670         1    ;  uncertainty k = 0.319567
        21        20        22        51     9      180.000000       -0.073400         2    ;  uncertainty k = 0.323152
        21        20        22        51     9        0.000000        0.584904         3    ;  uncertainty k = 0.288153
        21        20        22        51     9      180.000000       -0.098097         4    ;  uncertainty k = 0.050566
        21        20        22        52     9        0.000000       -0.935670         1    ;  uncertainty k = 0.319567
        21        20        22        52     9      180.000000       -0.073400         2    ;  uncertainty k = 0.323152
        21        20        22        52     9        0.000000        0.584904         3    ;  uncertainty k = 0.288153
        21        20        22        52     9      180.000000       -0.098097         4    ;  uncertainty k = 0.050566
        22        20        12        42     9        0.000000       -1.262213         1    ;  uncertainty k = 1.005152
        22        20        12        42     9      180.000000        2.725544         2    ;  uncertainty k = 0.732836
        22        20        12        42     9        0.000000        0.844379         3    ;  uncertainty k = 0.439475
        22        20        12        42     9      180.000000       -0.092959         4    ;  uncertainty k = 0.177019
        22        20        12        67     9        0.000000       -1.262213         1    ;  uncertainty k = 1.005152
        22        20        12        67     9      180.000000        2.725544         2    ;  uncertainty k = 0.732836
        22        20        12        67     9        0.000000        0.844379         3    ;  uncertainty k = 0.439475
        22        20        12        67     9      180.000000       -0.092959         4    ;  uncertainty k = 0.177019
        22        20        21        49     9        0.000000       -1.591268         1    ;  uncertainty k = 0.965378
        22        20        21        49     9      180.000000        0.142374         2    ;  uncertainty k = 0.299069
        22        20        21        49     9        0.000000        0.343526         3    ;  uncertainty k = 0.196374
        22        20        21        49     9      180.000000       -0.030757         4    ;  uncertainty k = 0.039234
        22        20        21        50     9        0.000000       -1.591268         1    ;  uncertainty k = 0.965378
        22        20        21        50     9      180.000000        0.142374         2    ;  uncertainty k = 0.299069
        22        20        21        50     9        0.000000        0.343526         3    ;  uncertainty k = 0.196374
        22        20        21        50     9      180.000000       -0.030757         4    ;  uncertainty k = 0.039234
        22        23        19        47     9        0.000000       -0.957159         1    ;  uncertainty k = 1.390041
        22        23        19        47     9      180.000000        0.911072         2    ;  uncertainty k = 0.870353
        22        23        19        47     9        0.000000        0.472911         3    ;  uncertainty k = 0.357988
        22        23        19        47     9      180.000000       -0.015053         4    ;  uncertainty k = 0.294989
        23        19        12        42     9        0.000000       -1.262213         1    ;  uncertainty k = 1.005152
        23        19        12        42     9      180.000000        2.725544         2    ;  uncertainty k = 0.732836
        23        19        12        42     9        0.000000        0.844379         3    ;  uncertainty k = 0.439475
        23        19        12        42     9      180.000000       -0.092959         4    ;  uncertainty k = 0.177019
        23        19        12        67     9        0.000000       -1.262213         1    ;  uncertainty k = 1.005152
        23        19        12        67     9      180.000000        2.725544         2    ;  uncertainty k = 0.732836
        23        19        12        67     9        0.000000        0.844379         3    ;  uncertainty k = 0.439475
        23        19        12        67     9      180.000000       -0.092959         4    ;  uncertainty k = 0.177019
        23        19        18        45     9        0.000000       -1.591268         1    ;  uncertainty k = 0.965378
        23        19        18        45     9      180.000000        0.142374         2    ;  uncertainty k = 0.299069
        23        19        18        45     9        0.000000        0.343526         3    ;  uncertainty k = 0.196374
        23        19        18        45     9      180.000000       -0.030757         4    ;  uncertainty k = 0.039234
        23        19        18        46     9        0.000000       -1.591268         1    ;  uncertainty k = 0.965378
        23        19        18        46     9      180.000000        0.142374         2    ;  uncertainty k = 0.299069
        23        19        18        46     9        0.000000        0.343526         3    ;  uncertainty k = 0.196374
        23        19        18        46     9      180.000000       -0.030757         4    ;  uncertainty k = 0.039234
        23        22        20        48     9        0.000000       -0.957159         1    ;  uncertainty k = 1.390041
        23        22        20        48     9      180.000000        0.911072         2    ;  uncertainty k = 0.870353
        23        22        20        48     9        0.000000        0.472911         3    ;  uncertainty k = 0.357988
        23        22        20        48     9      180.000000       -0.015053         4    ;  uncertainty k = 0.294989
        24        16        28        27     9        0.000000        0.002734         1    ;  uncertainty k = 0.400286
        24        16        28        27     9      180.000000        6.833144         2    ;  uncertainty k = 1.054180
        24        16        28        27     9        0.000000        0.504209         3    ;  uncertainty k = 0.357995
        24        16        28        27     9      180.000000        1.402582         4    ;  uncertainty k = 0.208676
        24        16        28        36     9        0.000000        0.021709         1    ;  uncertainty k = 0.324956
        24        16        28        36     9      180.000000       10.631141         2    ;  uncertainty k = 0.169133
        24        16        28        36     9        0.000000        1.562546         3    ;  uncertainty k = 0.396213
        24        16        28        36     9      180.000000        1.631925         4    ;  uncertainty k = 0.076911
        24        25         6        40     9        0.000000        8.445253         1    ;  uncertainty k = 1.062336
        24        25         6        40     9      180.000000        3.299654         2    ;  uncertainty k = 0.683449
        24        25         6        40     9        0.000000        0.744767         3    ;  uncertainty k = 0.244805
        24        25         6        40     9      180.000000        0.279748         4    ;  uncertainty k = 0.102384
        24        25        26        27     9        0.000000       -0.466334         1    ;  uncertainty k = 0.811474
        24        25        26        27     9      180.000000        4.968719         2    ;  uncertainty k = 1.745810
        24        25        26        27     9        0.000000        0.537860         3    ;  uncertainty k = 0.208638
        24        25        26        27     9      180.000000        1.282686         4    ;  uncertainty k = 0.329916
        24        25        26        39     9        0.000000        0.191673         1    ;  uncertainty k = 0.647226
        24        25        26        39     9      180.000000        8.370951         2    ;  uncertainty k = 0.468506
        24        25        26        39     9        0.000000        1.532790         3    ;  uncertainty k = 0.368290
        24        25        26        39     9      180.000000        1.606752         4    ;  uncertainty k = 0.119046
        25        24        16        28     9        0.000000       -0.084438         1    ;  uncertainty k = 0.249597
        25        24        16        28     9      180.000000        6.595601         2    ;  uncertainty k = 0.857359
        25        24        16        28     9        0.000000        0.528625         3    ;  uncertainty k = 0.422784
        25        24        16        28     9      180.000000        1.334207         4    ;  uncertainty k = 0.201684
        25        26        27        28     9        0.000000       -0.214014         1    ;  uncertainty k = 0.204897
        25        26        27        28     9      180.000000        8.440858         2    ;  uncertainty k = 0.578409
        25        26        27        28     9        0.000000        0.254533         3    ;  uncertainty k = 0.394032
        25        26        27        28     9      180.000000        1.368211         4    ;  uncertainty k = 0.213893
        25        26        27        55     9        0.000000        0.032406         1    ;  uncertainty k = 0.325906
        25        26        27        55     9      180.000000        5.677354         2    ;  uncertainty k = 0.593086
        25        26        27        55     9        0.000000        1.243775         3    ;  uncertainty k = 0.359791
        25        26        27        55     9      180.000000        1.487990         4    ;  uncertainty k = 0.180557
        26        25         6        40     9        0.000000        9.057061         1    ;  uncertainty k = 0.912548
        26        25         6        40     9      180.000000        2.983236         2    ;  uncertainty k = 0.659103
        26        25         6        40     9        0.000000        0.683878         3    ;  uncertainty k = 0.222522
        26        25         6        40     9      180.000000        0.313240         4    ;  uncertainty k = 0.066438
        26        25        24        38     9        0.000000        0.243026         1    ;  uncertainty k = 0.599570
        26        25        24        38     9      180.000000        8.643892         2    ;  uncertainty k = 0.460268
        26        25        24        38     9        0.000000        1.529156         3    ;  uncertainty k = 0.183705
        26        25        24        38     9      180.000000        1.689800         4    ;  uncertainty k = 0.181096
        26        27        28        36     9        0.000000        0.017830         1    ;  uncertainty k = 0.210333
        26        27        28        36     9      180.000000       12.721804         2    ;  uncertainty k = 0.322212
        26        27        28        36     9        0.000000        1.374157         3    ;  uncertainty k = 0.320144
        26        27        28        36     9      180.000000        1.583697         4    ;  uncertainty k = 0.205668
        28        16        24        38     9        0.000000       -0.046448         1    ;  uncertainty k = 0.270777
        28        16        24        38     9      180.000000       10.598956         2    ;  uncertainty k = 0.416053
        28        16        24        38     9        0.000000        1.629099         3    ;  uncertainty k = 0.376651
        28        16        24        38     9      180.000000        1.685527         4    ;  uncertainty k = 0.034330
        28        27        26        39     9        0.000000       -0.052850         1    ;  uncertainty k = 0.252382
        28        27        26        39     9      180.000000       12.360246         2    ;  uncertainty k = 0.588446
        28        27        26        39     9        0.000000        1.565464         3    ;  uncertainty k = 0.370276
        28        27        26        39     9      180.000000        1.537753         4    ;  uncertainty k = 0.234677
        29        14        32        31     9        0.000000       -3.407388         1    ;  uncertainty k = 2.109307
        29        14        32        31     9      180.000000        4.120696         2    ;  uncertainty k = 2.463072
        29        14        32        31     9        0.000000        0.725978         3    ;  uncertainty k = 0.277005
        29        14        32        31     9      180.000000       -0.936229         4    ;  uncertainty k = 0.268703
        29        14        32        59     9        0.000000        0.666482         1    ;  uncertainty k = 0.380223
        29        14        32        59     9      180.000000       -0.517453         2    ;  uncertainty k = 0.668413
        29        14        32        59     9        0.000000        0.536081         3    ;  uncertainty k = 0.148442
        29        14        32        59     9      180.000000        0.106400         4    ;  uncertainty k = 0.122630
        29        14        32        60     9        0.000000        0.666482         1    ;  uncertainty k = 0.380223
        29        14        32        60     9      180.000000       -0.517453         2    ;  uncertainty k = 0.668413
        29        14        32        60     9        0.000000        0.536081         3    ;  uncertainty k = 0.148442
        29        14        32        60     9      180.000000        0.106400         4    ;  uncertainty k = 0.122630
        29        14        33        34     9        0.000000       -3.407388         1    ;  uncertainty k = 2.109307
        29        14        33        34     9      180.000000        4.120696         2    ;  uncertainty k = 2.463072
        29        14        33        34     9        0.000000        0.725978         3    ;  uncertainty k = 0.277005
        29        14        33        34     9      180.000000       -0.936229         4    ;  uncertainty k = 0.268703
        29        14        33        61     9        0.000000        0.666482         1    ;  uncertainty k = 0.380223
        29        14        33        61     9      180.000000       -0.517453         2    ;  uncertainty k = 0.668413
        29        14        33        61     9        0.000000        0.536081         3    ;  uncertainty k = 0.148442
        29        14        33        61     9      180.000000        0.106400         4    ;  uncertainty k = 0.122630
        29        14        33        62     9        0.000000        0.666482         1    ;  uncertainty k = 0.380223
        29        14        33        62     9      180.000000       -0.517453         2    ;  uncertainty k = 0.668413
        29        14        33        62     9        0.000000        0.536081         3    ;  uncertainty k = 0.148442
        29        14        33        62     9      180.000000        0.106400         4    ;  uncertainty k = 0.122630
        29        30        31        32     9        0.000000       -0.936159         1    ;  uncertainty k = 0.878809
        29        30        31        32     9      180.000000        4.352809         2    ;  uncertainty k = 1.917877
        29        30        31        32     9        0.000000        0.309132         3    ;  uncertainty k = 0.338140
        29        30        31        32     9      180.000000       -1.672103         4    ;  uncertainty k = 0.603173
        29        30        31        58     9        0.000000       -0.561404         1    ;  uncertainty k = 0.444502
        29        30        31        58     9      180.000000       -0.631726         2    ;  uncertainty k = 0.317717
        29        30        31        58     9        0.000000        0.553607         3    ;  uncertainty k = 0.152017
        29        30        31        58     9      180.000000        0.123885         4    ;  uncertainty k = 0.094643
        29        30        31        69     9        0.000000       -0.561404         1    ;  uncertainty k = 0.444502
        29        30        31        69     9      180.000000       -0.631726         2    ;  uncertainty k = 0.317717
        29        30        31        69     9        0.000000        0.553607         3    ;  uncertainty k = 0.152017
        29        30        31        69     9      180.000000        0.123885         4    ;  uncertainty k = 0.094643
        29        35        34        33     9        0.000000       -0.936159         1    ;  uncertainty k = 0.878809
        29        35        34        33     9      180.000000        4.352809         2    ;  uncertainty k = 1.917877
        29        35        34        33     9        0.000000        0.309132         3    ;  uncertainty k = 0.338140
        29        35        34        33     9      180.000000       -1.672103         4    ;  uncertainty k = 0.603173
        29        35        34        63     9        0.000000       -0.561404         1    ;  uncertainty k = 0.444502
        29        35        34        63     9      180.000000       -0.631726         2    ;  uncertainty k = 0.317717
        29        35        34        63     9        0.000000        0.553607         3    ;  uncertainty k = 0.152017
        29        35        34        63     9      180.000000        0.123885         4    ;  uncertainty k = 0.094643
        29        35        34        64     9        0.000000       -0.561404         1    ;  uncertainty k = 0.444502
        29        35        34        64     9      180.000000       -0.631726         2    ;  uncertainty k = 0.317717
        29        35        34        64     9        0.000000        0.553607         3    ;  uncertainty k = 0.152017
        29        35        34        64     9      180.000000        0.123885         4    ;  uncertainty k = 0.094643
        30        29        14        32     9        0.000000       -2.953874         1    ;  uncertainty k = 1.260036
        30        29        14        32     9      180.000000        0.317536         2    ;  uncertainty k = 1.190646
        30        29        14        32     9        0.000000        1.515133         3    ;  uncertainty k = 0.338737
        30        29        14        32     9      180.000000       -0.190647         4    ;  uncertainty k = 0.333546
        30        29        14        33     9        0.000000       -2.953874         1    ;  uncertainty k = 1.260036
        30        29        14        33     9      180.000000        0.317536         2    ;  uncertainty k = 1.190646
        30        29        14        33     9        0.000000        1.515133         3    ;  uncertainty k = 0.338737
        30        29        14        33     9      180.000000       -0.190647         4    ;  uncertainty k = 0.333546
        30        29        14        68     9        0.000000        1.782638         1    ;  uncertainty k = 1.524891
        30        29        14        68     9      180.000000        0.192781         2    ;  uncertainty k = 0.398730
        30        29        14        68     9        0.000000        0.494295         3    ;  uncertainty k = 0.359414
        30        29        14        68     9      180.000000       -0.125405         4    ;  uncertainty k = 0.202817
        30        29        17        43     9        0.000000       -1.307524         1    ;  uncertainty k = 0.494714
        30        29        17        43     9      180.000000        0.091835         2    ;  uncertainty k = 0.191243
        30        29        17        43     9        0.000000        0.337394         3    ;  uncertainty k = 0.133876
        30        29        17        43     9      180.000000       -0.168104         4    ;  uncertainty k = 0.052222
        30        29        17        44     9        0.000000       -1.307524         1    ;  uncertainty k = 0.494714
        30        29        17        44     9      180.000000        0.091835         2    ;  uncertainty k = 0.191243
        30        29        17        44     9        0.000000        0.337394         3    ;  uncertainty k = 0.133876
        30        29        17        44     9      180.000000       -0.168104         4    ;  uncertainty k = 0.052222
        30        29        35        34     9        0.000000       -3.276913         1    ;  uncertainty k = 1.069148
        30        29        35        34     9      180.000000        1.694588         2    ;  uncertainty k = 0.548900
        30        29        35        34     9        0.000000        0.936272         3    ;  uncertainty k = 0.213477
        30        29        35        34     9      180.000000       -0.056898         4    ;  uncertainty k = 0.245705
        30        29        35        65     9        0.000000       -0.716564         1    ;  uncertainty k = 0.309990
        30        29        35        65     9      180.000000       -0.082751         2    ;  uncertainty k = 0.243857
        30        29        35        65     9        0.000000        0.630460         3    ;  uncertainty k = 0.193976
        30        29        35        65     9      180.000000        0.000896         4    ;  uncertainty k = 0.065597
        30        29        35        66     9        0.000000       -0.716564         1    ;  uncertainty k = 0.309990
        30        29        35        66     9      180.000000       -0.082751         2    ;  uncertainty k = 0.243857
        30        29        35        66     9        0.000000        0.630460         3    ;  uncertainty k = 0.193976
        30        29        35        66     9      180.000000        0.000896         4    ;  uncertainty k = 0.065597
        30        31        32        59     9        0.000000       -1.493975         1    ;  uncertainty k = 0.227370
        30        31        32        59     9      180.000000       -0.117398         2    ;  uncertainty k = 0.414520
        30        31        32        59     9        0.000000        0.637165         3    ;  uncertainty k = 0.126973
        30        31        32        59     9      180.000000        0.078742         4    ;  uncertainty k = 0.162739
        30        31        32        60     9        0.000000       -1.493975         1    ;  uncertainty k = 0.227370
        30        31        32        60     9      180.000000       -0.117398         2    ;  uncertainty k = 0.414520
        30        31        32        60     9        0.000000        0.637165         3    ;  uncertainty k = 0.126973
        30        31        32        60     9      180.000000        0.078742         4    ;  uncertainty k = 0.162739
        31        30        29        35     9        0.000000       -3.276913         1    ;  uncertainty k = 1.069148
        31        30        29        35     9      180.000000        1.694588         2    ;  uncertainty k = 0.548900
        31        30        29        35     9        0.000000        0.936272         3    ;  uncertainty k = 0.213477
        31        30        29        35     9      180.000000       -0.056898         4    ;  uncertainty k = 0.245705
        31        32        14        33     9        0.000000       -3.736853         1    ;  uncertainty k = 0.660671
        31        32        14        33     9      180.000000        0.661220         2    ;  uncertainty k = 0.821690
        31        32        14        33     9        0.000000        1.433334         3    ;  uncertainty k = 0.245069
        31        32        14        33     9      180.000000       -0.100720         4    ;  uncertainty k = 0.212557
        31        32        14        68     9        0.000000        2.273046         1    ;  uncertainty k = 1.228269
        31        32        14        68     9      180.000000       -0.682995         2    ;  uncertainty k = 0.882959
        31        32        14        68     9        0.000000        0.685668         3    ;  uncertainty k = 0.229393
        31        32        14        68     9      180.000000        0.074927         4    ;  uncertainty k = 0.171456
        32        14        29        35     9        0.000000       -2.953874         1    ;  uncertainty k = 1.260036
        32        14        29        35     9      180.000000        0.317536         2    ;  uncertainty k = 1.190646
        32        14        29        35     9        0.000000        1.515133         3    ;  uncertainty k = 0.338737
        32        14        29        35     9      180.000000       -0.190647         4    ;  uncertainty k = 0.333546
        32        14        33        34     9        0.000000       -3.736853         1    ;  uncertainty k = 0.660671
        32        14        33        34     9      180.000000        0.661220         2    ;  uncertainty k = 0.821690
        32        14        33        34     9        0.000000        1.433334         3    ;  uncertainty k = 0.245069
        32        14        33        34     9      180.000000       -0.100720         4    ;  uncertainty k = 0.212557
        32        14        33        61     9        0.000000       -0.011527         1    ;  uncertainty k = 0.387590
        32        14        33        61     9      180.000000       -0.481977         2    ;  uncertainty k = 0.437430
        32        14        33        61     9        0.000000        0.989332         3    ;  uncertainty k = 0.278060
        32        14        33        61     9      180.000000        0.029624         4    ;  uncertainty k = 0.073307
        32        14        33        62     9        0.000000       -0.011527         1    ;  uncertainty k = 0.387590
        32        14        33        62     9      180.000000       -0.481977         2    ;  uncertainty k = 0.437430
        32        14        33        62     9        0.000000        0.989332         3    ;  uncertainty k = 0.278060
        32        14        33        62     9      180.000000        0.029624         4    ;  uncertainty k = 0.073307
        32        31        30        56     9        0.000000       -1.695845         1    ;  uncertainty k = 0.532444
        32        31        30        56     9      180.000000        0.023978         2    ;  uncertainty k = 0.080420
        32        31        30        56     9        0.000000        0.827314         3    ;  uncertainty k = 0.074645
        32        31        30        56     9      180.000000        0.174382         4    ;  uncertainty k = 0.039124
        32        31        30        57     9        0.000000       -1.695845         1    ;  uncertainty k = 0.532444
        32        31        30        57     9      180.000000        0.023978         2    ;  uncertainty k = 0.080420
        32        31        30        57     9        0.000000        0.827314         3    ;  uncertainty k = 0.074645
        32        31        30        57     9      180.000000        0.174382         4    ;  uncertainty k = 0.039124
        33        14        29        35     9        0.000000       -2.953874         1    ;  uncertainty k = 1.260036
        33        14        29        35     9      180.000000        0.317536         2    ;  uncertainty k = 1.190646
        33        14        29        35     9        0.000000        1.515133         3    ;  uncertainty k = 0.338737
        33        14        29        35     9      180.000000       -0.190647         4    ;  uncertainty k = 0.333546
        33        14        32        59     9        0.000000       -0.011527         1    ;  uncertainty k = 0.387590
        33        14        32        59     9      180.000000       -0.481977         2    ;  uncertainty k = 0.437430
        33        14        32        59     9        0.000000        0.989332         3    ;  uncertainty k = 0.278060
        33        14        32        59     9      180.000000        0.029624         4    ;  uncertainty k = 0.073307
        33        14        32        60     9        0.000000       -0.011527         1    ;  uncertainty k = 0.387590
        33        14        32        60     9      180.000000       -0.481977         2    ;  uncertainty k = 0.437430
        33        14        32        60     9        0.000000        0.989332         3    ;  uncertainty k = 0.278060
        33        14        32        60     9      180.000000        0.029624         4    ;  uncertainty k = 0.073307
        33        34        35        65     9        0.000000       -1.695845         1    ;  uncertainty k = 0.532444
        33        34        35        65     9      180.000000        0.023978         2    ;  uncertainty k = 0.080420
        33        34        35        65     9        0.000000        0.827314         3    ;  uncertainty k = 0.074645
        33        34        35        65     9      180.000000        0.174382         4    ;  uncertainty k = 0.039124
        33        34        35        66     9        0.000000       -1.695845         1    ;  uncertainty k = 0.532444
        33        34        35        66     9      180.000000        0.023978         2    ;  uncertainty k = 0.080420
        33        34        35        66     9        0.000000        0.827314         3    ;  uncertainty k = 0.074645
        33        34        35        66     9      180.000000        0.174382         4    ;  uncertainty k = 0.039124
        34        33        14        68     9        0.000000        2.273046         1    ;  uncertainty k = 1.228269
        34        33        14        68     9      180.000000       -0.682995         2    ;  uncertainty k = 0.882959
        34        33        14        68     9        0.000000        0.685668         3    ;  uncertainty k = 0.229393
        34        33        14        68     9      180.000000        0.074927         4    ;  uncertainty k = 0.171456
        35        29        14        68     9        0.000000        1.782638         1    ;  uncertainty k = 1.524891
        35        29        14        68     9      180.000000        0.192781         2    ;  uncertainty k = 0.398730
        35        29        14        68     9        0.000000        0.494295         3    ;  uncertainty k = 0.359414
        35        29        14        68     9      180.000000       -0.125405         4    ;  uncertainty k = 0.202817
        35        29        17        43     9        0.000000       -1.307524         1    ;  uncertainty k = 0.494714
        35        29        17        43     9      180.000000        0.091835         2    ;  uncertainty k = 0.191243
        35        29        17        43     9        0.000000        0.337394         3    ;  uncertainty k = 0.133876
        35        29        17        43     9      180.000000       -0.168104         4    ;  uncertainty k = 0.052222
        35        29        17        44     9        0.000000       -1.307524         1    ;  uncertainty k = 0.494714
        35        29        17        44     9      180.000000        0.091835         2    ;  uncertainty k = 0.191243
        35        29        17        44     9        0.000000        0.337394         3    ;  uncertainty k = 0.133876
        35        29        17        44     9      180.000000       -0.168104         4    ;  uncertainty k = 0.052222
        35        29        30        56     9        0.000000       -0.716564         1    ;  uncertainty k = 0.309990
        35        29        30        56     9      180.000000       -0.082751         2    ;  uncertainty k = 0.243857
        35        29        30        56     9        0.000000        0.630460         3    ;  uncertainty k = 0.193976
        35        29        30        56     9      180.000000        0.000896         4    ;  uncertainty k = 0.065597
        35        29        30        57     9        0.000000       -0.716564         1    ;  uncertainty k = 0.309990
        35        29        30        57     9      180.000000       -0.082751         2    ;  uncertainty k = 0.243857
        35        29        30        57     9        0.000000        0.630460         3    ;  uncertainty k = 0.193976
        35        29        30        57     9      180.000000        0.000896         4    ;  uncertainty k = 0.065597
        35        34        33        61     9        0.000000       -1.493975         1    ;  uncertainty k = 0.227370
        35        34        33        61     9      180.000000       -0.117398         2    ;  uncertainty k = 0.414520
        35        34        33        61     9        0.000000        0.637165         3    ;  uncertainty k = 0.126973
        35        34        33        61     9      180.000000        0.078742         4    ;  uncertainty k = 0.162739
        35        34        33        62     9        0.000000       -1.493975         1    ;  uncertainty k = 0.227370
        35        34        33        62     9      180.000000       -0.117398         2    ;  uncertainty k = 0.414520
        35        34        33        62     9        0.000000        0.637165         3    ;  uncertainty k = 0.126973
        35        34        33        62     9      180.000000        0.078742         4    ;  uncertainty k = 0.162739
        36        28        27        55     9        0.000000       -0.196788         1    ;  uncertainty k = 0.400043
        36        28        27        55     9      180.000000        9.119818         2    ;  uncertainty k = 0.442973
        36        28        27        55     9        0.000000        0.782040         3    ;  uncertainty k = 0.213775
        36        28        27        55     9      180.000000        1.087595         4    ;  uncertainty k = 0.271369
        39        26        27        55     9        0.000000       -0.234675         1    ;  uncertainty k = 0.396212
        39        26        27        55     9      180.000000        8.865583         2    ;  uncertainty k = 0.396817
        39        26        27        55     9        0.000000        0.762380         3    ;  uncertainty k = 0.253164
        39        26        27        55     9      180.000000        0.982561         4    ;  uncertainty k = 0.224347
        42        12        19        47     9        0.000000       -1.423010         1    ;  uncertainty k = 0.616460
        42        12        19        47     9      180.000000        1.515703         2    ;  uncertainty k = 1.087822
        42        12        19        47     9        0.000000        0.256622         3    ;  uncertainty k = 0.208318
        42        12        19        47     9      180.000000       -0.095640         4    ;  uncertainty k = 0.130121
        42        12        20        48     9        0.000000       -1.423010         1    ;  uncertainty k = 0.616460
        42        12        20        48     9      180.000000        1.515703         2    ;  uncertainty k = 1.087822
        42        12        20        48     9        0.000000        0.256622         3    ;  uncertainty k = 0.208318
        42        12        20        48     9      180.000000       -0.095640         4    ;  uncertainty k = 0.130121
        45        18        19        47     9        0.000000       -0.439454         1    ;  uncertainty k = 0.906270
        45        18        19        47     9      180.000000        0.487195         2    ;  uncertainty k = 0.479541
        45        18        19        47     9        0.000000        0.253527         3    ;  uncertainty k = 0.175912
        45        18        19        47     9      180.000000       -0.139844         4    ;  uncertainty k = 0.167927
        46        18        19        47     9        0.000000       -0.439454         1    ;  uncertainty k = 0.906270
        46        18        19        47     9      180.000000        0.487195         2    ;  uncertainty k = 0.479541
        46        18        19        47     9        0.000000        0.253527         3    ;  uncertainty k = 0.175912
        46        18        19        47     9      180.000000       -0.139844         4    ;  uncertainty k = 0.167927
        47        19        12        67     9        0.000000       -1.423010         1    ;  uncertainty k = 0.616460
        47        19        12        67     9      180.000000        1.515703         2    ;  uncertainty k = 1.087822
        47        19        12        67     9        0.000000        0.256622         3    ;  uncertainty k = 0.208318
        47        19        12        67     9      180.000000       -0.095640         4    ;  uncertainty k = 0.130121
        47        19        23        53     9        0.000000        1.228961         1    ;  uncertainty k = 0.553312
        47        19        23        53     9      180.000000       -0.001863         2    ;  uncertainty k = 0.239275
        47        19        23        53     9        0.000000        0.353228         3    ;  uncertainty k = 0.286862
        47        19        23        53     9      180.000000        0.045306         4    ;  uncertainty k = 0.112735
        47        19        23        54     9        0.000000        1.228961         1    ;  uncertainty k = 0.553312
        47        19        23        54     9      180.000000       -0.001863         2    ;  uncertainty k = 0.239275
        47        19        23        54     9        0.000000        0.353228         3    ;  uncertainty k = 0.286862
        47        19        23        54     9      180.000000        0.045306         4    ;  uncertainty k = 0.112735
        48        20        12        67     9        0.000000       -1.423010         1    ;  uncertainty k = 0.616460
        48        20        12        67     9      180.000000        1.515703         2    ;  uncertainty k = 1.087822
        48        20        12        67     9        0.000000        0.256622         3    ;  uncertainty k = 0.208318
        48        20        12        67     9      180.000000       -0.095640         4    ;  uncertainty k = 0.130121
        48        20        21        49     9        0.000000       -0.439454         1    ;  uncertainty k = 0.906270
        48        20        21        49     9      180.000000        0.487195         2    ;  uncertainty k = 0.479541
        48        20        21        49     9        0.000000        0.253527         3    ;  uncertainty k = 0.175912
        48        20        21        49     9      180.000000       -0.139844         4    ;  uncertainty k = 0.167927
        48        20        21        50     9        0.000000       -0.439454         1    ;  uncertainty k = 0.906270
        48        20        21        50     9      180.000000        0.487195         2    ;  uncertainty k = 0.479541
        48        20        21        50     9        0.000000        0.253527         3    ;  uncertainty k = 0.175912
        48        20        21        50     9      180.000000       -0.139844         4    ;  uncertainty k = 0.167927
        48        20        22        51     9        0.000000        1.228961         1    ;  uncertainty k = 0.553312
        48        20        22        51     9      180.000000       -0.001863         2    ;  uncertainty k = 0.239275
        48        20        22        51     9        0.000000        0.353228         3    ;  uncertainty k = 0.286862
        48        20        22        51     9      180.000000        0.045306         4    ;  uncertainty k = 0.112735
        48        20        22        52     9        0.000000        1.228961         1    ;  uncertainty k = 0.553312
        48        20        22        52     9      180.000000       -0.001863         2    ;  uncertainty k = 0.239275
        48        20        22        52     9        0.000000        0.353228         3    ;  uncertainty k = 0.286862
        48        20        22        52     9      180.000000        0.045306         4    ;  uncertainty k = 0.112735
        51        22        23        53     9        0.000000        1.361375         1    ;  uncertainty k = 0.592307
        51        22        23        53     9      180.000000       -0.075431         2    ;  uncertainty k = 0.471152
        51        22        23        53     9        0.000000        1.070581         3    ;  uncertainty k = 0.228523
        51        22        23        53     9      180.000000        0.077192         4    ;  uncertainty k = 0.031932
        51        22        23        54     9        0.000000        1.361375         1    ;  uncertainty k = 0.592307
        51        22        23        54     9      180.000000       -0.075431         2    ;  uncertainty k = 0.471152
        51        22        23        54     9        0.000000        1.070581         3    ;  uncertainty k = 0.228523
        51        22        23        54     9      180.000000        0.077192         4    ;  uncertainty k = 0.031932
        52        22        23        53     9        0.000000        1.361375         1    ;  uncertainty k = 0.592307
        52        22        23        53     9      180.000000       -0.075431         2    ;  uncertainty k = 0.471152
        52        22        23        53     9        0.000000        1.070581         3    ;  uncertainty k = 0.228523
        52        22        23        53     9      180.000000        0.077192         4    ;  uncertainty k = 0.031932
        52        22        23        54     9        0.000000        1.361375         1    ;  uncertainty k = 0.592307
        52        22        23        54     9      180.000000       -0.075431         2    ;  uncertainty k = 0.471152
        52        22        23        54     9        0.000000        1.070581         3    ;  uncertainty k = 0.228523
        52        22        23        54     9      180.000000        0.077192         4    ;  uncertainty k = 0.031932
        56        30        31        58     9        0.000000        1.247768         1    ;  uncertainty k = 0.385982
        56        30        31        58     9      180.000000       -0.044563         2    ;  uncertainty k = 0.119187
        56        30        31        58     9        0.000000        0.747837         3    ;  uncertainty k = 0.079219
        56        30        31        58     9      180.000000        0.076817         4    ;  uncertainty k = 0.056837
        56        30        31        69     9        0.000000        1.247768         1    ;  uncertainty k = 0.385982
        56        30        31        69     9      180.000000       -0.044563         2    ;  uncertainty k = 0.119187
        56        30        31        69     9        0.000000        0.747837         3    ;  uncertainty k = 0.079219
        56        30        31        69     9      180.000000        0.076817         4    ;  uncertainty k = 0.056837
        57        30        31        58     9        0.000000        1.247768         1    ;  uncertainty k = 0.385982
        57        30        31        58     9      180.000000       -0.044563         2    ;  uncertainty k = 0.119187
        57        30        31        58     9        0.000000        0.747837         3    ;  uncertainty k = 0.079219
        57        30        31        58     9      180.000000        0.076817         4    ;  uncertainty k = 0.056837
        57        30        31        69     9        0.000000        1.247768         1    ;  uncertainty k = 0.385982
        57        30        31        69     9      180.000000       -0.044563         2    ;  uncertainty k = 0.119187
        57        30        31        69     9        0.000000        0.747837         3    ;  uncertainty k = 0.079219
        57        30        31        69     9      180.000000        0.076817         4    ;  uncertainty k = 0.056837
        58        31        32        59     9        0.000000        0.690124         1    ;  uncertainty k = 0.287651
        58        31        32        59     9      180.000000       -0.198730         2    ;  uncertainty k = 0.335081
        58        31        32        59     9        0.000000        0.644259         3    ;  uncertainty k = 0.146655
        58        31        32        59     9      180.000000        0.083924         4    ;  uncertainty k = 0.079661
        58        31        32        60     9        0.000000        0.690124         1    ;  uncertainty k = 0.287651
        58        31        32        60     9      180.000000       -0.198730         2    ;  uncertainty k = 0.335081
        58        31        32        60     9        0.000000        0.644259         3    ;  uncertainty k = 0.146655
        58        31        32        60     9      180.000000        0.083924         4    ;  uncertainty k = 0.079661
        59        32        14        68     9        0.000000        0.458769         1    ;  uncertainty k = 0.437051
        59        32        14        68     9      180.000000       -0.578982         2    ;  uncertainty k = 0.164759
        59        32        14        68     9        0.000000        0.460832         3    ;  uncertainty k = 0.136295
        59        32        14        68     9      180.000000        0.131603         4    ;  uncertainty k = 0.061682
        59        32        31        69     9        0.000000        0.690124         1    ;  uncertainty k = 0.287651
        59        32        31        69     9      180.000000       -0.198730         2    ;  uncertainty k = 0.335081
        59        32        31        69     9        0.000000        0.644259         3    ;  uncertainty k = 0.146655
        59        32        31        69     9      180.000000        0.083924         4    ;  uncertainty k = 0.079661
        60        32        14        68     9        0.000000        0.458769         1    ;  uncertainty k = 0.437051
        60        32        14        68     9      180.000000       -0.578982         2    ;  uncertainty k = 0.164759
        60        32        14        68     9        0.000000        0.460832         3    ;  uncertainty k = 0.136295
        60        32        14        68     9      180.000000        0.131603         4    ;  uncertainty k = 0.061682
        60        32        31        69     9        0.000000        0.690124         1    ;  uncertainty k = 0.287651
        60        32        31        69     9      180.000000       -0.198730         2    ;  uncertainty k = 0.335081
        60        32        31        69     9        0.000000        0.644259         3    ;  uncertainty k = 0.146655
        60        32        31        69     9      180.000000        0.083924         4    ;  uncertainty k = 0.079661
        61        33        14        68     9        0.000000        0.458769         1    ;  uncertainty k = 0.437051
        61        33        14        68     9      180.000000       -0.578982         2    ;  uncertainty k = 0.164759
        61        33        14        68     9        0.000000        0.460832         3    ;  uncertainty k = 0.136295
        61        33        14        68     9      180.000000        0.131603         4    ;  uncertainty k = 0.061682
        61        33        34        63     9        0.000000        0.690124         1    ;  uncertainty k = 0.287651
        61        33        34        63     9      180.000000       -0.198730         2    ;  uncertainty k = 0.335081
        61        33        34        63     9        0.000000        0.644259         3    ;  uncertainty k = 0.146655
        61        33        34        63     9      180.000000        0.083924         4    ;  uncertainty k = 0.079661
        61        33        34        64     9        0.000000        0.690124         1    ;  uncertainty k = 0.287651
        61        33        34        64     9      180.000000       -0.198730         2    ;  uncertainty k = 0.335081
        61        33        34        64     9        0.000000        0.644259         3    ;  uncertainty k = 0.146655
        61        33        34        64     9      180.000000        0.083924         4    ;  uncertainty k = 0.079661
        62        33        14        68     9        0.000000        0.458769         1    ;  uncertainty k = 0.437051
        62        33        14        68     9      180.000000       -0.578982         2    ;  uncertainty k = 0.164759
        62        33        14        68     9        0.000000        0.460832         3    ;  uncertainty k = 0.136295
        62        33        14        68     9      180.000000        0.131603         4    ;  uncertainty k = 0.061682
        62        33        34        63     9        0.000000        0.690124         1    ;  uncertainty k = 0.287651
        62        33        34        63     9      180.000000       -0.198730         2    ;  uncertainty k = 0.335081
        62        33        34        63     9        0.000000        0.644259         3    ;  uncertainty k = 0.146655
        62        33        34        63     9      180.000000        0.083924         4    ;  uncertainty k = 0.079661
        62        33        34        64     9        0.000000        0.690124         1    ;  uncertainty k = 0.287651
        62        33        34        64     9      180.000000       -0.198730         2    ;  uncertainty k = 0.335081
        62        33        34        64     9        0.000000        0.644259         3    ;  uncertainty k = 0.146655
        62        33        34        64     9      180.000000        0.083924         4    ;  uncertainty k = 0.079661
        63        34        35        65     9        0.000000        1.247768         1    ;  uncertainty k = 0.385982
        63        34        35        65     9      180.000000       -0.044563         2    ;  uncertainty k = 0.119187
        63        34        35        65     9        0.000000        0.747837         3    ;  uncertainty k = 0.079219
        63        34        35        65     9      180.000000        0.076817         4    ;  uncertainty k = 0.056837
        63        34        35        66     9        0.000000        1.247768         1    ;  uncertainty k = 0.385982
        63        34        35        66     9      180.000000       -0.044563         2    ;  uncertainty k = 0.119187
        63        34        35        66     9        0.000000        0.747837         3    ;  uncertainty k = 0.079219
        63        34        35        66     9      180.000000        0.076817         4    ;  uncertainty k = 0.056837
        64        34        35        65     9        0.000000        1.247768         1    ;  uncertainty k = 0.385982
        64        34        35        65     9      180.000000       -0.044563         2    ;  uncertainty k = 0.119187
        64        34        35        65     9        0.000000        0.747837         3    ;  uncertainty k = 0.079219
        64        34        35        65     9      180.000000        0.076817         4    ;  uncertainty k = 0.056837
        64        34        35        66     9        0.000000        1.247768         1    ;  uncertainty k = 0.385982
        64        34        35        66     9      180.000000       -0.044563         2    ;  uncertainty k = 0.119187
        64        34        35        66     9        0.000000        0.747837         3    ;  uncertainty k = 0.079219
        64        34        35        66     9      180.000000        0.076817         4    ;  uncertainty k = 0.056837

[ dihedrals ] ; impropers
;       ai        aj        ak        al funct           phase               k        pn
         1         4         9        11     4      180.000000        6.147729         2    ;  uncertainty k = 0.244075
         1         9        11         4     4      180.000000        6.147729         2    ;  uncertainty k = 0.244075
         1        11         4         9     4      180.000000        6.147729         2    ;  uncertainty k = 0.244075
         4         1         2        15     4      180.000000       18.967116         2    ;  uncertainty k = 0.141500
         4         2        15         1     4      180.000000       18.967116         2    ;  uncertainty k = 0.141500
         4        15         1         2     4      180.000000       18.967116         2    ;  uncertainty k = 0.141500
         7         2         3         5     4      180.000000       41.196877         2    ;  uncertainty k = 0.078549
         7         3         5         2     4      180.000000       41.196877         2    ;  uncertainty k = 0.078549
         7         5         2         3     4      180.000000       41.196877         2    ;  uncertainty k = 0.078549
         9         1         5        10     4      180.000000       34.127780         2    ;  uncertainty k = 0.152435
         9         5        10         1     4      180.000000       34.127780         2    ;  uncertainty k = 0.152435
         9        10         1         5     4      180.000000       34.127780         2    ;  uncertainty k = 0.152435
        11         1         8        41     4      180.000000       14.623940         2    ;  uncertainty k = 0.119092
        11         8        41         1     4      180.000000       14.623940         2    ;  uncertainty k = 0.119092
        11        41         1         8     4      180.000000       14.623940         2    ;  uncertainty k = 0.119092
        13         8        15        16     4      180.000000       22.595378         2    ;  uncertainty k = 0.103851
        13        15        16         8     4      180.000000       22.595378         2    ;  uncertainty k = 0.103851
        13        16         8        15     4      180.000000       22.595378         2    ;  uncertainty k = 0.103851
        15         4        13        37     4      180.000000       12.832794         2    ;  uncertainty k = 0.160061
        15        13        37         4     4      180.000000       12.832794         2    ;  uncertainty k = 0.160061
        15        37         4        13     4      180.000000       12.832794         2    ;  uncertainty k = 0.160061
        16        13        24        28     4      180.000000        8.676190         2    ;  uncertainty k = 0.264406
        16        24        28        13     4      180.000000        8.676190         2    ;  uncertainty k = 0.264406
        16        28        13        24     4      180.000000        8.676190         2    ;  uncertainty k = 0.264406
        24        16        25        38     4      180.000000       11.637289         2    ;  uncertainty k = 0.228203
        24        25        38        16     4      180.000000       11.637289         2    ;  uncertainty k = 0.228203
        24        38        16        25     4      180.000000       11.637289         2    ;  uncertainty k = 0.228203
        25         6        24        26     4      180.000000       10.331903         2    ;  uncertainty k = 0.207829
        25        24        26         6     4      180.000000       10.331903         2    ;  uncertainty k = 0.207829
        25        26         6        24     4      180.000000       10.331903         2    ;  uncertainty k = 0.207829
        26        25        27        39     4      180.000000       11.997648         2    ;  uncertainty k = 0.127927
        26        27        39        25     4      180.000000       11.997648         2    ;  uncertainty k = 0.127927
        26        39        25        27     4      180.000000       11.997648         2    ;  uncertainty k = 0.127927
        27        26        28        55     4      180.000000        0.854188         2    ;  uncertainty k = 0.813680
        27        28        55        26     4      180.000000        0.854188         2    ;  uncertainty k = 0.813680
        27        55        26        28     4      180.000000        0.854188         2    ;  uncertainty k = 0.813680
        28        16        27        36     4      180.000000       16.425759         2    ;  uncertainty k = 0.093792
        28        27        36        16     4      180.000000       16.425759         2    ;  uncertainty k = 0.093792
        28        36        16        27     4      180.000000       16.425759         2    ;  uncertainty k = 0.093792

[ pairs ]
;       ai        aj funct
         1         7     1
         1        13     1
         1        18     1
         1        21     1
         1        37     1
         2         9     1
         2        11     1
         2        13     1
         2        17     1
         2        37     1
         3         4     1
         3         9     1
         3        14     1
         3        30     1
         3        35     1
         4         5     1
         4         8     1
         4        10     1
         4        16     1
         4        41     1
         5        11     1
         5        17     1
         5        18     1
         5        21     1
         6        16     1
         6        27     1
         6        38     1
         6        39     1
         7        10     1
         7        15     1
         7        29     1
         7        43     1
         7        44     1
         8         9     1
         8        24     1
         8        28     1
         8        37     1
         9        15     1
         9        19     1
         9        20     1
         9        41     1
         9        45     1
         9        46     1
         9        49     1
         9        50     1
        10        11     1
        10        12     1
        10        22     1
        10        23     1
        10        47     1
        10        48     1
        11        15     1
        11        16     1
        12        45     1
        12        46     1
        12        49     1
        12        50     1
        12        51     1
        12        52     1
        12        53     1
        12        54     1
        13        25     1
        13        27     1
        13        36     1
        13        38     1
        13        41     1
        14        43     1
        14        44     1
        14        56     1
        14        57     1
        14        58     1
        14        63     1
        14        64     1
        14        65     1
        14        66     1
        14        69     1
        15        24     1
        15        28     1
        16        26     1
        16        37     1
        16        55     1
        17        31     1
        17        32     1
        17        33     1
        17        34     1
        17        56     1
        17        57     1
        17        65     1
        17        66     1
        17        68     1
        18        20     1
        18        22     1
        18        42     1
        18        49     1
        18        50     1
        18        53     1
        18        54     1
        18        67     1
        19        21     1
        19        48     1
        19        51     1
        19        52     1
        20        47     1
        20        53     1
        20        54     1
        21        23     1
        21        42     1
        21        45     1
        21        46     1
        21        51     1
        21        52     1
        21        67     1
        22        42     1
        22        47     1
        22        49     1
        22        50     1
        22        67     1
        23        42     1
        23        45     1
        23        46     1
        23        48     1
        23        67     1
        24        27     1
        24        36     1
        24        39     1
        24        40     1
        25        28     1
        25        55     1
        26        36     1
        26        38     1
        26        40     1
        28        38     1
        28        39     1
        29        58     1
        29        59     1
        29        60     1
        29        61     1
        29        62     1
        29        63     1
        29        64     1
        29        69     1
        30        33     1
        30        34     1
        30        43     1
        30        44     1
        30        59     1
        30        60     1
        30        65     1
        30        66     1
        30        68     1
        31        33     1
        31        35     1
        31        68     1
        32        34     1
        32        35     1
        32        56     1
        32        57     1
        32        61     1
        32        62     1
        33        59     1
        33        60     1
        33        65     1
        33        66     1
        34        68     1
        35        43     1
        35        44     1
        35        56     1
        35        57     1
        35        61     1
        35        62     1
        35        68     1
        36        55     1
        39        55     1
        42        47     1
        42        48     1
        45        47     1
        46        47     1
        47        53     1
        47        54     1
        47        67     1
        48        49     1
        48        50     1
        48        51     1
        48        52     1
        48        67     1
        51        53     1
        51        54     1
        52        53     1
        52        54     1
        56        58     1
        56        69     1
        57        58     1
        57        69     1
        58        59     1
        58        60     1
        59        68     1
        59        69     1
        60        68     1
        60        69     1
        61        63     1
        61        64     1
        61        68     1
        62        63     1
        62        64     1
        62        68     1
        63        65     1
        63        66     1
        64        65     1
        64        66     1
