; ITP file created by ByteFF-joint-25, 2026-01-07 07:35:05.085090

[ atomtypes ]
;name           bonded.type        at.num        mass        charge   ptype           sigma         epsilon
 c0bf                                   6      0.0000       0.00000       A     3.31609e-01     4.13754e-01    ;  uncertainty sigma = 0.000037, epsilon = 0.001385
 n1bf                                   7      0.0000       0.00000       A     3.38379e-01     3.93387e-01    ;  uncertainty sigma = 0.000023, epsilon = 0.000836
 o2bf                                   8      0.0000       0.00000       A     3.15717e-01     3.04039e-01    ;  uncertainty sigma = 0.000030, epsilon = 0.003724
 c3bf                                   6      0.0000       0.00000       A     3.31558e-01     4.13054e-01    ;  uncertainty sigma = 0.000015, epsilon = 0.001911
 n4bf                                   7      0.0000       0.00000       A     3.38414e-01     3.93806e-01    ;  uncertainty sigma = 0.000029, epsilon = 0.000903
 o5bf                                   8      0.0000       0.00000       A     3.24292e-01     3.88871e-01    ;  uncertainty sigma = 0.000020, epsilon = 0.000527
 c6bf                                   6      0.0000       0.00000       A     3.31540e-01     4.14420e-01    ;  uncertainty sigma = 0.000020, epsilon = 0.000938
 n7bf                                   7      0.0000       0.00000       A     3.38420e-01     3.93578e-01    ;  uncertainty sigma = 0.000016, epsilon = 0.000873
 c8bf                                   6      0.0000       0.00000       A     3.31572e-01     4.13781e-01    ;  uncertainty sigma = 0.000022, epsilon = 0.001282
 n9bf                                   7      0.0000       0.00000       A     3.19092e-01     8.99502e-01    ;  uncertainty sigma = 0.000028, epsilon = 0.008757
 c10bf                                  6      0.0000       0.00000       A     3.31514e-01     4.12984e-01    ;  uncertainty sigma = 0.000024, epsilon = 0.001071
 n11bf                                  7      0.0000       0.00000       A     2.67683e-01     7.09588e+00    ;  uncertainty sigma = 0.000108, epsilon = 0.014793
 c12bf                                  6      0.0000       0.00000       A     3.31565e-01     4.13229e-01    ;  uncertainty sigma = 0.000020, epsilon = 0.000837
 n13bf                                  7      0.0000       0.00000       A     2.58910e-01     1.06608e+01    ;  uncertainty sigma = 0.000158, epsilon = 0.005288
 c14bf                                  6      0.0000       0.00000       A     3.31553e-01     4.12771e-01    ;  uncertainty sigma = 0.000016, epsilon = 0.000462
 c15bf                                  6      0.0000       0.00000       A     3.31381e-01     4.12541e-01    ;  uncertainty sigma = 0.000050, epsilon = 0.000951
 c16bf                                  6      0.0000       0.00000       A     3.39606e-01     4.50330e-01    ;  uncertainty sigma = 0.000116, epsilon = 0.001780
 c17bf                                  6      0.0000       0.00000       A     3.39764e-01     4.51773e-01    ;  uncertainty sigma = 0.000031, epsilon = 0.001688
 c18bf                                  6      0.0000       0.00000       A     3.39827e-01     4.49600e-01    ;  uncertainty sigma = 0.000034, epsilon = 0.001832
 c19bf                                  6      0.0000       0.00000       A     3.39827e-01     4.49600e-01    ;  uncertainty sigma = 0.000034, epsilon = 0.001832
 c20bf                                  6      0.0000       0.00000       A     3.39764e-01     4.51773e-01    ;  uncertainty sigma = 0.000031, epsilon = 0.001688
 c21bf                                  6      0.0000       0.00000       A     3.39736e-01     4.50291e-01    ;  uncertainty sigma = 0.000017, epsilon = 0.001100
 c22bf                                  6      0.0000       0.00000       A     3.39736e-01     4.50291e-01    ;  uncertainty sigma = 0.000017, epsilon = 0.001100
 c23bf                                  6      0.0000       0.00000       A     3.31488e-01     4.12763e-01    ;  uncertainty sigma = 0.000019, epsilon = 0.000718
 c24bf                                  6      0.0000       0.00000       A     3.31530e-01     4.12915e-01    ;  uncertainty sigma = 0.000008, epsilon = 0.000618
 c25bf                                  6      0.0000       0.00000       A     3.31533e-01     4.13545e-01    ;  uncertainty sigma = 0.000011, epsilon = 0.000555
 c26bf                                  6      0.0000       0.00000       A     3.31475e-01     4.13336e-01    ;  uncertainty sigma = 0.000007, epsilon = 0.001373
 c27bf                                  6      0.0000       0.00000       A     3.31517e-01     4.12963e-01    ;  uncertainty sigma = 0.000030, epsilon = 0.002064
 c28bf                                  6      0.0000       0.00000       A     3.31527e-01     4.13563e-01    ;  uncertainty sigma = 0.000008, epsilon = 0.000490
 c29bf                                  6      0.0000       0.00000       A     3.31523e-01     4.13170e-01    ;  uncertainty sigma = 0.000005, epsilon = 0.000471
 c30bf                                  6      0.0000       0.00000       A     3.31526e-01     4.13155e-01    ;  uncertainty sigma = 0.000021, epsilon = 0.000959
 c31bf                                  6      0.0000       0.00000       A     3.31447e-01     4.11216e-01    ;  uncertainty sigma = 0.000048, epsilon = 0.001165
 c32bf                                  6      0.0000       0.00000       A     3.39766e-01     4.50215e-01    ;  uncertainty sigma = 0.000031, epsilon = 0.002322
 c33bf                                  6      0.0000       0.00000       A     3.39798e-01     4.50987e-01    ;  uncertainty sigma = 0.000021, epsilon = 0.000717
 c34bf                                  6      0.0000       0.00000       A     3.39806e-01     4.50159e-01    ;  uncertainty sigma = 0.000037, epsilon = 0.001448
 c35bf                                  6      0.0000       0.00000       A     3.39826e-01     4.50989e-01    ;  uncertainty sigma = 0.000014, epsilon = 0.001563
 c36bf                                  6      0.0000       0.00000       A     3.39760e-01     4.51588e-01    ;  uncertainty sigma = 0.000017, epsilon = 0.001104
 c37bf                                  6      0.0000       0.00000       A     3.39752e-01     4.50838e-01    ;  uncertainty sigma = 0.000045, epsilon = 0.001063
 c38bf                                  6      0.0000       0.00000       A     3.39760e-01     4.50289e-01    ;  uncertainty sigma = 0.000031, epsilon = 0.000709
 c39bf                                  6      0.0000       0.00000       A     3.47975e-01     6.66772e-01    ;  uncertainty sigma = 0.000062, epsilon = 0.004531
 c40bf                                  6      0.0000       0.00000       A     3.47840e-01     6.66142e-01    ;  uncertainty sigma = 0.000027, epsilon = 0.004687
 f41bf                                  9      0.0000       0.00000       A     3.03347e-01     3.48613e-01    ;  uncertainty sigma = 0.000031, epsilon = 0.001874
 f42bf                                  9      0.0000       0.00000       A     3.03453e-01     3.48209e-01    ;  uncertainty sigma = 0.000041, epsilon = 0.002505
 f43bf                                  9      0.0000       0.00000       A     3.03422e-01     3.48211e-01    ;  uncertainty sigma = 0.000017, epsilon = 0.001140
 h44bf                                  1      0.0000       0.00000       A     5.38188e-02     1.95645e-02    ;  uncertainty sigma = 0.000085, epsilon = 0.001108
 h45bf                                  1      0.0000       0.00000       A     2.53623e-01     6.70308e-02    ;  uncertainty sigma = 0.000068, epsilon = 0.000562
 h46bf                                  1      0.0000       0.00000       A     1.10717e-01     3.90827e-02    ;  uncertainty sigma = 0.000124, epsilon = 0.002380
 h47bf                                  1      0.0000       0.00000       A     2.42234e-01     8.69301e-02    ;  uncertainty sigma = 0.000073, epsilon = 0.001078
 h48bf                                  1      0.0000       0.00000       A     2.42234e-01     8.69301e-02    ;  uncertainty sigma = 0.000073, epsilon = 0.001078
 h49bf                                  1      0.0000       0.00000       A     2.42256e-01     8.68712e-02    ;  uncertainty sigma = 0.000054, epsilon = 0.000742
 h50bf                                  1      0.0000       0.00000       A     2.42256e-01     8.68712e-02    ;  uncertainty sigma = 0.000054, epsilon = 0.000742
 h51bf                                  1      0.0000       0.00000       A     1.88892e-01     8.79018e-02    ;  uncertainty sigma = 0.000675, epsilon = 0.002116
 h52bf                                  1      0.0000       0.00000       A     1.88892e-01     8.79018e-02    ;  uncertainty sigma = 0.000675, epsilon = 0.002116
 h53bf                                  1      0.0000       0.00000       A     2.42256e-01     8.68712e-02    ;  uncertainty sigma = 0.000054, epsilon = 0.000742
 h54bf                                  1      0.0000       0.00000       A     2.42256e-01     8.68712e-02    ;  uncertainty sigma = 0.000054, epsilon = 0.000742
 h55bf                                  1      0.0000       0.00000       A     2.60051e-01     8.66631e-02    ;  uncertainty sigma = 0.000008, epsilon = 0.001058
 h56bf                                  1      0.0000       0.00000       A     2.60051e-01     8.66631e-02    ;  uncertainty sigma = 0.000008, epsilon = 0.001058
 h57bf                                  1      0.0000       0.00000       A     2.60051e-01     8.66631e-02    ;  uncertainty sigma = 0.000008, epsilon = 0.001058
 h58bf                                  1      0.0000       0.00000       A     2.60051e-01     8.66631e-02    ;  uncertainty sigma = 0.000008, epsilon = 0.001058
 h59bf                                  1      0.0000       0.00000       A     2.62574e-01     6.71319e-02    ;  uncertainty sigma = 0.000020, epsilon = 0.000430
 h60bf                                  1      0.0000       0.00000       A     2.62592e-01     6.71092e-02    ;  uncertainty sigma = 0.000019, epsilon = 0.000467
 h61bf                                  1      0.0000       0.00000       A     2.62561e-01     6.70201e-02    ;  uncertainty sigma = 0.000011, epsilon = 0.000422
 h62bf                                  1      0.0000       0.00000       A     2.62563e-01     6.70198e-02    ;  uncertainty sigma = 0.000009, epsilon = 0.000530
 h63bf                                  1      0.0000       0.00000       A     2.59981e-01     8.69645e-02    ;  uncertainty sigma = 0.000021, epsilon = 0.000707
 h64bf                                  1      0.0000       0.00000       A     2.59981e-01     8.69645e-02    ;  uncertainty sigma = 0.000021, epsilon = 0.000707
 h65bf                                  1      0.0000       0.00000       A     2.42224e-01     8.64288e-02    ;  uncertainty sigma = 0.000076, epsilon = 0.001445
 h66bf                                  1      0.0000       0.00000       A     1.88740e-01     8.59742e-02    ;  uncertainty sigma = 0.000146, epsilon = 0.001318
 h67bf                                  1      0.0000       0.00000       A     1.88740e-01     8.59742e-02    ;  uncertainty sigma = 0.000146, epsilon = 0.001318
 h68bf                                  1      0.0000       0.00000       A     1.88743e-01     8.53836e-02    ;  uncertainty sigma = 0.000048, epsilon = 0.000360
 h69bf                                  1      0.0000       0.00000       A     1.88743e-01     8.53836e-02    ;  uncertainty sigma = 0.000048, epsilon = 0.000360
 h70bf                                  1      0.0000       0.00000       A     2.59996e-01     8.64834e-02    ;  uncertainty sigma = 0.000020, epsilon = 0.000411
 h71bf                                  1      0.0000       0.00000       A     2.59996e-01     8.64834e-02    ;  uncertainty sigma = 0.000020, epsilon = 0.000411
 h72bf                                  1      0.0000       0.00000       A     2.60017e-01     8.67763e-02    ;  uncertainty sigma = 0.000029, epsilon = 0.000562
 h73bf                                  1      0.0000       0.00000       A     2.60017e-01     8.67763e-02    ;  uncertainty sigma = 0.000029, epsilon = 0.000562
 h74bf                                  1      0.0000       0.00000       A     2.62587e-01     6.75758e-02    ;  uncertainty sigma = 0.000065, epsilon = 0.001882
 h75bf                                  1      0.0000       0.00000       A     1.10718e-01     3.90827e-02    ;  uncertainty sigma = 0.000124, epsilon = 0.002380
 h76bf                                  1      0.0000       0.00000       A     1.10684e-01     4.10176e-02    ;  uncertainty sigma = 0.000227, epsilon = 0.004708

[ moleculetype ]
;name             nrexcl
 MOL                   3

[ atoms ]
;       nr            type      resi   res      atom      cgnr      charge          mass ; qtot
         1            c0bf         1   UNL        c0         1    -0.39996       12.0110 ; qtot   -0.400
         2            n1bf         1   UNL        n1         2    -0.74679       14.0070 ; qtot   -1.147
         3            o2bf         1   UNL        o2         3    -0.41359       15.9990 ; qtot   -1.560
         4            c3bf         1   UNL        c3         4     0.46726       12.0110 ; qtot   -1.093
         5            n4bf         1   UNL        n4         5    -0.82134       14.0070 ; qtot   -1.914
         6            o5bf         1   UNL        o5         6    -0.49477       15.9990 ; qtot   -2.409
         7            c6bf         1   UNL        c6         7     0.93489       12.0110 ; qtot   -1.474
         8            n7bf         1   UNL        n7         8    -0.64683       14.0070 ; qtot   -2.121
         9            c8bf         1   UNL        c8         9     0.73686       12.0110 ; qtot   -1.384
        10            n9bf         1   UNL        n9        10    -0.77286       14.0070 ; qtot   -2.157
        11           c10bf         1   UNL       c10        11     0.45987       12.0110 ; qtot   -1.697
        12           n11bf         1   UNL       n11        12    -0.80074       14.0070 ; qtot   -2.498
        13           c12bf         1   UNL       c12        13     0.44180       12.0110 ; qtot   -2.056
        14           n13bf         1   UNL       n13        14    -0.73400       14.0070 ; qtot   -2.790
        15           c14bf         1   UNL       c14        15    -0.03289       12.0110 ; qtot   -2.823
        16           c15bf         1   UNL       c15        16    -0.08413       12.0110 ; qtot   -2.907
        17           c16bf         1   UNL       c16        17     0.14867       12.0110 ; qtot   -2.759
        18           c17bf         1   UNL       c17        18     0.19300       12.0110 ; qtot   -2.566
        19           c18bf         1   UNL       c18        19     0.14438       12.0110 ; qtot   -2.421
        20           c19bf         1   UNL       c19        20     0.14438       12.0110 ; qtot   -2.277
        21           c20bf         1   UNL       c20        21     0.19300       12.0110 ; qtot   -2.084
        22           c21bf         1   UNL       c21        22    -0.09656       12.0110 ; qtot   -2.180
        23           c22bf         1   UNL       c22        23    -0.09656       12.0110 ; qtot   -2.277
        24           c23bf         1   UNL       c23        24    -0.13867       12.0110 ; qtot   -2.416
        25           c24bf         1   UNL       c24        25     0.12406       12.0110 ; qtot   -2.292
        26           c25bf         1   UNL       c25        26    -0.17851       12.0110 ; qtot   -2.470
        27           c26bf         1   UNL       c26        27    -0.01619       12.0110 ; qtot   -2.486
        28           c27bf         1   UNL       c27        28     0.02296       12.0110 ; qtot   -2.463
        29           c28bf         1   UNL       c28        29    -0.08567       12.0110 ; qtot   -2.549
        30           c29bf         1   UNL       c29        30    -0.16229       12.0110 ; qtot   -2.711
        31           c30bf         1   UNL       c30        31     0.14575       12.0110 ; qtot   -2.565
        32           c31bf         1   UNL       c31        32     0.01889       12.0110 ; qtot   -2.547
        33           c32bf         1   UNL       c32        33     0.17096       12.0110 ; qtot   -2.376
        34           c33bf         1   UNL       c33        34    -0.12387       12.0110 ; qtot   -2.499
        35           c34bf         1   UNL       c34        35     0.16356       12.0110 ; qtot   -2.336
        36           c35bf         1   UNL       c35        36     0.11235       12.0110 ; qtot   -2.224
        37           c36bf         1   UNL       c36        37     0.14334       12.0110 ; qtot   -2.080
        38           c37bf         1   UNL       c37        38    -0.09536       12.0110 ; qtot   -2.176
        39           c38bf         1   UNL       c38        39    -0.09273       12.0110 ; qtot   -2.268
        40           c39bf         1   UNL       c39        40    -0.11960       12.0110 ; qtot   -2.388
        41           c40bf         1   UNL       c40        41    -0.12883       12.0110 ; qtot   -2.517
        42           f41bf         1   UNL       f41        42    -0.10872       18.9980 ; qtot   -2.625
        43           f42bf         1   UNL       f42        43    -0.22526       18.9980 ; qtot   -2.851
        44           f43bf         1   UNL       f43        44    -0.13546       18.9980 ; qtot   -2.986
        45           h44bf         1   UNL       h44        45     0.42675        1.0080 ; qtot   -2.559
        46           h45bf         1   UNL       h45        46     0.03476        1.0080 ; qtot   -2.525
        47           h46bf         1   UNL       h46        47     0.46548        1.0080 ; qtot   -2.059
        48           h47bf         1   UNL       h47        48     0.08997        1.0080 ; qtot   -1.969
        49           h48bf         1   UNL       h48        49     0.08997        1.0080 ; qtot   -1.879
        50           h49bf         1   UNL       h49        50     0.09669        1.0080 ; qtot   -1.783
        51           h50bf         1   UNL       h50        51     0.09669        1.0080 ; qtot   -1.686
        52           h51bf         1   UNL       h51        52     0.12687        1.0080 ; qtot   -1.559
        53           h52bf         1   UNL       h52        53     0.12687        1.0080 ; qtot   -1.432
        54           h53bf         1   UNL       h53        54     0.09669        1.0080 ; qtot   -1.335
        55           h54bf         1   UNL       h54        55     0.09669        1.0080 ; qtot   -1.239
        56           h55bf         1   UNL       h55        56     0.09820        1.0080 ; qtot   -1.141
        57           h56bf         1   UNL       h56        57     0.09820        1.0080 ; qtot   -1.042
        58           h57bf         1   UNL       h57        58     0.09820        1.0080 ; qtot   -0.944
        59           h58bf         1   UNL       h58        59     0.09820        1.0080 ; qtot   -0.846
        60           h59bf         1   UNL       h59        60     0.15059        1.0080 ; qtot   -0.695
        61           h60bf         1   UNL       h60        61     0.14082        1.0080 ; qtot   -0.555
        62           h61bf         1   UNL       h61        62     0.13666        1.0080 ; qtot   -0.418
        63           h62bf         1   UNL       h62        63     0.15581        1.0080 ; qtot   -0.262
        64           h63bf         1   UNL       h63        64     0.11159        1.0080 ; qtot   -0.151
        65           h64bf         1   UNL       h64        65     0.11159        1.0080 ; qtot   -0.039
        66           h65bf         1   UNL       h65        66     0.11302        1.0080 ; qtot    0.074
        67           h66bf         1   UNL       h66        67     0.12148        1.0080 ; qtot    0.196
        68           h67bf         1   UNL       h67        68     0.12148        1.0080 ; qtot    0.317
        69           h68bf         1   UNL       h68        69     0.10586        1.0080 ; qtot    0.423
        70           h69bf         1   UNL       h69        70     0.10586        1.0080 ; qtot    0.529
        71           h70bf         1   UNL       h70        71     0.09445        1.0080 ; qtot    0.623
        72           h71bf         1   UNL       h71        72     0.09445        1.0080 ; qtot    0.718
        73           h72bf         1   UNL       h72        73     0.09419        1.0080 ; qtot    0.812
        74           h73bf         1   UNL       h73        74     0.09419        1.0080 ; qtot    0.906
        75           h74bf         1   UNL       h74        75     0.17371        1.0080 ; qtot    1.080
        76           h75bf         1   UNL       h75        76     0.46548        1.0080 ; qtot    1.545
        77           h76bf         1   UNL       h76        77     0.45474        1.0080 ; qtot    2.000

[ bonds ]
;       ai        aj funct               r               k
         1         4     1        0.143058   479159.473926    ;  uncertainty r = 0.000213, k = 20.086598
         1         9     1        0.143984   362341.550391    ;  uncertainty r = 0.000299, k = 18.047099
         1        11     1        0.141861   374247.359375    ;  uncertainty r = 0.000081, k = 28.162045
         2         4     1        0.136183   419347.273535    ;  uncertainty r = 0.000143, k = 20.747265
         2         7     1        0.132546   399493.881982    ;  uncertainty r = 0.000085, k = 18.177902
         3         7     1        0.135693   306710.898438    ;  uncertainty r = 0.000236, k = 12.061293
         3        17     1        0.141542   257736.570654    ;  uncertainty r = 0.000296, k = 22.038382
         4        15     1        0.141304   367171.818018    ;  uncertainty r = 0.000141, k = 29.969434
         5         7     1        0.136972   410517.894580    ;  uncertainty r = 0.000209, k = 11.526559
         5         9     1        0.134153   486855.132910    ;  uncertainty r = 0.000475, k = 52.549853
         6        25     1        0.137826   356285.373828    ;  uncertainty r = 0.000063, k = 5.745462
         6        45     1        0.097383   485261.617285    ;  uncertainty r = 0.000032, k = 3.865964
         8        11     1        0.131713   379661.226562    ;  uncertainty r = 0.000132, k = 17.207570
         8        13     1        0.135594   363827.554785    ;  uncertainty r = 0.000326, k = 26.887565
         9        10     1        0.141100   334049.063525    ;  uncertainty r = 0.000263, k = 22.684729
        10        18     1        0.146717   282616.354834    ;  uncertainty r = 0.000141, k = 29.596462
        10        21     1        0.146717   282616.354834    ;  uncertainty r = 0.000141, k = 29.596462
        11        46     1        0.108816   333872.934082    ;  uncertainty r = 0.000028, k = 3.959743
        12        19     1        0.152813   214684.834814    ;  uncertainty r = 0.000144, k = 10.532020
        12        20     1        0.152813   214684.834814    ;  uncertainty r = 0.000144, k = 10.532020
        12        47     1        0.102746   394210.356201    ;  uncertainty r = 0.000084, k = 22.499247
        12        76     1        0.102746   394210.356201    ;  uncertainty r = 0.000084, k = 22.499247
        13        15     1        0.138528   347208.872266    ;  uncertainty r = 0.000171, k = 23.068297
        13        16     1        0.149147   303367.631152    ;  uncertainty r = 0.000071, k = 14.477600
        14        33     1        0.155440   185493.863062    ;  uncertainty r = 0.000371, k = 62.521951
        14        36     1        0.150479   223238.617285    ;  uncertainty r = 0.000141, k = 22.747977
        14        37     1        0.151322   221067.375635    ;  uncertainty r = 0.000178, k = 34.761623
        14        77     1        0.102591   390815.912549    ;  uncertainty r = 0.000170, k = 7.831106
        15        42     1        0.134136   335912.940527    ;  uncertainty r = 0.000035, k = 8.814637
        16        24     1        0.138148   343288.772754    ;  uncertainty r = 0.000299, k = 8.336032
        16        28     1        0.142761   301741.172656    ;  uncertainty r = 0.000292, k = 20.046643
        17        33     1        0.152478   192129.732007    ;  uncertainty r = 0.000154, k = 16.020373
        17        48     1        0.109399   312302.631592    ;  uncertainty r = 0.000057, k = 3.260242
        17        49     1        0.109399   312302.631592    ;  uncertainty r = 0.000057, k = 3.260242
        18        19     1        0.153389   209363.769482    ;  uncertainty r = 0.000246, k = 15.699766
        18        50     1        0.109512   306916.880762    ;  uncertainty r = 0.000054, k = 2.592156
        18        51     1        0.109512   306916.880762    ;  uncertainty r = 0.000054, k = 2.592156
        19        23     1        0.154170   203666.746826    ;  uncertainty r = 0.000096, k = 14.555225
        19        52     1        0.109104   316017.412744    ;  uncertainty r = 0.000091, k = 5.591594
        20        21     1        0.153389   209363.769482    ;  uncertainty r = 0.000246, k = 15.699766
        20        22     1        0.154170   203666.746826    ;  uncertainty r = 0.000096, k = 14.555225
        20        53     1        0.109104   316017.412744    ;  uncertainty r = 0.000091, k = 5.591594
        21        54     1        0.109512   306916.880762    ;  uncertainty r = 0.000054, k = 2.592167
        21        55     1        0.109512   306916.880762    ;  uncertainty r = 0.000054, k = 2.592167
        22        23     1        0.155765   216858.119434    ;  uncertainty r = 0.000150, k = 17.193911
        22        56     1        0.109186   310069.411377    ;  uncertainty r = 0.000038, k = 1.121843
        22        57     1        0.109186   310069.411377    ;  uncertainty r = 0.000038, k = 1.121843
        23        58     1        0.109186   310069.411377    ;  uncertainty r = 0.000038, k = 1.121843
        23        59     1        0.109186   310069.411377    ;  uncertainty r = 0.000038, k = 1.121843
        24        25     1        0.140869   376926.866113    ;  uncertainty r = 0.000250, k = 10.347868
        24        60     1        0.108886   336524.681982    ;  uncertainty r = 0.000042, k = 2.953107
        25        26     1        0.137585   377304.457812    ;  uncertainty r = 0.000065, k = 6.065636
        26        27     1        0.141571   355032.165723    ;  uncertainty r = 0.000079, k = 8.311590
        26        61     1        0.108893   336180.237451    ;  uncertainty r = 0.000040, k = 2.208066
        27        28     1        0.143538   320849.595654    ;  uncertainty r = 0.000056, k = 12.016336
        27        29     1        0.141869   355159.570361    ;  uncertainty r = 0.000091, k = 7.022739
        28        32     1        0.143402   292062.940186    ;  uncertainty r = 0.000193, k = 12.466166
        29        30     1        0.137382   384978.410254    ;  uncertainty r = 0.000102, k = 7.616014
        29        62     1        0.108762   334022.479395    ;  uncertainty r = 0.000049, k = 2.803503
        30        31     1        0.139967   354938.112549    ;  uncertainty r = 0.000073, k = 5.653798
        30        63     1        0.108754   336576.777686    ;  uncertainty r = 0.000025, k = 1.262033
        31        32     1        0.138668   333998.908643    ;  uncertainty r = 0.000139, k = 8.380620
        31        44     1        0.135168   335712.499756    ;  uncertainty r = 0.000147, k = 6.064600
        32        40     1        0.142582   314696.327002    ;  uncertainty r = 0.000192, k = 9.745436
        33        34     1        0.153836   201658.687305    ;  uncertainty r = 0.000119, k = 8.424143
        33        39     1        0.153842   200312.958252    ;  uncertainty r = 0.000116, k = 10.676445
        34        35     1        0.153418   216575.883301    ;  uncertainty r = 0.000134, k = 9.734911
        34        64     1        0.109225   309557.903076    ;  uncertainty r = 0.000049, k = 4.501173
        34        65     1        0.109225   309557.903076    ;  uncertainty r = 0.000049, k = 4.501173
        35        36     1        0.153110   224274.989795    ;  uncertainty r = 0.000237, k = 3.888646
        35        43     1        0.140470   290049.620020    ;  uncertainty r = 0.000244, k = 19.162413
        35        66     1        0.109153   312055.125928    ;  uncertainty r = 0.000039, k = 2.967546
        36        67     1        0.109010   315620.974658    ;  uncertainty r = 0.000068, k = 3.930497
        36        68     1        0.109010   315620.974658    ;  uncertainty r = 0.000068, k = 3.930497
        37        38     1        0.154091   226495.569141    ;  uncertainty r = 0.000118, k = 6.078971
        37        69     1        0.109032   312903.826221    ;  uncertainty r = 0.000044, k = 4.538202
        37        70     1        0.109032   312903.826221    ;  uncertainty r = 0.000044, k = 4.538202
        38        39     1        0.154653   221886.810400    ;  uncertainty r = 0.000111, k = 11.305459
        38        71     1        0.109199   311658.815527    ;  uncertainty r = 0.000012, k = 2.085787
        38        72     1        0.109199   311658.815527    ;  uncertainty r = 0.000012, k = 2.085787
        39        73     1        0.109263   307990.154395    ;  uncertainty r = 0.000017, k = 2.560164
        39        74     1        0.109263   307990.154395    ;  uncertainty r = 0.000017, k = 2.560164
        40        41     1        0.121384   977058.589453    ;  uncertainty r = 0.000128, k = 5.561200
        41        75     1        0.107109   379745.805469    ;  uncertainty r = 0.000090, k = 7.507309

[ angles ]
;       ai        aj        ak funct           theta             cth
         1         4         2     1      122.576538      576.901879    ;  uncertainty theta = 0.002506, k = 0.103868
         1         4        15     1      114.839798      381.591321    ;  uncertainty theta = 0.008818, k = 0.403082
         1         9         5     1      123.146286      524.777479    ;  uncertainty theta = 0.003526, k = 0.330096
         1         9        10     1      120.769066      459.953984    ;  uncertainty theta = 0.006455, k = 0.393069
         1        11         8     1      124.382797      691.062526    ;  uncertainty theta = 0.004438, k = 0.247934
         1        11        46     1      118.381180      255.102523    ;  uncertainty theta = 0.007173, k = 0.190890
         2         4        15     1      120.804161      449.350530    ;  uncertainty theta = 0.006269, k = 0.071889
         2         7         3     1      116.936478      557.966049    ;  uncertainty theta = 0.012083, k = 0.197543
         2         7         5     1      129.563202      744.255367    ;  uncertainty theta = 0.002879, k = 0.093993
         3         7         5     1      115.775780      567.111015    ;  uncertainty theta = 0.011292, k = 0.094909
         3        17        33     1      106.536636      550.831363    ;  uncertainty theta = 0.008312, k = 0.092146
         3        17        48     1      106.871071      434.187105    ;  uncertainty theta = 0.003828, k = 0.111649
         3        17        49     1      106.871071      434.187105    ;  uncertainty theta = 0.003828, k = 0.111649
         4         1         9     1      119.338547      424.615477    ;  uncertainty theta = 0.012644, k = 0.218913
         4         1        11     1      120.668381      440.674584    ;  uncertainty theta = 0.002170, k = 0.503060
         4         2         7     1      111.948120      429.046166    ;  uncertainty theta = 0.012217, k = 0.143361
         4        15        13     1      122.896912      421.225330    ;  uncertainty theta = 0.004502, k = 0.220580
         4        15        42     1      115.885117      442.474184    ;  uncertainty theta = 0.005877, k = 0.364746
         5         9        10     1      122.671585      669.625272    ;  uncertainty theta = 0.004829, k = 0.216895
         6        25        24     1      121.427353      497.155232    ;  uncertainty theta = 0.005787, k = 0.319572
         6        25        26     1      124.262001      498.951353    ;  uncertainty theta = 0.004030, k = 0.177238
         7         3        17     1      108.560631      499.385931    ;  uncertainty theta = 0.004991, k = 0.167344
         7         5         9     1      121.180313      407.919251    ;  uncertainty theta = 0.012509, k = 0.258354
         8        11        46     1      116.993912      319.306248    ;  uncertainty theta = 0.004711, k = 0.159599
         8        13        15     1      122.579933      511.310452    ;  uncertainty theta = 0.004729, k = 0.180637
         8        13        16     1      119.279190      462.477498    ;  uncertainty theta = 0.004613, k = 0.154130
         9         1        11     1      123.652573      370.829600    ;  uncertainty theta = 0.010827, k = 0.419830
         9        10        18     1      110.984398      422.188111    ;  uncertainty theta = 0.004181, k = 0.144764
         9        10        21     1      110.984398      422.188111    ;  uncertainty theta = 0.004181, k = 0.144764
        10        18        19     1      110.133949      649.655188    ;  uncertainty theta = 0.001985, k = 0.133737
        10        18        50     1      108.568321      453.936420    ;  uncertainty theta = 0.004489, k = 0.158239
        10        18        51     1      108.568321      453.936420    ;  uncertainty theta = 0.004489, k = 0.158239
        10        21        20     1      110.133949      649.655188    ;  uncertainty theta = 0.001985, k = 0.133737
        10        21        54     1      108.568321      453.936420    ;  uncertainty theta = 0.004489, k = 0.158239
        10        21        55     1      108.568321      453.936420    ;  uncertainty theta = 0.004489, k = 0.158239
        11         8        13     1      119.577393      417.864742    ;  uncertainty theta = 0.003276, k = 0.302820
        12        19        18     1      107.106102      724.692026    ;  uncertainty theta = 0.009614, k = 0.194545
        12        19        23     1      104.244408      885.384478    ;  uncertainty theta = 0.008129, k = 0.207714
        12        19        52     1      107.116600      462.413527    ;  uncertainty theta = 0.004311, k = 0.213725
        12        20        21     1      107.106102      724.692026    ;  uncertainty theta = 0.009614, k = 0.194545
        12        20        22     1      104.244408      885.384478    ;  uncertainty theta = 0.008129, k = 0.207714
        12        20        53     1      107.116600      462.413527    ;  uncertainty theta = 0.004311, k = 0.213725
        13        15        42     1      117.252747      467.898898    ;  uncertainty theta = 0.005748, k = 0.233758
        13        16        24     1      117.641602      413.770058    ;  uncertainty theta = 0.015230, k = 0.268054
        13        16        28     1      117.940781      357.167821    ;  uncertainty theta = 0.010450, k = 0.268460
        14        33        17     1      106.313026      577.207111    ;  uncertainty theta = 0.013531, k = 0.484071
        14        33        34     1      105.478836      800.614746    ;  uncertainty theta = 0.009707, k = 0.226440
        14        33        39     1      105.830856      804.791213    ;  uncertainty theta = 0.009842, k = 0.234651
        14        36        35     1      106.743797      762.018533    ;  uncertainty theta = 0.010616, k = 0.072688
        14        36        67     1      107.183151      466.739354    ;  uncertainty theta = 0.005270, k = 0.156070
        14        36        68     1      107.183151      466.739354    ;  uncertainty theta = 0.005270, k = 0.156070
        14        37        38     1      107.158607      807.735067    ;  uncertainty theta = 0.008544, k = 0.118370
        14        37        69     1      106.329147      464.789883    ;  uncertainty theta = 0.004972, k = 0.167651
        14        37        70     1      106.329147      464.789883    ;  uncertainty theta = 0.004972, k = 0.167651
        15        13        16     1      119.571167      343.637367    ;  uncertainty theta = 0.010112, k = 0.185453
        16        24        25     1      120.272438      494.047143    ;  uncertainty theta = 0.004002, k = 0.124849
        16        24        60     1      119.523727      267.396934    ;  uncertainty theta = 0.007359, k = 0.209368
        16        28        27     1      121.476723      434.607382    ;  uncertainty theta = 0.005599, k = 0.183113
        16        28        32     1      117.644836      438.937454    ;  uncertainty theta = 0.010357, k = 0.148528
        17        33        34     1      109.787682      504.430851    ;  uncertainty theta = 0.006816, k = 0.290304
        17        33        39     1      110.577492      496.461644    ;  uncertainty theta = 0.008668, k = 0.182764
        18        10        21     1      113.145386      423.689501    ;  uncertainty theta = 0.008189, k = 0.281148
        18        19        23     1      112.961143      535.549191    ;  uncertainty theta = 0.001825, k = 0.221357
        18        19        52     1      110.097534      391.839395    ;  uncertainty theta = 0.006671, k = 0.265089
        19        12        20     1      103.811913      816.372228    ;  uncertainty theta = 0.015300, k = 0.296682
        19        12        47     1      110.536942      414.249901    ;  uncertainty theta = 0.015659, k = 0.317278
        19        12        76     1      110.536942      414.249901    ;  uncertainty theta = 0.015659, k = 0.317278
        19        18        50     1      108.657677      423.347815    ;  uncertainty theta = 0.003396, k = 0.148176
        19        18        51     1      108.657677      423.347815    ;  uncertainty theta = 0.003396, k = 0.148176
        19        23        22     1      106.024353      704.148060    ;  uncertainty theta = 0.006529, k = 0.081670
        19        23        58     1      108.154015      411.973012    ;  uncertainty theta = 0.004144, k = 0.083638
        19        23        59     1      108.154015      411.973012    ;  uncertainty theta = 0.004144, k = 0.083638
        20        12        47     1      110.536942      414.249901    ;  uncertainty theta = 0.015659, k = 0.317278
        20        12        76     1      110.536942      414.249901    ;  uncertainty theta = 0.015659, k = 0.317278
        20        21        54     1      108.657677      423.347815    ;  uncertainty theta = 0.003396, k = 0.148176
        20        21        55     1      108.657677      423.347815    ;  uncertainty theta = 0.003396, k = 0.148176
        20        22        23     1      106.024353      704.148060    ;  uncertainty theta = 0.006529, k = 0.081670
        20        22        56     1      108.154015      411.973012    ;  uncertainty theta = 0.004144, k = 0.083638
        20        22        57     1      108.154015      411.973012    ;  uncertainty theta = 0.004144, k = 0.083638
        21        20        22     1      112.961143      535.549191    ;  uncertainty theta = 0.001825, k = 0.221357
        21        20        53     1      110.097534      391.839395    ;  uncertainty theta = 0.006671, k = 0.265089
        22        20        53     1      111.749313      382.110299    ;  uncertainty theta = 0.005995, k = 0.096527
        22        23        58     1      110.275002      402.480996    ;  uncertainty theta = 0.003380, k = 0.146043
        22        23        59     1      110.275002      402.480996    ;  uncertainty theta = 0.003380, k = 0.146043
        23        19        52     1      111.749313      382.110299    ;  uncertainty theta = 0.005995, k = 0.096527
        23        22        56     1      110.275002      402.480996    ;  uncertainty theta = 0.003380, k = 0.146043
        23        22        57     1      110.275002      402.480996    ;  uncertainty theta = 0.003380, k = 0.146043
        24        16        28     1      124.649368      457.321300    ;  uncertainty theta = 0.004910, k = 0.120649
        24        25        26     1      117.377968      387.579327    ;  uncertainty theta = 0.007340, k = 0.324441
        25         6        45     1      107.625351      459.769798    ;  uncertainty theta = 0.001551, k = 0.073432
        25        24        60     1      120.601036      301.664031    ;  uncertainty theta = 0.003566, k = 0.169853
        25        26        27     1      117.726013      502.981045    ;  uncertainty theta = 0.003329, k = 0.148118
        25        26        61     1      120.856277      301.195553    ;  uncertainty theta = 0.003620, k = 0.048617
        26        27        28     1      121.142723      442.824553    ;  uncertainty theta = 0.005074, k = 0.159039
        26        27        29     1      121.176147      495.137673    ;  uncertainty theta = 0.006074, k = 0.368506
        27        26        61     1      119.773399      272.949180    ;  uncertainty theta = 0.002992, k = 0.087004
        27        28        32     1      121.798180      434.551711    ;  uncertainty theta = 0.005200, k = 0.217112
        27        29        30     1      120.266518      528.015137    ;  uncertainty theta = 0.005868, k = 0.202389
        27        29        62     1      118.878433      275.433302    ;  uncertainty theta = 0.003779, k = 0.095951
        28        27        29     1      119.750732      442.386751    ;  uncertainty theta = 0.005934, k = 0.164270
        28        32        31     1      123.023720      450.288188    ;  uncertainty theta = 0.007694, k = 0.130443
        28        32        40     1      119.227028      377.245799    ;  uncertainty theta = 0.004180, k = 0.179305
        29        30        31     1      117.449097      484.134658    ;  uncertainty theta = 0.004052, k = 0.097948
        29        30        63     1      121.390427      284.458627    ;  uncertainty theta = 0.001953, k = 0.035102
        30        29        62     1      120.705566      285.242297    ;  uncertainty theta = 0.004481, k = 0.026235
        30        31        32     1      126.179138      366.795982    ;  uncertainty theta = 0.005800, k = 0.202370
        30        31        44     1      118.529213      527.075308    ;  uncertainty theta = 0.003264, k = 0.141004
        31        30        63     1      120.032936      282.036496    ;  uncertainty theta = 0.001826, k = 0.075907
        31        32        40     1      118.150894      405.543853    ;  uncertainty theta = 0.010405, k = 0.180121
        32        31        44     1      116.188644      508.660594    ;  uncertainty theta = 0.003700, k = 0.164379
        32        40        41     1      179.950073      179.105267    ;  uncertainty theta = 0.000620, k = 0.548213
        33        14        36     1      109.551758      666.060802    ;  uncertainty theta = 0.012138, k = 0.251631
        33        14        37     1      109.533287      672.975549    ;  uncertainty theta = 0.011177, k = 0.203335
        33        14        77     1      107.358116      426.286179    ;  uncertainty theta = 0.006315, k = 0.165270
        33        17        48     1      109.179382      392.426398    ;  uncertainty theta = 0.002737, k = 0.174360
        33        17        49     1      109.179382      392.426398    ;  uncertainty theta = 0.002737, k = 0.174360
        33        34        35     1      107.478836      678.632657    ;  uncertainty theta = 0.005988, k = 0.090075
        33        34        64     1      107.981346      383.992129    ;  uncertainty theta = 0.002981, k = 0.128153
        33        34        65     1      107.981346      383.992129    ;  uncertainty theta = 0.002981, k = 0.128153
        33        39        38     1      106.895546      691.908570    ;  uncertainty theta = 0.002804, k = 0.130854
        33        39        73     1      107.385544      384.578780    ;  uncertainty theta = 0.002948, k = 0.089690
        33        39        74     1      107.385544      384.578780    ;  uncertainty theta = 0.002948, k = 0.089690
        34        33        39     1      114.012100      535.162974    ;  uncertainty theta = 0.008207, k = 0.314414
        34        35        36     1      107.903954      728.610887    ;  uncertainty theta = 0.005631, k = 0.144773
        34        35        43     1      112.217163      663.999766    ;  uncertainty theta = 0.004822, k = 0.207483
        34        35        66     1      111.480957      392.955526    ;  uncertainty theta = 0.001862, k = 0.125322
        35        34        64     1      108.231163      411.350672    ;  uncertainty theta = 0.002452, k = 0.050492
        35        34        65     1      108.231163      411.350672    ;  uncertainty theta = 0.002452, k = 0.050492
        35        36        67     1      110.560501      397.994732    ;  uncertainty theta = 0.001618, k = 0.080862
        35        36        68     1      110.560501      397.994732    ;  uncertainty theta = 0.001618, k = 0.080862
        36        14        37     1      113.620323      542.203012    ;  uncertainty theta = 0.004313, k = 0.415995
        36        14        77     1      107.583168      424.366809    ;  uncertainty theta = 0.003876, k = 0.157937
        36        35        43     1      110.685326      656.729351    ;  uncertainty theta = 0.007482, k = 0.092610
        36        35        66     1      110.630043      389.554111    ;  uncertainty theta = 0.005126, k = 0.188180
        37        14        77     1      107.859543      429.250143    ;  uncertainty theta = 0.004149, k = 0.175082
        37        38        39     1      106.225952      738.837605    ;  uncertainty theta = 0.006589, k = 0.212736
        37        38        71     1      108.810410      420.814725    ;  uncertainty theta = 0.001037, k = 0.099473
        37        38        72     1      108.810410      420.814725    ;  uncertainty theta = 0.001037, k = 0.099473
        38        37        69     1      111.713844      406.497473    ;  uncertainty theta = 0.002306, k = 0.030583
        38        37        70     1      111.713844      406.497473    ;  uncertainty theta = 0.002306, k = 0.030583
        38        39        73     1      109.892822      419.193885    ;  uncertainty theta = 0.001887, k = 0.088813
        38        39        74     1      109.892822      419.193885    ;  uncertainty theta = 0.001887, k = 0.088813
        39        38        71     1      109.782631      416.660604    ;  uncertainty theta = 0.002668, k = 0.125704
        39        38        72     1      109.782631      416.660604    ;  uncertainty theta = 0.002668, k = 0.125704
        40        41        75     1      177.235687      167.360000    ;  uncertainty theta = 0.006088, k = 0.000000
        43        35        66     1      108.218422      460.481645    ;  uncertainty theta = 0.004012, k = 0.152472
        47        12        76     1      107.747574      350.201458    ;  uncertainty theta = 0.021723, k = 0.473762
        48        17        49     1      108.175621      328.123350    ;  uncertainty theta = 0.001602, k = 0.062972
        50        18        51     1      105.897926      325.661285    ;  uncertainty theta = 0.002949, k = 0.142469
        54        21        55     1      105.897926      325.661285    ;  uncertainty theta = 0.002949, k = 0.142469
        56        22        57     1      104.910583      313.577093    ;  uncertainty theta = 0.003222, k = 0.124326
        58        23        59     1      104.910583      313.577093    ;  uncertainty theta = 0.003222, k = 0.124326
        64        34        65     1      106.239235      310.954655    ;  uncertainty theta = 0.003084, k = 0.044097
        67        36        68     1      108.400620      316.091030    ;  uncertainty theta = 0.004273, k = 0.128302
        69        37        70     1      107.501404      319.034246    ;  uncertainty theta = 0.003296, k = 0.090988
        71        38        72     1      105.080666      317.747622    ;  uncertainty theta = 0.002226, k = 0.118787
        73        39        74     1      105.563980      314.652876    ;  uncertainty theta = 0.002290, k = 0.108688

[ dihedrals ] ; propers for gromacs 4.5 or higher, use funct 9
;       ai        aj        ak        al funct           phase               k        pn
         1         4         2         7     9        0.000000       -0.296257         1    ;  uncertainty k = 1.273553
         1         4         2         7     9      180.000000       12.863482         2    ;  uncertainty k = 0.536008
         1         4         2         7     9        0.000000        0.623273         3    ;  uncertainty k = 0.326993
         1         4         2         7     9      180.000000        1.147725         4    ;  uncertainty k = 0.355045
         1         4        15        13     9        0.000000       -0.640237         1    ;  uncertainty k = 0.613548
         1         4        15        13     9      180.000000        3.525479         2    ;  uncertainty k = 1.205178
         1         4        15        13     9        0.000000        0.270636         3    ;  uncertainty k = 0.291954
         1         4        15        13     9      180.000000        1.215926         4    ;  uncertainty k = 0.380797
         1         4        15        42     9        0.000000        0.340284         1    ;  uncertainty k = 0.591106
         1         4        15        42     9      180.000000        8.063869         2    ;  uncertainty k = 0.670641
         1         4        15        42     9        0.000000        1.392226         3    ;  uncertainty k = 0.150377
         1         4        15        42     9      180.000000        1.486947         4    ;  uncertainty k = 0.229055
         1         9         5         7     9        0.000000       -0.781881         1    ;  uncertainty k = 1.422060
         1         9         5         7     9      180.000000       12.984261         2    ;  uncertainty k = 0.677102
         1         9         5         7     9        0.000000        0.656450         3    ;  uncertainty k = 0.998368
         1         9         5         7     9      180.000000        1.732429         4    ;  uncertainty k = 0.821786
         1         9        10        18     9        0.000000       -1.427466         1    ;  uncertainty k = 1.188999
         1         9        10        18     9      180.000000        9.343136         2    ;  uncertainty k = 0.264294
         1         9        10        18     9        0.000000        0.295999         3    ;  uncertainty k = 0.386319
         1         9        10        18     9      180.000000        0.358373         4    ;  uncertainty k = 0.207630
         1         9        10        21     9        0.000000       -1.427466         1    ;  uncertainty k = 1.188999
         1         9        10        21     9      180.000000        9.343136         2    ;  uncertainty k = 0.264294
         1         9        10        21     9        0.000000        0.295999         3    ;  uncertainty k = 0.386319
         1         9        10        21     9      180.000000        0.358373         4    ;  uncertainty k = 0.207630
         1        11         8        13     9        0.000000       -0.278849         1    ;  uncertainty k = 0.545552
         1        11         8        13     9      180.000000       16.778842         2    ;  uncertainty k = 0.435760
         1        11         8        13     9        0.000000        1.045328         3    ;  uncertainty k = 0.797705
         1        11         8        13     9      180.000000        1.752862         4    ;  uncertainty k = 0.331181
         2         4         1         9     9        0.000000        0.000207         1    ;  uncertainty k = 0.507370
         2         4         1         9     9      180.000000        7.305636         2    ;  uncertainty k = 0.988463
         2         4         1         9     9        0.000000        0.353488         3    ;  uncertainty k = 0.303746
         2         4         1         9     9      180.000000        1.556066         4    ;  uncertainty k = 0.321521
         2         4         1        11     9        0.000000       -0.068163         1    ;  uncertainty k = 0.420137
         2         4         1        11     9      180.000000        7.612629         2    ;  uncertainty k = 0.906697
         2         4         1        11     9        0.000000        0.215897         3    ;  uncertainty k = 0.350361
         2         4         1        11     9      180.000000        1.518026         4    ;  uncertainty k = 0.342744
         2         4        15        13     9        0.000000       -0.202447         1    ;  uncertainty k = 0.109572
         2         4        15        13     9      180.000000        6.292215         2    ;  uncertainty k = 0.595131
         2         4        15        13     9        0.000000        0.395584         3    ;  uncertainty k = 0.191647
         2         4        15        13     9      180.000000        1.226486         4    ;  uncertainty k = 0.377963
         2         4        15        42     9        0.000000        0.100797         1    ;  uncertainty k = 0.687483
         2         4        15        42     9      180.000000       11.806109         2    ;  uncertainty k = 0.663449
         2         4        15        42     9        0.000000        1.112948         3    ;  uncertainty k = 0.345661
         2         4        15        42     9      180.000000        1.142502         4    ;  uncertainty k = 0.465411
         2         7         3        17     9        0.000000        2.587720         1    ;  uncertainty k = 1.861086
         2         7         3        17     9      180.000000        9.635143         2    ;  uncertainty k = 0.503979
         2         7         3        17     9        0.000000        0.048090         3    ;  uncertainty k = 0.150965
         2         7         3        17     9      180.000000       -0.190525         4    ;  uncertainty k = 0.213028
         2         7         5         9     9        0.000000       -0.488652         1    ;  uncertainty k = 1.057490
         2         7         5         9     9      180.000000        8.899800         2    ;  uncertainty k = 0.865025
         2         7         5         9     9        0.000000        1.151301         3    ;  uncertainty k = 0.231591
         2         7         5         9     9      180.000000        0.505791         4    ;  uncertainty k = 0.486052
         3         7         2         4     9        0.000000        0.033778         1    ;  uncertainty k = 1.301232
         3         7         2         4     9      180.000000       14.452717         2    ;  uncertainty k = 0.375347
         3         7         2         4     9        0.000000        2.579123         3    ;  uncertainty k = 0.322795
         3         7         2         4     9      180.000000        1.437478         4    ;  uncertainty k = 0.277198
         3         7         5         9     9        0.000000        0.338738         1    ;  uncertainty k = 1.906641
         3         7         5         9     9      180.000000       10.107912         2    ;  uncertainty k = 0.413421
         3         7         5         9     9        0.000000        2.022862         3    ;  uncertainty k = 0.211584
         3         7         5         9     9      180.000000        0.951306         4    ;  uncertainty k = 0.118728
         3        17        33        14     9        0.000000        1.648820         1    ;  uncertainty k = 1.739602
         3        17        33        14     9      180.000000       -5.109102         2    ;  uncertainty k = 0.802289
         3        17        33        14     9        0.000000        1.105428         3    ;  uncertainty k = 0.303574
         3        17        33        14     9      180.000000       -0.088958         4    ;  uncertainty k = 0.178163
         3        17        33        34     9        0.000000        0.044084         1    ;  uncertainty k = 0.646701
         3        17        33        34     9      180.000000       -0.278590         2    ;  uncertainty k = 0.943499
         3        17        33        34     9        0.000000        1.196532         3    ;  uncertainty k = 0.324769
         3        17        33        34     9      180.000000       -0.120059         4    ;  uncertainty k = 0.135335
         3        17        33        39     9        0.000000       -0.126859         1    ;  uncertainty k = 0.637012
         3        17        33        39     9      180.000000       -0.197512         2    ;  uncertainty k = 0.897261
         3        17        33        39     9        0.000000        1.220267         3    ;  uncertainty k = 0.313254
         3        17        33        39     9      180.000000       -0.086043         4    ;  uncertainty k = 0.118852
         4         1         9         5     9        0.000000       -0.429574         1    ;  uncertainty k = 0.938080
         4         1         9         5     9      180.000000        6.590626         2    ;  uncertainty k = 1.137113
         4         1         9         5     9        0.000000       -0.371204         3    ;  uncertainty k = 0.551517
         4         1         9         5     9      180.000000        0.842106         4    ;  uncertainty k = 0.376691
         4         1         9        10     9        0.000000       -1.028303         1    ;  uncertainty k = 1.278218
         4         1         9        10     9      180.000000        7.036852         2    ;  uncertainty k = 0.885804
         4         1         9        10     9        0.000000        0.121802         3    ;  uncertainty k = 0.339705
         4         1         9        10     9      180.000000        0.876785         4    ;  uncertainty k = 0.328972
         4         1        11         8     9        0.000000        0.028984         1    ;  uncertainty k = 0.404259
         4         1        11         8     9      180.000000       11.577144         2    ;  uncertainty k = 0.516140
         4         1        11         8     9        0.000000       -0.632873         3    ;  uncertainty k = 0.691560
         4         1        11         8     9      180.000000        0.789131         4    ;  uncertainty k = 0.328946
         4         1        11        46     9        0.000000       -0.496305         1    ;  uncertainty k = 0.578653
         4         1        11        46     9      180.000000        5.926200         2    ;  uncertainty k = 0.458741
         4         1        11        46     9        0.000000        0.700476         3    ;  uncertainty k = 0.220056
         4         1        11        46     9      180.000000        0.761876         4    ;  uncertainty k = 0.281358
         4         2         7         5     9        0.000000       -0.196981         1    ;  uncertainty k = 1.034246
         4         2         7         5     9      180.000000       11.783906         2    ;  uncertainty k = 0.754363
         4         2         7         5     9        0.000000        1.700934         3    ;  uncertainty k = 0.531109
         4         2         7         5     9      180.000000        1.152777         4    ;  uncertainty k = 0.244703
         4        15        13         8     9        0.000000       -0.227065         1    ;  uncertainty k = 0.336966
         4        15        13         8     9      180.000000        7.235723         2    ;  uncertainty k = 0.677446
         4        15        13         8     9        0.000000        0.453193         3    ;  uncertainty k = 0.582098
         4        15        13         8     9      180.000000        1.322077         4    ;  uncertainty k = 0.332433
         4        15        13        16     9        0.000000       -0.118159         1    ;  uncertainty k = 0.283366
         4        15        13        16     9      180.000000        5.624686         2    ;  uncertainty k = 0.622109
         4        15        13        16     9        0.000000        0.902376         3    ;  uncertainty k = 0.126186
         4        15        13        16     9      180.000000        1.391053         4    ;  uncertainty k = 0.102063
         5         7         3        17     9        0.000000        5.577612         1    ;  uncertainty k = 1.517024
         5         7         3        17     9      180.000000        9.614249         2    ;  uncertainty k = 0.104637
         5         7         3        17     9        0.000000        0.238222         3    ;  uncertainty k = 0.197833
         5         7         3        17     9      180.000000       -0.124547         4    ;  uncertainty k = 0.269647
         5         9         1        11     9        0.000000        1.009064         1    ;  uncertainty k = 0.800231
         5         9         1        11     9      180.000000        5.504402         2    ;  uncertainty k = 1.802661
         5         9         1        11     9        0.000000       -0.030465         3    ;  uncertainty k = 0.469702
         5         9         1        11     9      180.000000        0.748295         4    ;  uncertainty k = 0.490363
         5         9        10        18     9        0.000000        8.637731         1    ;  uncertainty k = 1.424692
         5         9        10        18     9      180.000000       12.771763         2    ;  uncertainty k = 0.293856
         5         9        10        18     9        0.000000        0.441311         3    ;  uncertainty k = 0.155128
         5         9        10        18     9      180.000000        0.169356         4    ;  uncertainty k = 0.328120
         5         9        10        21     9        0.000000        8.637731         1    ;  uncertainty k = 1.424692
         5         9        10        21     9      180.000000       12.771763         2    ;  uncertainty k = 0.293856
         5         9        10        21     9        0.000000        0.441311         3    ;  uncertainty k = 0.155128
         5         9        10        21     9      180.000000        0.169356         4    ;  uncertainty k = 0.328120
         6        25        24        16     9        0.000000        0.241835         1    ;  uncertainty k = 0.353606
         6        25        24        16     9      180.000000        8.946540         2    ;  uncertainty k = 0.736983
         6        25        24        16     9        0.000000        0.933814         3    ;  uncertainty k = 0.406018
         6        25        24        16     9      180.000000        1.491226         4    ;  uncertainty k = 0.156483
         6        25        24        60     9        0.000000       -0.234962         1    ;  uncertainty k = 0.416753
         6        25        24        60     9      180.000000        7.184286         2    ;  uncertainty k = 0.439301
         6        25        24        60     9        0.000000        0.738370         3    ;  uncertainty k = 0.263053
         6        25        24        60     9      180.000000        1.125849         4    ;  uncertainty k = 0.326706
         6        25        26        27     9        0.000000       -0.033695         1    ;  uncertainty k = 0.237647
         6        25        26        27     9      180.000000       13.369636         2    ;  uncertainty k = 0.820062
         6        25        26        27     9        0.000000        1.163620         3    ;  uncertainty k = 0.229452
         6        25        26        27     9      180.000000        1.372807         4    ;  uncertainty k = 0.359920
         6        25        26        61     9        0.000000       -0.268462         1    ;  uncertainty k = 0.199042
         6        25        26        61     9      180.000000        9.043734         2    ;  uncertainty k = 0.454997
         6        25        26        61     9        0.000000        0.933319         3    ;  uncertainty k = 0.176650
         6        25        26        61     9      180.000000        1.124178         4    ;  uncertainty k = 0.265464
         7         2         4        15     9        0.000000       -0.225806         1    ;  uncertainty k = 1.156549
         7         2         4        15     9      180.000000       12.828964         2    ;  uncertainty k = 0.314461
         7         2         4        15     9        0.000000        1.828930         3    ;  uncertainty k = 0.743538
         7         2         4        15     9      180.000000        1.090077         4    ;  uncertainty k = 0.478207
         7         3        17        33     9        0.000000       -7.510759         1    ;  uncertainty k = 1.475998
         7         3        17        33     9      180.000000        2.709102         2    ;  uncertainty k = 0.765413
         7         3        17        33     9        0.000000       -0.781039         3    ;  uncertainty k = 0.343085
         7         3        17        33     9      180.000000        0.934031         4    ;  uncertainty k = 0.415992
         7         3        17        48     9        0.000000        3.153671         1    ;  uncertainty k = 1.578014
         7         3        17        48     9      180.000000        1.364681         2    ;  uncertainty k = 0.591178
         7         3        17        48     9        0.000000       -0.131180         3    ;  uncertainty k = 0.310201
         7         3        17        48     9      180.000000        0.395920         4    ;  uncertainty k = 0.121665
         7         3        17        49     9        0.000000        3.153671         1    ;  uncertainty k = 1.578014
         7         3        17        49     9      180.000000        1.364681         2    ;  uncertainty k = 0.591178
         7         3        17        49     9        0.000000       -0.131180         3    ;  uncertainty k = 0.310201
         7         3        17        49     9      180.000000        0.395920         4    ;  uncertainty k = 0.121665
         7         5         9        10     9        0.000000        0.434878         1    ;  uncertainty k = 1.165997
         7         5         9        10     9      180.000000       18.095739         2    ;  uncertainty k = 0.788100
         7         5         9        10     9        0.000000        2.581721         3    ;  uncertainty k = 0.811252
         7         5         9        10     9      180.000000        1.672242         4    ;  uncertainty k = 0.700518
         8        11         1         9     9        0.000000        0.131191         1    ;  uncertainty k = 0.453084
         8        11         1         9     9      180.000000        8.728136         2    ;  uncertainty k = 0.939957
         8        11         1         9     9        0.000000        0.374746         3    ;  uncertainty k = 0.391114
         8        11         1         9     9      180.000000        1.133644         4    ;  uncertainty k = 0.308019
         8        13        15        42     9        0.000000        0.171522         1    ;  uncertainty k = 0.562447
         8        13        15        42     9      180.000000       12.327420         2    ;  uncertainty k = 0.629016
         8        13        15        42     9        0.000000        1.304430         3    ;  uncertainty k = 0.217598
         8        13        15        42     9      180.000000        1.426200         4    ;  uncertainty k = 0.361736
         8        13        16        24     9        0.000000        0.881217         1    ;  uncertainty k = 1.286475
         8        13        16        24     9      180.000000        7.072760         2    ;  uncertainty k = 0.161656
         8        13        16        24     9        0.000000        0.254884         3    ;  uncertainty k = 0.244417
         8        13        16        24     9      180.000000        0.535083         4    ;  uncertainty k = 0.050453
         8        13        16        28     9        0.000000       -0.830269         1    ;  uncertainty k = 0.733770
         8        13        16        28     9      180.000000        7.476523         2    ;  uncertainty k = 0.302309
         8        13        16        28     9        0.000000        0.700779         3    ;  uncertainty k = 0.222791
         8        13        16        28     9      180.000000        0.580165         4    ;  uncertainty k = 0.117422
         9         1         4        15     9        0.000000       -0.327887         1    ;  uncertainty k = 0.808821
         9         1         4        15     9      180.000000        5.827308         2    ;  uncertainty k = 0.668686
         9         1         4        15     9        0.000000        0.176632         3    ;  uncertainty k = 0.380608
         9         1         4        15     9      180.000000        1.389660         4    ;  uncertainty k = 0.287900
         9         1        11        46     9        0.000000       -0.819287         1    ;  uncertainty k = 1.518052
         9         1        11        46     9      180.000000        5.548156         2    ;  uncertainty k = 0.577000
         9         1        11        46     9        0.000000        0.953351         3    ;  uncertainty k = 0.254807
         9         1        11        46     9      180.000000        0.672274         4    ;  uncertainty k = 0.246874
         9        10        18        19     9        0.000000       -0.458195         1    ;  uncertainty k = 1.681825
         9        10        18        19     9      180.000000       -1.874762         2    ;  uncertainty k = 0.739856
         9        10        18        19     9        0.000000       -0.040748         3    ;  uncertainty k = 0.186193
         9        10        18        19     9      180.000000        0.284566         4    ;  uncertainty k = 0.036558
         9        10        18        50     9        0.000000       -0.358961         1    ;  uncertainty k = 0.549202
         9        10        18        50     9      180.000000       -0.676027         2    ;  uncertainty k = 0.423916
         9        10        18        50     9        0.000000        0.014841         3    ;  uncertainty k = 0.121211
         9        10        18        50     9      180.000000        0.198073         4    ;  uncertainty k = 0.095184
         9        10        18        51     9        0.000000       -0.358961         1    ;  uncertainty k = 0.549202
         9        10        18        51     9      180.000000       -0.676027         2    ;  uncertainty k = 0.423916
         9        10        18        51     9        0.000000        0.014841         3    ;  uncertainty k = 0.121211
         9        10        18        51     9      180.000000        0.198073         4    ;  uncertainty k = 0.095184
         9        10        21        20     9        0.000000       -0.458195         1    ;  uncertainty k = 1.681825
         9        10        21        20     9      180.000000       -1.874762         2    ;  uncertainty k = 0.739856
         9        10        21        20     9        0.000000       -0.040748         3    ;  uncertainty k = 0.186193
         9        10        21        20     9      180.000000        0.284566         4    ;  uncertainty k = 0.036558
         9        10        21        54     9        0.000000       -0.358961         1    ;  uncertainty k = 0.549202
         9        10        21        54     9      180.000000       -0.676027         2    ;  uncertainty k = 0.423916
         9        10        21        54     9        0.000000        0.014841         3    ;  uncertainty k = 0.121211
         9        10        21        54     9      180.000000        0.198073         4    ;  uncertainty k = 0.095184
         9        10        21        55     9        0.000000       -0.358961         1    ;  uncertainty k = 0.549202
         9        10        21        55     9      180.000000       -0.676027         2    ;  uncertainty k = 0.423916
         9        10        21        55     9        0.000000        0.014841         3    ;  uncertainty k = 0.121211
         9        10        21        55     9      180.000000        0.198073         4    ;  uncertainty k = 0.095184
        10         9         1        11     9        0.000000       -0.425890         1    ;  uncertainty k = 0.687520
        10         9         1        11     9      180.000000        6.477950         2    ;  uncertainty k = 1.028437
        10         9         1        11     9        0.000000        0.193694         3    ;  uncertainty k = 0.577517
        10         9         1        11     9      180.000000        0.829904         4    ;  uncertainty k = 0.425004
        10        18        19        12     9        0.000000        9.107743         1    ;  uncertainty k = 1.082844
        10        18        19        12     9      180.000000       -3.282809         2    ;  uncertainty k = 1.314094
        10        18        19        12     9        0.000000        2.160516         3    ;  uncertainty k = 0.186385
        10        18        19        12     9      180.000000       -0.493621         4    ;  uncertainty k = 0.354842
        10        18        19        23     9        0.000000        8.403191         1    ;  uncertainty k = 2.185287
        10        18        19        23     9      180.000000        2.355906         2    ;  uncertainty k = 1.415442
        10        18        19        23     9        0.000000        1.695368         3    ;  uncertainty k = 0.321915
        10        18        19        23     9      180.000000       -0.398746         4    ;  uncertainty k = 0.237742
        10        18        19        52     9        0.000000        1.706369         1    ;  uncertainty k = 0.425655
        10        18        19        52     9      180.000000       -2.100813         2    ;  uncertainty k = 2.274752
        10        18        19        52     9        0.000000        0.528673         3    ;  uncertainty k = 0.426932
        10        18        19        52     9      180.000000        0.298925         4    ;  uncertainty k = 0.509447
        10        21        20        12     9        0.000000        9.107743         1    ;  uncertainty k = 1.082844
        10        21        20        12     9      180.000000       -3.282809         2    ;  uncertainty k = 1.314094
        10        21        20        12     9        0.000000        2.160516         3    ;  uncertainty k = 0.186385
        10        21        20        12     9      180.000000       -0.493621         4    ;  uncertainty k = 0.354842
        10        21        20        22     9        0.000000        8.403191         1    ;  uncertainty k = 2.185287
        10        21        20        22     9      180.000000        2.355906         2    ;  uncertainty k = 1.415442
        10        21        20        22     9        0.000000        1.695368         3    ;  uncertainty k = 0.321915
        10        21        20        22     9      180.000000       -0.398746         4    ;  uncertainty k = 0.237742
        10        21        20        53     9        0.000000        1.706369         1    ;  uncertainty k = 0.425655
        10        21        20        53     9      180.000000       -2.100813         2    ;  uncertainty k = 2.274752
        10        21        20        53     9        0.000000        0.528673         3    ;  uncertainty k = 0.426932
        10        21        20        53     9      180.000000        0.298925         4    ;  uncertainty k = 0.509447
        11         1         4        15     9        0.000000       -0.619432         1    ;  uncertainty k = 1.069074
        11         1         4        15     9      180.000000        5.358132         2    ;  uncertainty k = 1.318113
        11         1         4        15     9        0.000000        0.120214         3    ;  uncertainty k = 0.201184
        11         1         4        15     9      180.000000        1.478523         4    ;  uncertainty k = 0.304603
        11         8        13        15     9        0.000000        0.282526         1    ;  uncertainty k = 0.676950
        11         8        13        15     9      180.000000       10.856874         2    ;  uncertainty k = 0.446558
        11         8        13        15     9        0.000000        1.691443         3    ;  uncertainty k = 0.460663
        11         8        13        15     9      180.000000        1.274428         4    ;  uncertainty k = 0.057369
        11         8        13        16     9        0.000000        0.871743         1    ;  uncertainty k = 1.057352
        11         8        13        16     9      180.000000       13.976917         2    ;  uncertainty k = 0.318014
        11         8        13        16     9        0.000000        2.440906         3    ;  uncertainty k = 0.574828
        11         8        13        16     9      180.000000        1.448948         4    ;  uncertainty k = 0.402317
        12        19        18        50     9        0.000000       -1.226081         1    ;  uncertainty k = 2.151708
        12        19        18        50     9      180.000000       -0.881111         2    ;  uncertainty k = 0.372613
        12        19        18        50     9        0.000000        0.771595         3    ;  uncertainty k = 0.306670
        12        19        18        50     9      180.000000       -0.188527         4    ;  uncertainty k = 0.228071
        12        19        18        51     9        0.000000       -1.226081         1    ;  uncertainty k = 2.151708
        12        19        18        51     9      180.000000       -0.881111         2    ;  uncertainty k = 0.372613
        12        19        18        51     9        0.000000        0.771595         3    ;  uncertainty k = 0.306670
        12        19        18        51     9      180.000000       -0.188527         4    ;  uncertainty k = 0.228071
        12        19        23        22     9        0.000000        0.189331         1    ;  uncertainty k = 1.089252
        12        19        23        22     9      180.000000        0.699806         2    ;  uncertainty k = 0.973188
        12        19        23        22     9        0.000000        2.265726         3    ;  uncertainty k = 0.479934
        12        19        23        22     9      180.000000       -1.705008         4    ;  uncertainty k = 0.384237
        12        19        23        58     9        0.000000       -2.507565         1    ;  uncertainty k = 1.392526
        12        19        23        58     9      180.000000       -0.064910         2    ;  uncertainty k = 0.466805
        12        19        23        58     9        0.000000        1.243317         3    ;  uncertainty k = 0.217719
        12        19        23        58     9      180.000000       -0.274757         4    ;  uncertainty k = 0.163796
        12        19        23        59     9        0.000000       -2.507565         1    ;  uncertainty k = 1.392526
        12        19        23        59     9      180.000000       -0.064910         2    ;  uncertainty k = 0.466805
        12        19        23        59     9        0.000000        1.243317         3    ;  uncertainty k = 0.217719
        12        19        23        59     9      180.000000       -0.274757         4    ;  uncertainty k = 0.163796
        12        20        21        54     9        0.000000       -1.226081         1    ;  uncertainty k = 2.151708
        12        20        21        54     9      180.000000       -0.881111         2    ;  uncertainty k = 0.372613
        12        20        21        54     9        0.000000        0.771595         3    ;  uncertainty k = 0.306670
        12        20        21        54     9      180.000000       -0.188527         4    ;  uncertainty k = 0.228071
        12        20        21        55     9        0.000000       -1.226081         1    ;  uncertainty k = 2.151708
        12        20        21        55     9      180.000000       -0.881111         2    ;  uncertainty k = 0.372613
        12        20        21        55     9        0.000000        0.771595         3    ;  uncertainty k = 0.306670
        12        20        21        55     9      180.000000       -0.188527         4    ;  uncertainty k = 0.228071
        12        20        22        23     9        0.000000        0.189331         1    ;  uncertainty k = 1.089252
        12        20        22        23     9      180.000000        0.699806         2    ;  uncertainty k = 0.973188
        12        20        22        23     9        0.000000        2.265726         3    ;  uncertainty k = 0.479934
        12        20        22        23     9      180.000000       -1.705008         4    ;  uncertainty k = 0.384237
        12        20        22        56     9        0.000000       -2.507565         1    ;  uncertainty k = 1.392526
        12        20        22        56     9      180.000000       -0.064910         2    ;  uncertainty k = 0.466805
        12        20        22        56     9        0.000000        1.243317         3    ;  uncertainty k = 0.217719
        12        20        22        56     9      180.000000       -0.274757         4    ;  uncertainty k = 0.163796
        12        20        22        57     9        0.000000       -2.507565         1    ;  uncertainty k = 1.392526
        12        20        22        57     9      180.000000       -0.064910         2    ;  uncertainty k = 0.466805
        12        20        22        57     9        0.000000        1.243317         3    ;  uncertainty k = 0.217719
        12        20        22        57     9      180.000000       -0.274757         4    ;  uncertainty k = 0.163796
        13         8        11        46     9        0.000000        0.139843         1    ;  uncertainty k = 0.859960
        13         8        11        46     9      180.000000       17.031917         2    ;  uncertainty k = 0.629655
        13         8        11        46     9        0.000000        2.076374         3    ;  uncertainty k = 0.349057
        13         8        11        46     9      180.000000        1.592569         4    ;  uncertainty k = 0.362845
        13        16        24        25     9        0.000000        0.144753         1    ;  uncertainty k = 0.490853
        13        16        24        25     9      180.000000       11.537538         2    ;  uncertainty k = 0.637098
        13        16        24        25     9        0.000000        1.285357         3    ;  uncertainty k = 0.237615
        13        16        24        25     9      180.000000        1.789410         4    ;  uncertainty k = 0.464013
        13        16        24        60     9        0.000000        0.006645         1    ;  uncertainty k = 0.430737
        13        16        24        60     9      180.000000        8.878820         2    ;  uncertainty k = 0.266146
        13        16        24        60     9        0.000000        0.985706         3    ;  uncertainty k = 0.127157
        13        16        24        60     9      180.000000        1.527902         4    ;  uncertainty k = 0.251878
        13        16        28        27     9        0.000000       -0.071656         1    ;  uncertainty k = 0.749946
        13        16        28        27     9      180.000000        6.209137         2    ;  uncertainty k = 0.541672
        13        16        28        27     9        0.000000        1.174888         3    ;  uncertainty k = 0.441882
        13        16        28        27     9      180.000000        1.359327         4    ;  uncertainty k = 0.115570
        13        16        28        32     9        0.000000       -0.075188         1    ;  uncertainty k = 0.561405
        13        16        28        32     9      180.000000        6.088072         2    ;  uncertainty k = 0.782666
        13        16        28        32     9        0.000000        1.221374         3    ;  uncertainty k = 0.295476
        13        16        28        32     9      180.000000        1.335189         4    ;  uncertainty k = 0.089198
        14        33        17        48     9        0.000000       -0.024288         1    ;  uncertainty k = 0.736587
        14        33        17        48     9      180.000000       -1.149259         2    ;  uncertainty k = 0.605140
        14        33        17        48     9        0.000000        0.504039         3    ;  uncertainty k = 0.134525
        14        33        17        48     9      180.000000       -0.291529         4    ;  uncertainty k = 0.196831
        14        33        17        49     9        0.000000       -0.024288         1    ;  uncertainty k = 0.736587
        14        33        17        49     9      180.000000       -1.149259         2    ;  uncertainty k = 0.605140
        14        33        17        49     9        0.000000        0.504039         3    ;  uncertainty k = 0.134525
        14        33        17        49     9      180.000000       -0.291529         4    ;  uncertainty k = 0.196831
        14        33        34        35     9        0.000000       -0.868339         1    ;  uncertainty k = 2.503341
        14        33        34        35     9      180.000000        1.975563         2    ;  uncertainty k = 1.597596
        14        33        34        35     9        0.000000        0.507320         3    ;  uncertainty k = 0.444471
        14        33        34        35     9      180.000000       -0.690372         4    ;  uncertainty k = 0.125489
        14        33        34        64     9        0.000000       -0.601059         1    ;  uncertainty k = 0.927986
        14        33        34        64     9      180.000000       -0.842918         2    ;  uncertainty k = 0.283818
        14        33        34        64     9        0.000000        0.422561         3    ;  uncertainty k = 0.203674
        14        33        34        64     9      180.000000       -0.186494         4    ;  uncertainty k = 0.107250
        14        33        34        65     9        0.000000       -0.601059         1    ;  uncertainty k = 0.927986
        14        33        34        65     9      180.000000       -0.842918         2    ;  uncertainty k = 0.283818
        14        33        34        65     9        0.000000        0.422561         3    ;  uncertainty k = 0.203674
        14        33        34        65     9      180.000000       -0.186494         4    ;  uncertainty k = 0.107250
        14        33        39        38     9        0.000000       -0.956783         1    ;  uncertainty k = 1.651069
        14        33        39        38     9      180.000000        3.144220         2    ;  uncertainty k = 1.634745
        14        33        39        38     9        0.000000        0.769518         3    ;  uncertainty k = 0.398272
        14        33        39        38     9      180.000000       -1.078081         4    ;  uncertainty k = 0.389535
        14        33        39        73     9        0.000000       -0.514942         1    ;  uncertainty k = 0.734917
        14        33        39        73     9      180.000000       -1.001290         2    ;  uncertainty k = 0.281105
        14        33        39        73     9        0.000000        0.546898         3    ;  uncertainty k = 0.247640
        14        33        39        73     9      180.000000       -0.203949         4    ;  uncertainty k = 0.107426
        14        33        39        74     9        0.000000       -0.514942         1    ;  uncertainty k = 0.734917
        14        33        39        74     9      180.000000       -1.001290         2    ;  uncertainty k = 0.281105
        14        33        39        74     9        0.000000        0.546898         3    ;  uncertainty k = 0.247640
        14        33        39        74     9      180.000000       -0.203949         4    ;  uncertainty k = 0.107426
        14        36        35        34     9        0.000000        0.117107         1    ;  uncertainty k = 1.311784
        14        36        35        34     9      180.000000        1.890904         2    ;  uncertainty k = 0.759609
        14        36        35        34     9        0.000000        0.547352         3    ;  uncertainty k = 0.329867
        14        36        35        34     9      180.000000       -0.888948         4    ;  uncertainty k = 0.358730
        14        36        35        43     9        0.000000       -3.783754         1    ;  uncertainty k = 3.127350
        14        36        35        43     9      180.000000       -1.601321         2    ;  uncertainty k = 1.458449
        14        36        35        43     9        0.000000        1.613212         3    ;  uncertainty k = 0.456793
        14        36        35        43     9      180.000000        0.006887         4    ;  uncertainty k = 0.346925
        14        36        35        66     9        0.000000       -0.643241         1    ;  uncertainty k = 1.396753
        14        36        35        66     9      180.000000        0.258265         2    ;  uncertainty k = 0.627785
        14        36        35        66     9        0.000000        0.490579         3    ;  uncertainty k = 0.153076
        14        36        35        66     9      180.000000       -0.147007         4    ;  uncertainty k = 0.207965
        14        37        38        39     9        0.000000       -1.367572         1    ;  uncertainty k = 1.068056
        14        37        38        39     9      180.000000        1.920951         2    ;  uncertainty k = 1.215792
        14        37        38        39     9        0.000000        0.940848         3    ;  uncertainty k = 0.412612
        14        37        38        39     9      180.000000       -1.583983         4    ;  uncertainty k = 0.404003
        14        37        38        71     9        0.000000       -0.629747         1    ;  uncertainty k = 1.198085
        14        37        38        71     9      180.000000       -1.044778         2    ;  uncertainty k = 0.678388
        14        37        38        71     9        0.000000        0.845981         3    ;  uncertainty k = 0.139447
        14        37        38        71     9      180.000000        0.067060         4    ;  uncertainty k = 0.156792
        14        37        38        72     9        0.000000       -0.629747         1    ;  uncertainty k = 1.198085
        14        37        38        72     9      180.000000       -1.044778         2    ;  uncertainty k = 0.678388
        14        37        38        72     9        0.000000        0.845981         3    ;  uncertainty k = 0.139447
        14        37        38        72     9      180.000000        0.067060         4    ;  uncertainty k = 0.156792
        15        13        16        24     9        0.000000       -0.231612         1    ;  uncertainty k = 0.845191
        15        13        16        24     9      180.000000        5.969948         2    ;  uncertainty k = 0.500162
        15        13        16        24     9        0.000000        0.338549         3    ;  uncertainty k = 0.368491
        15        13        16        24     9      180.000000        0.602831         4    ;  uncertainty k = 0.155473
        15        13        16        28     9        0.000000        0.011988         1    ;  uncertainty k = 1.163521
        15        13        16        28     9      180.000000        5.719597         2    ;  uncertainty k = 0.453117
        15        13        16        28     9        0.000000        0.794423         3    ;  uncertainty k = 0.604939
        15        13        16        28     9      180.000000        0.469683         4    ;  uncertainty k = 0.187963
        16        13        15        42     9        0.000000        0.200119         1    ;  uncertainty k = 0.239694
        16        13        15        42     9      180.000000       10.513335         2    ;  uncertainty k = 0.531001
        16        13        15        42     9        0.000000        1.282721         3    ;  uncertainty k = 0.180054
        16        13        15        42     9      180.000000        1.455679         4    ;  uncertainty k = 0.230838
        16        24        25        26     9        0.000000        0.023591         1    ;  uncertainty k = 0.219876
        16        24        25        26     9      180.000000        5.874330         2    ;  uncertainty k = 0.853102
        16        24        25        26     9        0.000000        0.247066         3    ;  uncertainty k = 0.455353
        16        24        25        26     9      180.000000        1.307723         4    ;  uncertainty k = 0.232762
        16        28        27        26     9        0.000000       -0.443943         1    ;  uncertainty k = 0.331824
        16        28        27        26     9      180.000000        5.824623         2    ;  uncertainty k = 0.721380
        16        28        27        26     9        0.000000        0.926650         3    ;  uncertainty k = 0.179877
        16        28        27        26     9      180.000000        1.507745         4    ;  uncertainty k = 0.197742
        16        28        27        29     9        0.000000       -0.386801         1    ;  uncertainty k = 0.442532
        16        28        27        29     9      180.000000        5.862956         2    ;  uncertainty k = 0.560673
        16        28        27        29     9        0.000000        0.777614         3    ;  uncertainty k = 0.139927
        16        28        27        29     9      180.000000        1.511904         4    ;  uncertainty k = 0.194898
        16        28        32        31     9        0.000000        0.039374         1    ;  uncertainty k = 1.202044
        16        28        32        31     9      180.000000        5.076689         2    ;  uncertainty k = 0.716964
        16        28        32        31     9        0.000000        1.036181         3    ;  uncertainty k = 0.457178
        16        28        32        31     9      180.000000        1.212194         4    ;  uncertainty k = 0.226654
        16        28        32        40     9        0.000000        0.070854         1    ;  uncertainty k = 0.661481
        16        28        32        40     9      180.000000        7.764352         2    ;  uncertainty k = 0.467118
        16        28        32        40     9        0.000000        1.041955         3    ;  uncertainty k = 0.428776
        16        28        32        40     9      180.000000        1.177127         4    ;  uncertainty k = 0.221773
        17        33        14        36     9        0.000000       -0.639178         1    ;  uncertainty k = 0.643538
        17        33        14        36     9      180.000000        0.472526         2    ;  uncertainty k = 0.328157
        17        33        14        36     9        0.000000        1.114089         3    ;  uncertainty k = 0.174942
        17        33        14        36     9      180.000000       -0.010613         4    ;  uncertainty k = 0.102410
        17        33        14        37     9        0.000000       -0.626805         1    ;  uncertainty k = 0.723132
        17        33        14        37     9      180.000000        0.698358         2    ;  uncertainty k = 0.445688
        17        33        14        37     9        0.000000        1.131548         3    ;  uncertainty k = 0.227513
        17        33        14        37     9      180.000000       -0.026928         4    ;  uncertainty k = 0.112057
        17        33        14        77     9        0.000000        2.999725         1    ;  uncertainty k = 1.649944
        17        33        14        77     9      180.000000       -1.176997         2    ;  uncertainty k = 0.939507
        17        33        14        77     9        0.000000        0.486169         3    ;  uncertainty k = 0.195304
        17        33        14        77     9      180.000000       -0.155976         4    ;  uncertainty k = 0.125202
        17        33        34        35     9        0.000000       -2.471278         1    ;  uncertainty k = 1.115432
        17        33        34        35     9      180.000000        0.908620         2    ;  uncertainty k = 0.807660
        17        33        34        35     9        0.000000        0.632752         3    ;  uncertainty k = 0.289710
        17        33        34        35     9      180.000000        0.013391         4    ;  uncertainty k = 0.239089
        17        33        34        64     9        0.000000        0.156883         1    ;  uncertainty k = 0.272250
        17        33        34        64     9      180.000000       -0.444333         2    ;  uncertainty k = 0.437555
        17        33        34        64     9        0.000000        0.690313         3    ;  uncertainty k = 0.195683
        17        33        34        64     9      180.000000       -0.107119         4    ;  uncertainty k = 0.112618
        17        33        34        65     9        0.000000        0.156883         1    ;  uncertainty k = 0.272250
        17        33        34        65     9      180.000000       -0.444333         2    ;  uncertainty k = 0.437555
        17        33        34        65     9        0.000000        0.690313         3    ;  uncertainty k = 0.195683
        17        33        34        65     9      180.000000       -0.107119         4    ;  uncertainty k = 0.112618
        17        33        39        38     9        0.000000       -3.104895         1    ;  uncertainty k = 0.997264
        17        33        39        38     9      180.000000        1.323646         2    ;  uncertainty k = 0.670841
        17        33        39        38     9        0.000000        0.846280         3    ;  uncertainty k = 0.204351
        17        33        39        38     9      180.000000       -0.029244         4    ;  uncertainty k = 0.290839
        17        33        39        73     9        0.000000        0.149810         1    ;  uncertainty k = 0.280995
        17        33        39        73     9      180.000000       -0.432167         2    ;  uncertainty k = 0.397421
        17        33        39        73     9        0.000000        0.713168         3    ;  uncertainty k = 0.204525
        17        33        39        73     9      180.000000       -0.126043         4    ;  uncertainty k = 0.138125
        17        33        39        74     9        0.000000        0.149810         1    ;  uncertainty k = 0.280995
        17        33        39        74     9      180.000000       -0.432167         2    ;  uncertainty k = 0.397421
        17        33        39        74     9        0.000000        0.713168         3    ;  uncertainty k = 0.204525
        17        33        39        74     9      180.000000       -0.126043         4    ;  uncertainty k = 0.138125
        18        10        21        20     9        0.000000        0.996296         1    ;  uncertainty k = 3.091746
        18        10        21        20     9      180.000000       -3.882568         2    ;  uncertainty k = 0.920126
        18        10        21        20     9        0.000000        0.631843         3    ;  uncertainty k = 0.319690
        18        10        21        20     9      180.000000       -0.069009         4    ;  uncertainty k = 0.224471
        18        10        21        54     9        0.000000       -4.262002         1    ;  uncertainty k = 1.361313
        18        10        21        54     9      180.000000        0.464518         2    ;  uncertainty k = 0.710044
        18        10        21        54     9        0.000000        0.955170         3    ;  uncertainty k = 0.043456
        18        10        21        54     9      180.000000       -0.070179         4    ;  uncertainty k = 0.112495
        18        10        21        55     9        0.000000       -4.262002         1    ;  uncertainty k = 1.361313
        18        10        21        55     9      180.000000        0.464518         2    ;  uncertainty k = 0.710044
        18        10        21        55     9        0.000000        0.955170         3    ;  uncertainty k = 0.043456
        18        10        21        55     9      180.000000       -0.070179         4    ;  uncertainty k = 0.112495
        18        19        12        20     9        0.000000        2.332974         1    ;  uncertainty k = 3.433745
        18        19        12        20     9      180.000000       -0.969466         2    ;  uncertainty k = 2.647801
        18        19        12        20     9        0.000000        0.669799         3    ;  uncertainty k = 0.434210
        18        19        12        20     9      180.000000       -0.707708         4    ;  uncertainty k = 0.580677
        18        19        12        47     9        0.000000        1.449081         1    ;  uncertainty k = 1.710019
        18        19        12        47     9      180.000000       -0.149483         2    ;  uncertainty k = 1.068319
        18        19        12        47     9        0.000000        0.745969         3    ;  uncertainty k = 0.389032
        18        19        12        47     9      180.000000        0.030759         4    ;  uncertainty k = 0.168263
        18        19        12        76     9        0.000000        1.449081         1    ;  uncertainty k = 1.710019
        18        19        12        76     9      180.000000       -0.149483         2    ;  uncertainty k = 1.068319
        18        19        12        76     9        0.000000        0.745969         3    ;  uncertainty k = 0.389032
        18        19        12        76     9      180.000000        0.030759         4    ;  uncertainty k = 0.168263
        18        19        23        22     9        0.000000        1.425983         1    ;  uncertainty k = 2.348979
        18        19        23        22     9      180.000000        1.085251         2    ;  uncertainty k = 1.083519
        18        19        23        22     9        0.000000        1.042528         3    ;  uncertainty k = 0.388855
        18        19        23        22     9      180.000000       -0.396419         4    ;  uncertainty k = 0.415101
        18        19        23        58     9        0.000000       -0.935670         1    ;  uncertainty k = 0.319567
        18        19        23        58     9      180.000000       -0.073400         2    ;  uncertainty k = 0.323152
        18        19        23        58     9        0.000000        0.584904         3    ;  uncertainty k = 0.288153
        18        19        23        58     9      180.000000       -0.098097         4    ;  uncertainty k = 0.050566
        18        19        23        59     9        0.000000       -0.935670         1    ;  uncertainty k = 0.319567
        18        19        23        59     9      180.000000       -0.073400         2    ;  uncertainty k = 0.323152
        18        19        23        59     9        0.000000        0.584904         3    ;  uncertainty k = 0.288153
        18        19        23        59     9      180.000000       -0.098097         4    ;  uncertainty k = 0.050566
        19        12        20        21     9        0.000000        2.332974         1    ;  uncertainty k = 3.433745
        19        12        20        21     9      180.000000       -0.969466         2    ;  uncertainty k = 2.647801
        19        12        20        21     9        0.000000        0.669799         3    ;  uncertainty k = 0.434210
        19        12        20        21     9      180.000000       -0.707708         4    ;  uncertainty k = 0.580677
        19        12        20        22     9        0.000000       -2.863884         1    ;  uncertainty k = 0.953340
        19        12        20        22     9      180.000000        5.881051         2    ;  uncertainty k = 1.496646
        19        12        20        22     9        0.000000        0.959501         3    ;  uncertainty k = 0.308106
        19        12        20        22     9      180.000000       -1.578218         4    ;  uncertainty k = 0.785949
        19        12        20        53     9        0.000000       -2.464294         1    ;  uncertainty k = 3.480424
        19        12        20        53     9      180.000000       -1.153887         2    ;  uncertainty k = 0.886333
        19        12        20        53     9        0.000000        0.163905         3    ;  uncertainty k = 0.495815
        19        12        20        53     9      180.000000       -0.156421         4    ;  uncertainty k = 0.288580
        19        18        10        21     9        0.000000        0.996296         1    ;  uncertainty k = 3.091746
        19        18        10        21     9      180.000000       -3.882568         2    ;  uncertainty k = 0.920126
        19        18        10        21     9        0.000000        0.631843         3    ;  uncertainty k = 0.319690
        19        18        10        21     9      180.000000       -0.069009         4    ;  uncertainty k = 0.224471
        19        23        22        20     9        0.000000       -2.135289         1    ;  uncertainty k = 3.339583
        19        23        22        20     9      180.000000        7.371280         2    ;  uncertainty k = 1.668222
        19        23        22        20     9        0.000000        0.556705         3    ;  uncertainty k = 0.529878
        19        23        22        20     9      180.000000       -1.870357         4    ;  uncertainty k = 0.587896
        19        23        22        56     9        0.000000       -1.534651         1    ;  uncertainty k = 0.857224
        19        23        22        56     9      180.000000        0.015553         2    ;  uncertainty k = 0.276003
        19        23        22        56     9        0.000000        0.812494         3    ;  uncertainty k = 0.034992
        19        23        22        56     9      180.000000        0.159229         4    ;  uncertainty k = 0.085386
        19        23        22        57     9        0.000000       -1.534651         1    ;  uncertainty k = 0.857224
        19        23        22        57     9      180.000000        0.015553         2    ;  uncertainty k = 0.276003
        19        23        22        57     9        0.000000        0.812494         3    ;  uncertainty k = 0.034992
        19        23        22        57     9      180.000000        0.159229         4    ;  uncertainty k = 0.085386
        20        12        19        23     9        0.000000       -2.863884         1    ;  uncertainty k = 0.953340
        20        12        19        23     9      180.000000        5.881051         2    ;  uncertainty k = 1.496646
        20        12        19        23     9        0.000000        0.959501         3    ;  uncertainty k = 0.308106
        20        12        19        23     9      180.000000       -1.578218         4    ;  uncertainty k = 0.785949
        20        12        19        52     9        0.000000       -2.464294         1    ;  uncertainty k = 3.480424
        20        12        19        52     9      180.000000       -1.153887         2    ;  uncertainty k = 0.886333
        20        12        19        52     9        0.000000        0.163905         3    ;  uncertainty k = 0.495815
        20        12        19        52     9      180.000000       -0.156421         4    ;  uncertainty k = 0.288580
        20        22        23        58     9        0.000000       -1.534651         1    ;  uncertainty k = 0.857224
        20        22        23        58     9      180.000000        0.015553         2    ;  uncertainty k = 0.276003
        20        22        23        58     9        0.000000        0.812494         3    ;  uncertainty k = 0.034992
        20        22        23        58     9      180.000000        0.159229         4    ;  uncertainty k = 0.085386
        20        22        23        59     9        0.000000       -1.534651         1    ;  uncertainty k = 0.857224
        20        22        23        59     9      180.000000        0.015553         2    ;  uncertainty k = 0.276003
        20        22        23        59     9        0.000000        0.812494         3    ;  uncertainty k = 0.034992
        20        22        23        59     9      180.000000        0.159229         4    ;  uncertainty k = 0.085386
        21        10        18        50     9        0.000000       -4.262002         1    ;  uncertainty k = 1.361313
        21        10        18        50     9      180.000000        0.464518         2    ;  uncertainty k = 0.710044
        21        10        18        50     9        0.000000        0.955170         3    ;  uncertainty k = 0.043456
        21        10        18        50     9      180.000000       -0.070179         4    ;  uncertainty k = 0.112495
        21        10        18        51     9        0.000000       -4.262002         1    ;  uncertainty k = 1.361313
        21        10        18        51     9      180.000000        0.464518         2    ;  uncertainty k = 0.710044
        21        10        18        51     9        0.000000        0.955170         3    ;  uncertainty k = 0.043456
        21        10        18        51     9      180.000000       -0.070179         4    ;  uncertainty k = 0.112495
        21        20        12        47     9        0.000000        1.449081         1    ;  uncertainty k = 1.710019
        21        20        12        47     9      180.000000       -0.149483         2    ;  uncertainty k = 1.068319
        21        20        12        47     9        0.000000        0.745969         3    ;  uncertainty k = 0.389032
        21        20        12        47     9      180.000000        0.030759         4    ;  uncertainty k = 0.168263
        21        20        12        76     9        0.000000        1.449081         1    ;  uncertainty k = 1.710019
        21        20        12        76     9      180.000000       -0.149483         2    ;  uncertainty k = 1.068319
        21        20        12        76     9        0.000000        0.745969         3    ;  uncertainty k = 0.389032
        21        20        12        76     9      180.000000        0.030759         4    ;  uncertainty k = 0.168263
        21        20        22        23     9        0.000000        1.425983         1    ;  uncertainty k = 2.348979
        21        20        22        23     9      180.000000        1.085251         2    ;  uncertainty k = 1.083519
        21        20        22        23     9        0.000000        1.042528         3    ;  uncertainty k = 0.388855
        21        20        22        23     9      180.000000       -0.396419         4    ;  uncertainty k = 0.415101
        21        20        22        56     9        0.000000       -0.935670         1    ;  uncertainty k = 0.319567
        21        20        22        56     9      180.000000       -0.073400         2    ;  uncertainty k = 0.323152
        21        20        22        56     9        0.000000        0.584904         3    ;  uncertainty k = 0.288153
        21        20        22        56     9      180.000000       -0.098097         4    ;  uncertainty k = 0.050566
        21        20        22        57     9        0.000000       -0.935670         1    ;  uncertainty k = 0.319567
        21        20        22        57     9      180.000000       -0.073400         2    ;  uncertainty k = 0.323152
        21        20        22        57     9        0.000000        0.584904         3    ;  uncertainty k = 0.288153
        21        20        22        57     9      180.000000       -0.098097         4    ;  uncertainty k = 0.050566
        22        20        12        47     9        0.000000       -1.262213         1    ;  uncertainty k = 1.005152
        22        20        12        47     9      180.000000        2.725544         2    ;  uncertainty k = 0.732836
        22        20        12        47     9        0.000000        0.844379         3    ;  uncertainty k = 0.439475
        22        20        12        47     9      180.000000       -0.092959         4    ;  uncertainty k = 0.177019
        22        20        12        76     9        0.000000       -1.262213         1    ;  uncertainty k = 1.005152
        22        20        12        76     9      180.000000        2.725544         2    ;  uncertainty k = 0.732836
        22        20        12        76     9        0.000000        0.844379         3    ;  uncertainty k = 0.439475
        22        20        12        76     9      180.000000       -0.092959         4    ;  uncertainty k = 0.177019
        22        20        21        54     9        0.000000       -1.591268         1    ;  uncertainty k = 0.965378
        22        20        21        54     9      180.000000        0.142374         2    ;  uncertainty k = 0.299069
        22        20        21        54     9        0.000000        0.343526         3    ;  uncertainty k = 0.196374
        22        20        21        54     9      180.000000       -0.030757         4    ;  uncertainty k = 0.039234
        22        20        21        55     9        0.000000       -1.591268         1    ;  uncertainty k = 0.965378
        22        20        21        55     9      180.000000        0.142374         2    ;  uncertainty k = 0.299069
        22        20        21        55     9        0.000000        0.343526         3    ;  uncertainty k = 0.196374
        22        20        21        55     9      180.000000       -0.030757         4    ;  uncertainty k = 0.039234
        22        23        19        52     9        0.000000       -0.957159         1    ;  uncertainty k = 1.390041
        22        23        19        52     9      180.000000        0.911072         2    ;  uncertainty k = 0.870353
        22        23        19        52     9        0.000000        0.472911         3    ;  uncertainty k = 0.357988
        22        23        19        52     9      180.000000       -0.015053         4    ;  uncertainty k = 0.294989
        23        19        12        47     9        0.000000       -1.262213         1    ;  uncertainty k = 1.005152
        23        19        12        47     9      180.000000        2.725544         2    ;  uncertainty k = 0.732836
        23        19        12        47     9        0.000000        0.844379         3    ;  uncertainty k = 0.439475
        23        19        12        47     9      180.000000       -0.092959         4    ;  uncertainty k = 0.177019
        23        19        12        76     9        0.000000       -1.262213         1    ;  uncertainty k = 1.005152
        23        19        12        76     9      180.000000        2.725544         2    ;  uncertainty k = 0.732836
        23        19        12        76     9        0.000000        0.844379         3    ;  uncertainty k = 0.439475
        23        19        12        76     9      180.000000       -0.092959         4    ;  uncertainty k = 0.177019
        23        19        18        50     9        0.000000       -1.591268         1    ;  uncertainty k = 0.965378
        23        19        18        50     9      180.000000        0.142374         2    ;  uncertainty k = 0.299069
        23        19        18        50     9        0.000000        0.343526         3    ;  uncertainty k = 0.196374
        23        19        18        50     9      180.000000       -0.030757         4    ;  uncertainty k = 0.039234
        23        19        18        51     9        0.000000       -1.591268         1    ;  uncertainty k = 0.965378
        23        19        18        51     9      180.000000        0.142374         2    ;  uncertainty k = 0.299069
        23        19        18        51     9        0.000000        0.343526         3    ;  uncertainty k = 0.196374
        23        19        18        51     9      180.000000       -0.030757         4    ;  uncertainty k = 0.039234
        23        22        20        53     9        0.000000       -0.957159         1    ;  uncertainty k = 1.390041
        23        22        20        53     9      180.000000        0.911072         2    ;  uncertainty k = 0.870353
        23        22        20        53     9        0.000000        0.472911         3    ;  uncertainty k = 0.357988
        23        22        20        53     9      180.000000       -0.015053         4    ;  uncertainty k = 0.294989
        24        16        28        27     9        0.000000        0.023459         1    ;  uncertainty k = 0.768370
        24        16        28        27     9      180.000000        6.910833         2    ;  uncertainty k = 0.559943
        24        16        28        27     9        0.000000        0.346702         3    ;  uncertainty k = 0.314071
        24        16        28        27     9      180.000000        1.191095         4    ;  uncertainty k = 0.230593
        24        16        28        32     9        0.000000        0.063748         1    ;  uncertainty k = 1.047547
        24        16        28        32     9      180.000000        6.134590         2    ;  uncertainty k = 0.606055
        24        16        28        32     9        0.000000        0.715157         3    ;  uncertainty k = 0.203698
        24        16        28        32     9      180.000000        1.356961         4    ;  uncertainty k = 0.224763
        24        25         6        45     9        0.000000        6.616004         1    ;  uncertainty k = 0.683497
        24        25         6        45     9      180.000000        5.407515         2    ;  uncertainty k = 0.428566
        24        25         6        45     9        0.000000        0.724481         3    ;  uncertainty k = 0.108421
        24        25         6        45     9      180.000000        0.209835         4    ;  uncertainty k = 0.041523
        24        25        26        27     9        0.000000       -0.046565         1    ;  uncertainty k = 0.423023
        24        25        26        27     9      180.000000        9.753903         2    ;  uncertainty k = 0.787905
        24        25        26        27     9        0.000000        0.531846         3    ;  uncertainty k = 0.341219
        24        25        26        27     9      180.000000        1.386679         4    ;  uncertainty k = 0.361770
        24        25        26        61     9        0.000000       -0.116587         1    ;  uncertainty k = 0.292693
        24        25        26        61     9      180.000000        6.708580         2    ;  uncertainty k = 0.674596
        24        25        26        61     9        0.000000        1.381210         3    ;  uncertainty k = 0.217708
        24        25        26        61     9      180.000000        1.475339         4    ;  uncertainty k = 0.131269
        25        24        16        28     9        0.000000       -0.149019         1    ;  uncertainty k = 0.437416
        25        24        16        28     9      180.000000       12.747423         2    ;  uncertainty k = 0.616344
        25        24        16        28     9        0.000000        0.451923         3    ;  uncertainty k = 0.572896
        25        24        16        28     9      180.000000        1.260031         4    ;  uncertainty k = 0.608951
        25        26        27        28     9        0.000000        0.258656         1    ;  uncertainty k = 0.724061
        25        26        27        28     9      180.000000        9.479226         2    ;  uncertainty k = 0.574413
        25        26        27        28     9        0.000000        0.202506         3    ;  uncertainty k = 0.402663
        25        26        27        28     9      180.000000        1.227940         4    ;  uncertainty k = 0.301452
        25        26        27        29     9        0.000000       -0.180602         1    ;  uncertainty k = 0.263238
        25        26        27        29     9      180.000000       10.113201         2    ;  uncertainty k = 0.493354
        25        26        27        29     9        0.000000        0.506841         3    ;  uncertainty k = 0.471383
        25        26        27        29     9      180.000000        1.327506         4    ;  uncertainty k = 0.060660
        26        25         6        45     9        0.000000        7.640142         1    ;  uncertainty k = 0.416558
        26        25         6        45     9      180.000000        5.422249         2    ;  uncertainty k = 0.181240
        26        25         6        45     9        0.000000        0.524028         3    ;  uncertainty k = 0.147493
        26        25         6        45     9      180.000000        0.242788         4    ;  uncertainty k = 0.087174
        26        25        24        60     9        0.000000       -0.002530         1    ;  uncertainty k = 0.283667
        26        25        24        60     9      180.000000        5.237201         2    ;  uncertainty k = 0.733202
        26        25        24        60     9        0.000000        1.151940         3    ;  uncertainty k = 0.150385
        26        25        24        60     9      180.000000        1.411518         4    ;  uncertainty k = 0.217222
        26        27        28        32     9        0.000000       -0.500977         1    ;  uncertainty k = 0.472961
        26        27        28        32     9      180.000000        6.086826         2    ;  uncertainty k = 0.519124
        26        27        28        32     9        0.000000        0.908921         3    ;  uncertainty k = 0.243466
        26        27        28        32     9      180.000000        1.565231         4    ;  uncertainty k = 0.307122
        26        27        29        30     9        0.000000       -0.148091         1    ;  uncertainty k = 0.413302
        26        27        29        30     9      180.000000        9.896890         2    ;  uncertainty k = 0.207416
        26        27        29        30     9        0.000000        0.369287         3    ;  uncertainty k = 0.318146
        26        27        29        30     9      180.000000        1.388934         4    ;  uncertainty k = 0.128033
        26        27        29        62     9        0.000000        0.000564         1    ;  uncertainty k = 0.364270
        26        27        29        62     9      180.000000        7.089201         2    ;  uncertainty k = 0.418112
        26        27        29        62     9        0.000000        1.077016         3    ;  uncertainty k = 0.334760
        26        27        29        62     9      180.000000        1.247079         4    ;  uncertainty k = 0.176727
        27        28        32        31     9        0.000000       -0.146785         1    ;  uncertainty k = 1.286807
        27        28        32        31     9      180.000000        5.745822         2    ;  uncertainty k = 0.720211
        27        28        32        31     9        0.000000        0.644839         3    ;  uncertainty k = 0.159853
        27        28        32        31     9      180.000000        1.134679         4    ;  uncertainty k = 0.200432
        27        28        32        40     9        0.000000       -0.005190         1    ;  uncertainty k = 0.643754
        27        28        32        40     9      180.000000        6.929740         2    ;  uncertainty k = 1.078321
        27        28        32        40     9        0.000000        1.168369         3    ;  uncertainty k = 0.252366
        27        28        32        40     9      180.000000        1.243498         4    ;  uncertainty k = 0.262801
        27        29        30        31     9        0.000000        0.096601         1    ;  uncertainty k = 0.251417
        27        29        30        31     9      180.000000       15.934883         2    ;  uncertainty k = 0.303957
        27        29        30        31     9        0.000000       -0.412143         3    ;  uncertainty k = 0.490174
        27        29        30        31     9      180.000000        0.930800         4    ;  uncertainty k = 0.268521
        27        29        30        63     9        0.000000        0.269023         1    ;  uncertainty k = 0.235408
        27        29        30        63     9      180.000000        9.957667         2    ;  uncertainty k = 0.244916
        27        29        30        63     9        0.000000        1.492612         3    ;  uncertainty k = 0.300745
        27        29        30        63     9      180.000000        1.785583         4    ;  uncertainty k = 0.204075
        28        16        24        60     9        0.000000        0.101674         1    ;  uncertainty k = 0.457111
        28        16        24        60     9      180.000000        9.394179         2    ;  uncertainty k = 0.636407
        28        16        24        60     9        0.000000        1.324330         3    ;  uncertainty k = 0.250178
        28        16        24        60     9      180.000000        1.664431         4    ;  uncertainty k = 0.346154
        28        27        26        61     9        0.000000        0.391151         1    ;  uncertainty k = 0.753612
        28        27        26        61     9      180.000000        6.604065         2    ;  uncertainty k = 0.475336
        28        27        26        61     9        0.000000        1.242179         3    ;  uncertainty k = 0.258668
        28        27        26        61     9      180.000000        1.402376         4    ;  uncertainty k = 0.264564
        28        27        29        30     9        0.000000        0.215097         1    ;  uncertainty k = 0.333608
        28        27        29        30     9      180.000000        9.757388         2    ;  uncertainty k = 0.655357
        28        27        29        30     9        0.000000       -0.249317         3    ;  uncertainty k = 0.080110
        28        27        29        30     9      180.000000        1.138153         4    ;  uncertainty k = 0.206593
        28        27        29        62     9        0.000000        0.061878         1    ;  uncertainty k = 0.562748
        28        27        29        62     9      180.000000        6.127831         2    ;  uncertainty k = 0.461241
        28        27        29        62     9        0.000000        1.130903         3    ;  uncertainty k = 0.262945
        28        27        29        62     9      180.000000        1.366502         4    ;  uncertainty k = 0.227195
        28        32        31        30     9        0.000000        0.078884         1    ;  uncertainty k = 0.548922
        28        32        31        30     9      180.000000        5.713041         2    ;  uncertainty k = 1.047829
        28        32        31        30     9        0.000000        1.071190         3    ;  uncertainty k = 0.165010
        28        32        31        30     9      180.000000        1.665840         4    ;  uncertainty k = 0.315031
        28        32        31        44     9        0.000000        0.275743         1    ;  uncertainty k = 0.362399
        28        32        31        44     9      180.000000       12.032406         2    ;  uncertainty k = 0.430517
        28        32        31        44     9        0.000000        1.564608         3    ;  uncertainty k = 0.222526
        28        32        31        44     9      180.000000        1.558691         4    ;  uncertainty k = 0.226881
        28        32        40        41     9        0.000000        0.000000         1    ;  uncertainty k = 0.000000
        28        32        40        41     9      180.000000        0.000000         2    ;  uncertainty k = 0.000000
        28        32        40        41     9        0.000000        0.000000         3    ;  uncertainty k = 0.000000
        28        32        40        41     9      180.000000        0.000000         4    ;  uncertainty k = 0.000000
        29        27        26        61     9        0.000000        0.260594         1    ;  uncertainty k = 0.374985
        29        27        26        61     9      180.000000        7.178907         2    ;  uncertainty k = 0.591755
        29        27        26        61     9        0.000000        1.052183         3    ;  uncertainty k = 0.404149
        29        27        26        61     9      180.000000        1.197496         4    ;  uncertainty k = 0.202989
        29        27        28        32     9        0.000000       -0.556123         1    ;  uncertainty k = 0.518102
        29        27        28        32     9      180.000000        5.966542         2    ;  uncertainty k = 0.395314
        29        27        28        32     9        0.000000        0.850351         3    ;  uncertainty k = 0.227988
        29        27        28        32     9      180.000000        1.586944         4    ;  uncertainty k = 0.317643
        29        30        31        32     9        0.000000        0.037236         1    ;  uncertainty k = 0.409212
        29        30        31        32     9      180.000000        6.680155         2    ;  uncertainty k = 0.791387
        29        30        31        32     9        0.000000        0.471417         3    ;  uncertainty k = 0.428570
        29        30        31        32     9      180.000000        1.316947         4    ;  uncertainty k = 0.246527
        29        30        31        44     9        0.000000       -0.027037         1    ;  uncertainty k = 0.230650
        29        30        31        44     9      180.000000       11.656921         2    ;  uncertainty k = 0.338248
        29        30        31        44     9        0.000000        1.323223         3    ;  uncertainty k = 0.350855
        29        30        31        44     9      180.000000        1.462071         4    ;  uncertainty k = 0.196970
        30        31        32        40     9        0.000000       -0.169762         1    ;  uncertainty k = 0.660352
        30        31        32        40     9      180.000000        8.547113         2    ;  uncertainty k = 0.346664
        30        31        32        40     9        0.000000        1.281238         3    ;  uncertainty k = 0.265437
        30        31        32        40     9      180.000000        1.669693         4    ;  uncertainty k = 0.271337
        31        30        29        62     9        0.000000        0.051888         1    ;  uncertainty k = 0.238577
        31        30        29        62     9      180.000000        9.249890         2    ;  uncertainty k = 0.591473
        31        30        29        62     9        0.000000        1.322339         3    ;  uncertainty k = 0.479338
        31        30        29        62     9      180.000000        1.880772         4    ;  uncertainty k = 0.297857
        31        32        40        41     9        0.000000        0.000000         1    ;  uncertainty k = 0.000000
        31        32        40        41     9      180.000000        0.000000         2    ;  uncertainty k = 0.000000
        31        32        40        41     9        0.000000        0.000000         3    ;  uncertainty k = 0.000000
        31        32        40        41     9      180.000000        0.000000         4    ;  uncertainty k = 0.000000
        32        31        30        63     9        0.000000        0.181986         1    ;  uncertainty k = 0.449240
        32        31        30        63     9      180.000000        5.511673         2    ;  uncertainty k = 0.576699
        32        31        30        63     9        0.000000        1.247771         3    ;  uncertainty k = 0.335387
        32        31        30        63     9      180.000000        1.385547         4    ;  uncertainty k = 0.115886
        32        40        41        75     9        0.000000        0.000000         1    ;  uncertainty k = 0.000000
        32        40        41        75     9      180.000000        0.000000         2    ;  uncertainty k = 0.000000
        32        40        41        75     9        0.000000        0.000000         3    ;  uncertainty k = 0.000000
        32        40        41        75     9      180.000000        0.000000         4    ;  uncertainty k = 0.000000
        33        14        36        35     9        0.000000       -1.195631         1    ;  uncertainty k = 2.066799
        33        14        36        35     9      180.000000        2.132754         2    ;  uncertainty k = 2.134026
        33        14        36        35     9        0.000000        0.539887         3    ;  uncertainty k = 0.184632
        33        14        36        35     9      180.000000       -0.584180         4    ;  uncertainty k = 0.195142
        33        14        36        67     9        0.000000        0.411534         1    ;  uncertainty k = 0.297414
        33        14        36        67     9      180.000000       -0.322366         2    ;  uncertainty k = 0.554299
        33        14        36        67     9        0.000000        0.572894         3    ;  uncertainty k = 0.114023
        33        14        36        67     9      180.000000        0.089412         4    ;  uncertainty k = 0.120513
        33        14        36        68     9        0.000000        0.411534         1    ;  uncertainty k = 0.297414
        33        14        36        68     9      180.000000       -0.322366         2    ;  uncertainty k = 0.554299
        33        14        36        68     9        0.000000        0.572894         3    ;  uncertainty k = 0.114023
        33        14        36        68     9      180.000000        0.089412         4    ;  uncertainty k = 0.120513
        33        14        37        38     9        0.000000       -3.324505         1    ;  uncertainty k = 2.046848
        33        14        37        38     9      180.000000        3.921835         2    ;  uncertainty k = 2.395800
        33        14        37        38     9        0.000000        0.760440         3    ;  uncertainty k = 0.265909
        33        14        37        38     9      180.000000       -0.866054         4    ;  uncertainty k = 0.253926
        33        14        37        69     9        0.000000        0.627919         1    ;  uncertainty k = 0.344784
        33        14        37        69     9      180.000000       -0.523048         2    ;  uncertainty k = 0.655984
        33        14        37        69     9        0.000000        0.559069         3    ;  uncertainty k = 0.117734
        33        14        37        69     9      180.000000        0.113462         4    ;  uncertainty k = 0.133169
        33        14        37        70     9        0.000000        0.627919         1    ;  uncertainty k = 0.344784
        33        14        37        70     9      180.000000       -0.523048         2    ;  uncertainty k = 0.655984
        33        14        37        70     9        0.000000        0.559069         3    ;  uncertainty k = 0.117734
        33        14        37        70     9      180.000000        0.113462         4    ;  uncertainty k = 0.133169
        33        34        35        36     9        0.000000       -1.368642         1    ;  uncertainty k = 1.142051
        33        34        35        36     9      180.000000        3.837818         2    ;  uncertainty k = 1.334522
        33        34        35        36     9        0.000000        0.208044         3    ;  uncertainty k = 0.436054
        33        34        35        36     9      180.000000       -1.164148         4    ;  uncertainty k = 0.214891
        33        34        35        43     9        0.000000       -2.359342         1    ;  uncertainty k = 1.453478
        33        34        35        43     9      180.000000       -0.525068         2    ;  uncertainty k = 0.954490
        33        34        35        43     9        0.000000        0.969919         3    ;  uncertainty k = 0.259228
        33        34        35        43     9      180.000000        0.199583         4    ;  uncertainty k = 0.129406
        33        34        35        66     9        0.000000       -0.468934         1    ;  uncertainty k = 0.241299
        33        34        35        66     9      180.000000        0.583055         2    ;  uncertainty k = 0.468769
        33        34        35        66     9        0.000000        0.357769         3    ;  uncertainty k = 0.237704
        33        34        35        66     9      180.000000       -0.102254         4    ;  uncertainty k = 0.047155
        33        39        38        37     9        0.000000       -0.998877         1    ;  uncertainty k = 0.846504
        33        39        38        37     9      180.000000        4.241090         2    ;  uncertainty k = 1.841506
        33        39        38        37     9        0.000000        0.322704         3    ;  uncertainty k = 0.356794
        33        39        38        37     9      180.000000       -1.638901         4    ;  uncertainty k = 0.577723
        33        39        38        71     9        0.000000       -0.580146         1    ;  uncertainty k = 0.436494
        33        39        38        71     9      180.000000       -0.638570         2    ;  uncertainty k = 0.285140
        33        39        38        71     9        0.000000        0.540445         3    ;  uncertainty k = 0.139964
        33        39        38        71     9      180.000000        0.121223         4    ;  uncertainty k = 0.095489
        33        39        38        72     9        0.000000       -0.580146         1    ;  uncertainty k = 0.436494
        33        39        38        72     9      180.000000       -0.638570         2    ;  uncertainty k = 0.285140
        33        39        38        72     9        0.000000        0.540445         3    ;  uncertainty k = 0.139964
        33        39        38        72     9      180.000000        0.121223         4    ;  uncertainty k = 0.095489
        34        33        14        36     9        0.000000       -2.395663         1    ;  uncertainty k = 1.524704
        34        33        14        36     9      180.000000        0.302722         2    ;  uncertainty k = 1.023424
        34        33        14        36     9        0.000000        1.519274         3    ;  uncertainty k = 0.356773
        34        33        14        36     9      180.000000       -0.103660         4    ;  uncertainty k = 0.279154
        34        33        14        37     9        0.000000       -2.523383         1    ;  uncertainty k = 1.338521
        34        33        14        37     9      180.000000        0.395082         2    ;  uncertainty k = 0.939889
        34        33        14        37     9        0.000000        1.534443         3    ;  uncertainty k = 0.318764
        34        33        14        37     9      180.000000       -0.118144         4    ;  uncertainty k = 0.253492
        34        33        14        77     9        0.000000        1.750261         1    ;  uncertainty k = 0.866113
        34        33        14        77     9      180.000000        0.104748         2    ;  uncertainty k = 0.278568
        34        33        14        77     9        0.000000        0.422846         3    ;  uncertainty k = 0.268763
        34        33        14        77     9      180.000000       -0.108626         4    ;  uncertainty k = 0.173580
        34        33        17        48     9        0.000000       -1.344375         1    ;  uncertainty k = 0.487676
        34        33        17        48     9      180.000000        0.124134         2    ;  uncertainty k = 0.172032
        34        33        17        48     9        0.000000        0.348188         3    ;  uncertainty k = 0.154494
        34        33        17        48     9      180.000000       -0.189504         4    ;  uncertainty k = 0.054597
        34        33        17        49     9        0.000000       -1.344375         1    ;  uncertainty k = 0.487676
        34        33        17        49     9      180.000000        0.124134         2    ;  uncertainty k = 0.172032
        34        33        17        49     9        0.000000        0.348188         3    ;  uncertainty k = 0.154494
        34        33        17        49     9      180.000000       -0.189504         4    ;  uncertainty k = 0.054597
        34        33        39        38     9        0.000000       -3.093941         1    ;  uncertainty k = 0.887633
        34        33        39        38     9      180.000000        1.658632         2    ;  uncertainty k = 0.404874
        34        33        39        38     9        0.000000        1.004480         3    ;  uncertainty k = 0.124356
        34        33        39        38     9      180.000000       -0.045683         4    ;  uncertainty k = 0.218287
        34        33        39        73     9        0.000000       -0.657099         1    ;  uncertainty k = 0.264135
        34        33        39        73     9      180.000000       -0.118516         2    ;  uncertainty k = 0.278253
        34        33        39        73     9        0.000000        0.643050         3    ;  uncertainty k = 0.239235
        34        33        39        73     9      180.000000        0.003887         4    ;  uncertainty k = 0.083291
        34        33        39        74     9        0.000000       -0.657099         1    ;  uncertainty k = 0.264135
        34        33        39        74     9      180.000000       -0.118516         2    ;  uncertainty k = 0.278253
        34        33        39        74     9        0.000000        0.643050         3    ;  uncertainty k = 0.239235
        34        33        39        74     9      180.000000        0.003887         4    ;  uncertainty k = 0.083291
        34        35        36        67     9        0.000000       -1.160856         1    ;  uncertainty k = 0.551031
        34        35        36        67     9      180.000000       -0.159421         2    ;  uncertainty k = 0.154425
        34        35        36        67     9        0.000000        0.290565         3    ;  uncertainty k = 0.161159
        34        35        36        67     9      180.000000        0.023554         4    ;  uncertainty k = 0.085688
        34        35        36        68     9        0.000000       -1.160856         1    ;  uncertainty k = 0.551031
        34        35        36        68     9      180.000000       -0.159421         2    ;  uncertainty k = 0.154425
        34        35        36        68     9        0.000000        0.290565         3    ;  uncertainty k = 0.161159
        34        35        36        68     9      180.000000        0.023554         4    ;  uncertainty k = 0.085688
        35        34        33        39     9        0.000000       -2.738758         1    ;  uncertainty k = 0.849017
        35        34        33        39     9      180.000000        0.828297         2    ;  uncertainty k = 0.485746
        35        34        33        39     9        0.000000        0.639755         3    ;  uncertainty k = 0.153197
        35        34        33        39     9      180.000000       -0.053471         4    ;  uncertainty k = 0.163570
        35        36        14        37     9        0.000000       -1.899600         1    ;  uncertainty k = 0.460369
        35        36        14        37     9      180.000000       -0.354065         2    ;  uncertainty k = 0.704830
        35        36        14        37     9        0.000000        1.129099         3    ;  uncertainty k = 0.298646
        35        36        14        37     9      180.000000       -0.076611         4    ;  uncertainty k = 0.232941
        35        36        14        77     9        0.000000        1.978203         1    ;  uncertainty k = 1.666874
        35        36        14        77     9      180.000000       -1.271299         2    ;  uncertainty k = 0.522278
        35        36        14        77     9        0.000000        0.588759         3    ;  uncertainty k = 0.273375
        35        36        14        77     9      180.000000        0.019119         4    ;  uncertainty k = 0.172144
        36        14        33        39     9        0.000000       -2.580495         1    ;  uncertainty k = 1.608499
        36        14        33        39     9      180.000000        0.298985         2    ;  uncertainty k = 1.231663
        36        14        33        39     9        0.000000        1.513489         3    ;  uncertainty k = 0.348048
        36        14        33        39     9      180.000000       -0.150708         4    ;  uncertainty k = 0.361386
        36        14        37        38     9        0.000000       -3.064349         1    ;  uncertainty k = 0.690274
        36        14        37        38     9      180.000000        0.593983         2    ;  uncertainty k = 0.871916
        36        14        37        38     9        0.000000        1.471688         3    ;  uncertainty k = 0.329536
        36        14        37        38     9      180.000000       -0.049578         4    ;  uncertainty k = 0.224774
        36        14        37        69     9        0.000000        0.122147         1    ;  uncertainty k = 0.337927
        36        14        37        69     9      180.000000       -0.533425         2    ;  uncertainty k = 0.374997
        36        14        37        69     9        0.000000        1.071767         3    ;  uncertainty k = 0.267585
        36        14        37        69     9      180.000000        0.024694         4    ;  uncertainty k = 0.078256
        36        14        37        70     9        0.000000        0.122147         1    ;  uncertainty k = 0.337927
        36        14        37        70     9      180.000000       -0.533425         2    ;  uncertainty k = 0.374997
        36        14        37        70     9        0.000000        1.071767         3    ;  uncertainty k = 0.267585
        36        14        37        70     9      180.000000        0.024694         4    ;  uncertainty k = 0.078256
        36        35        34        64     9        0.000000       -1.288712         1    ;  uncertainty k = 0.737068
        36        35        34        64     9      180.000000        0.099805         2    ;  uncertainty k = 0.161910
        36        35        34        64     9        0.000000        0.502226         3    ;  uncertainty k = 0.163406
        36        35        34        64     9      180.000000        0.116336         4    ;  uncertainty k = 0.056889
        36        35        34        65     9        0.000000       -1.288712         1    ;  uncertainty k = 0.737068
        36        35        34        65     9      180.000000        0.099805         2    ;  uncertainty k = 0.161910
        36        35        34        65     9        0.000000        0.502226         3    ;  uncertainty k = 0.163406
        36        35        34        65     9      180.000000        0.116336         4    ;  uncertainty k = 0.056889
        37        14        33        39     9        0.000000       -2.904349         1    ;  uncertainty k = 1.168020
        37        14        33        39     9      180.000000        0.314865         2    ;  uncertainty k = 1.137654
        37        14        33        39     9        0.000000        1.538343         3    ;  uncertainty k = 0.335719
        37        14        33        39     9      180.000000       -0.164713         4    ;  uncertainty k = 0.323609
        37        14        36        67     9        0.000000       -0.221573         1    ;  uncertainty k = 0.366295
        37        14        36        67     9      180.000000       -0.325655         2    ;  uncertainty k = 0.290333
        37        14        36        67     9        0.000000        0.987233         3    ;  uncertainty k = 0.254192
        37        14        36        67     9      180.000000        0.005287         4    ;  uncertainty k = 0.051103
        37        14        36        68     9        0.000000       -0.221573         1    ;  uncertainty k = 0.366295
        37        14        36        68     9      180.000000       -0.325655         2    ;  uncertainty k = 0.290333
        37        14        36        68     9        0.000000        0.987233         3    ;  uncertainty k = 0.254192
        37        14        36        68     9      180.000000        0.005287         4    ;  uncertainty k = 0.051103
        37        38        39        73     9        0.000000       -1.708880         1    ;  uncertainty k = 0.515654
        37        38        39        73     9      180.000000        0.019179         2    ;  uncertainty k = 0.079205
        37        38        39        73     9        0.000000        0.831176         3    ;  uncertainty k = 0.073769
        37        38        39        73     9      180.000000        0.171490         4    ;  uncertainty k = 0.040914
        37        38        39        74     9        0.000000       -1.708880         1    ;  uncertainty k = 0.515654
        37        38        39        74     9      180.000000        0.019179         2    ;  uncertainty k = 0.079205
        37        38        39        74     9        0.000000        0.831176         3    ;  uncertainty k = 0.073769
        37        38        39        74     9      180.000000        0.171490         4    ;  uncertainty k = 0.040914
        38        37        14        77     9        0.000000        2.252897         1    ;  uncertainty k = 1.235177
        38        37        14        77     9      180.000000       -0.618196         2    ;  uncertainty k = 0.862018
        38        37        14        77     9        0.000000        0.664194         3    ;  uncertainty k = 0.225898
        38        37        14        77     9      180.000000        0.080725         4    ;  uncertainty k = 0.182553
        39        33        14        77     9        0.000000        1.890107         1    ;  uncertainty k = 1.269200
        39        33        14        77     9      180.000000        0.211733         2    ;  uncertainty k = 0.418481
        39        33        14        77     9        0.000000        0.476288         3    ;  uncertainty k = 0.314515
        39        33        14        77     9      180.000000       -0.117315         4    ;  uncertainty k = 0.183861
        39        33        17        48     9        0.000000       -1.364128         1    ;  uncertainty k = 0.503835
        39        33        17        48     9      180.000000        0.102087         2    ;  uncertainty k = 0.186925
        39        33        17        48     9        0.000000        0.334655         3    ;  uncertainty k = 0.122377
        39        33        17        48     9      180.000000       -0.170263         4    ;  uncertainty k = 0.050608
        39        33        17        49     9        0.000000       -1.364128         1    ;  uncertainty k = 0.503835
        39        33        17        49     9      180.000000        0.102087         2    ;  uncertainty k = 0.186925
        39        33        17        49     9        0.000000        0.334655         3    ;  uncertainty k = 0.122377
        39        33        17        49     9      180.000000       -0.170263         4    ;  uncertainty k = 0.050608
        39        33        34        64     9        0.000000       -0.740047         1    ;  uncertainty k = 0.410287
        39        33        34        64     9      180.000000       -0.024654         2    ;  uncertainty k = 0.241363
        39        33        34        64     9        0.000000        0.630498         3    ;  uncertainty k = 0.202161
        39        33        34        64     9      180.000000        0.022235         4    ;  uncertainty k = 0.076468
        39        33        34        65     9        0.000000       -0.740047         1    ;  uncertainty k = 0.410287
        39        33        34        65     9      180.000000       -0.024654         2    ;  uncertainty k = 0.241363
        39        33        34        65     9        0.000000        0.630498         3    ;  uncertainty k = 0.202161
        39        33        34        65     9      180.000000        0.022235         4    ;  uncertainty k = 0.076468
        39        38        37        69     9        0.000000       -1.505040         1    ;  uncertainty k = 0.251547
        39        38        37        69     9      180.000000       -0.124273         2    ;  uncertainty k = 0.412484
        39        38        37        69     9        0.000000        0.633101         3    ;  uncertainty k = 0.120487
        39        38        37        69     9      180.000000        0.076744         4    ;  uncertainty k = 0.164472
        39        38        37        70     9        0.000000       -1.505040         1    ;  uncertainty k = 0.251547
        39        38        37        70     9      180.000000       -0.124273         2    ;  uncertainty k = 0.412484
        39        38        37        70     9        0.000000        0.633101         3    ;  uncertainty k = 0.120487
        39        38        37        70     9      180.000000        0.076744         4    ;  uncertainty k = 0.164472
        40        32        31        44     9        0.000000        0.018645         1    ;  uncertainty k = 0.708958
        40        32        31        44     9      180.000000       14.722027         2    ;  uncertainty k = 0.902507
        40        32        31        44     9        0.000000        1.294902         3    ;  uncertainty k = 0.597718
        40        32        31        44     9      180.000000        1.106585         4    ;  uncertainty k = 0.564667
        43        35        34        64     9        0.000000        0.348097         1    ;  uncertainty k = 0.447176
        43        35        34        64     9      180.000000       -0.851337         2    ;  uncertainty k = 0.311957
        43        35        34        64     9        0.000000        1.204142         3    ;  uncertainty k = 0.144007
        43        35        34        64     9      180.000000        0.096041         4    ;  uncertainty k = 0.101433
        43        35        34        65     9        0.000000        0.348097         1    ;  uncertainty k = 0.447176
        43        35        34        65     9      180.000000       -0.851337         2    ;  uncertainty k = 0.311957
        43        35        34        65     9        0.000000        1.204142         3    ;  uncertainty k = 0.144007
        43        35        34        65     9      180.000000        0.096041         4    ;  uncertainty k = 0.101433
        43        35        36        67     9        0.000000        0.439589         1    ;  uncertainty k = 0.629587
        43        35        36        67     9      180.000000       -1.005087         2    ;  uncertainty k = 0.173890
        43        35        36        67     9        0.000000        1.027237         3    ;  uncertainty k = 0.285939
        43        35        36        67     9      180.000000        0.049461         4    ;  uncertainty k = 0.064409
        43        35        36        68     9        0.000000        0.439589         1    ;  uncertainty k = 0.629587
        43        35        36        68     9      180.000000       -1.005087         2    ;  uncertainty k = 0.173890
        43        35        36        68     9        0.000000        1.027237         3    ;  uncertainty k = 0.285939
        43        35        36        68     9      180.000000        0.049461         4    ;  uncertainty k = 0.064409
        44        31        30        63     9        0.000000       -0.084976         1    ;  uncertainty k = 0.447885
        44        31        30        63     9      180.000000        8.984435         2    ;  uncertainty k = 0.531934
        44        31        30        63     9        0.000000        0.702210         3    ;  uncertainty k = 0.206250
        44        31        30        63     9      180.000000        0.910944         4    ;  uncertainty k = 0.158289
        47        12        19        52     9        0.000000       -1.423010         1    ;  uncertainty k = 0.616460
        47        12        19        52     9      180.000000        1.515703         2    ;  uncertainty k = 1.087822
        47        12        19        52     9        0.000000        0.256622         3    ;  uncertainty k = 0.208318
        47        12        19        52     9      180.000000       -0.095640         4    ;  uncertainty k = 0.130121
        47        12        20        53     9        0.000000       -1.423010         1    ;  uncertainty k = 0.616460
        47        12        20        53     9      180.000000        1.515703         2    ;  uncertainty k = 1.087822
        47        12        20        53     9        0.000000        0.256622         3    ;  uncertainty k = 0.208318
        47        12        20        53     9      180.000000       -0.095640         4    ;  uncertainty k = 0.130121
        50        18        19        52     9        0.000000       -0.439454         1    ;  uncertainty k = 0.906270
        50        18        19        52     9      180.000000        0.487195         2    ;  uncertainty k = 0.479541
        50        18        19        52     9        0.000000        0.253527         3    ;  uncertainty k = 0.175912
        50        18        19        52     9      180.000000       -0.139844         4    ;  uncertainty k = 0.167927
        51        18        19        52     9        0.000000       -0.439454         1    ;  uncertainty k = 0.906270
        51        18        19        52     9      180.000000        0.487195         2    ;  uncertainty k = 0.479541
        51        18        19        52     9        0.000000        0.253527         3    ;  uncertainty k = 0.175912
        51        18        19        52     9      180.000000       -0.139844         4    ;  uncertainty k = 0.167927
        52        19        12        76     9        0.000000       -1.423010         1    ;  uncertainty k = 0.616460
        52        19        12        76     9      180.000000        1.515703         2    ;  uncertainty k = 1.087822
        52        19        12        76     9        0.000000        0.256622         3    ;  uncertainty k = 0.208318
        52        19        12        76     9      180.000000       -0.095640         4    ;  uncertainty k = 0.130121
        52        19        23        58     9        0.000000        1.228961         1    ;  uncertainty k = 0.553312
        52        19        23        58     9      180.000000       -0.001863         2    ;  uncertainty k = 0.239275
        52        19        23        58     9        0.000000        0.353228         3    ;  uncertainty k = 0.286862
        52        19        23        58     9      180.000000        0.045306         4    ;  uncertainty k = 0.112735
        52        19        23        59     9        0.000000        1.228961         1    ;  uncertainty k = 0.553312
        52        19        23        59     9      180.000000       -0.001863         2    ;  uncertainty k = 0.239275
        52        19        23        59     9        0.000000        0.353228         3    ;  uncertainty k = 0.286862
        52        19        23        59     9      180.000000        0.045306         4    ;  uncertainty k = 0.112735
        53        20        12        76     9        0.000000       -1.423010         1    ;  uncertainty k = 0.616460
        53        20        12        76     9      180.000000        1.515703         2    ;  uncertainty k = 1.087822
        53        20        12        76     9        0.000000        0.256622         3    ;  uncertainty k = 0.208318
        53        20        12        76     9      180.000000       -0.095640         4    ;  uncertainty k = 0.130121
        53        20        21        54     9        0.000000       -0.439454         1    ;  uncertainty k = 0.906270
        53        20        21        54     9      180.000000        0.487195         2    ;  uncertainty k = 0.479541
        53        20        21        54     9        0.000000        0.253527         3    ;  uncertainty k = 0.175912
        53        20        21        54     9      180.000000       -0.139844         4    ;  uncertainty k = 0.167927
        53        20        21        55     9        0.000000       -0.439454         1    ;  uncertainty k = 0.906270
        53        20        21        55     9      180.000000        0.487195         2    ;  uncertainty k = 0.479541
        53        20        21        55     9        0.000000        0.253527         3    ;  uncertainty k = 0.175912
        53        20        21        55     9      180.000000       -0.139844         4    ;  uncertainty k = 0.167927
        53        20        22        56     9        0.000000        1.228961         1    ;  uncertainty k = 0.553312
        53        20        22        56     9      180.000000       -0.001863         2    ;  uncertainty k = 0.239275
        53        20        22        56     9        0.000000        0.353228         3    ;  uncertainty k = 0.286862
        53        20        22        56     9      180.000000        0.045306         4    ;  uncertainty k = 0.112735
        53        20        22        57     9        0.000000        1.228961         1    ;  uncertainty k = 0.553312
        53        20        22        57     9      180.000000       -0.001863         2    ;  uncertainty k = 0.239275
        53        20        22        57     9        0.000000        0.353228         3    ;  uncertainty k = 0.286862
        53        20        22        57     9      180.000000        0.045306         4    ;  uncertainty k = 0.112735
        56        22        23        58     9        0.000000        1.361375         1    ;  uncertainty k = 0.592307
        56        22        23        58     9      180.000000       -0.075431         2    ;  uncertainty k = 0.471152
        56        22        23        58     9        0.000000        1.070581         3    ;  uncertainty k = 0.228523
        56        22        23        58     9      180.000000        0.077192         4    ;  uncertainty k = 0.031932
        56        22        23        59     9        0.000000        1.361375         1    ;  uncertainty k = 0.592307
        56        22        23        59     9      180.000000       -0.075431         2    ;  uncertainty k = 0.471152
        56        22        23        59     9        0.000000        1.070581         3    ;  uncertainty k = 0.228523
        56        22        23        59     9      180.000000        0.077192         4    ;  uncertainty k = 0.031932
        57        22        23        58     9        0.000000        1.361375         1    ;  uncertainty k = 0.592307
        57        22        23        58     9      180.000000       -0.075431         2    ;  uncertainty k = 0.471152
        57        22        23        58     9        0.000000        1.070581         3    ;  uncertainty k = 0.228523
        57        22        23        58     9      180.000000        0.077192         4    ;  uncertainty k = 0.031932
        57        22        23        59     9        0.000000        1.361375         1    ;  uncertainty k = 0.592307
        57        22        23        59     9      180.000000       -0.075431         2    ;  uncertainty k = 0.471152
        57        22        23        59     9        0.000000        1.070581         3    ;  uncertainty k = 0.228523
        57        22        23        59     9      180.000000        0.077192         4    ;  uncertainty k = 0.031932
        62        29        30        63     9        0.000000        0.005911         1    ;  uncertainty k = 0.229803
        62        29        30        63     9      180.000000        8.645614         2    ;  uncertainty k = 0.433520
        62        29        30        63     9        0.000000       -0.281904         3    ;  uncertainty k = 0.311848
        62        29        30        63     9      180.000000        0.215900         4    ;  uncertainty k = 0.238166
        64        34        35        66     9        0.000000        0.658717         1    ;  uncertainty k = 0.774984
        64        34        35        66     9      180.000000       -0.273207         2    ;  uncertainty k = 0.164962
        64        34        35        66     9        0.000000        0.711463         3    ;  uncertainty k = 0.107578
        64        34        35        66     9      180.000000        0.126313         4    ;  uncertainty k = 0.070131
        65        34        35        66     9        0.000000        0.658717         1    ;  uncertainty k = 0.774984
        65        34        35        66     9      180.000000       -0.273207         2    ;  uncertainty k = 0.164962
        65        34        35        66     9        0.000000        0.711463         3    ;  uncertainty k = 0.107578
        65        34        35        66     9      180.000000        0.126313         4    ;  uncertainty k = 0.070131
        66        35        36        67     9        0.000000        0.100408         1    ;  uncertainty k = 0.231069
        66        35        36        67     9      180.000000       -0.495488         2    ;  uncertainty k = 0.217883
        66        35        36        67     9        0.000000        0.589146         3    ;  uncertainty k = 0.139819
        66        35        36        67     9      180.000000        0.148881         4    ;  uncertainty k = 0.094939
        66        35        36        68     9        0.000000        0.100408         1    ;  uncertainty k = 0.231069
        66        35        36        68     9      180.000000       -0.495488         2    ;  uncertainty k = 0.217883
        66        35        36        68     9        0.000000        0.589146         3    ;  uncertainty k = 0.139819
        66        35        36        68     9      180.000000        0.148881         4    ;  uncertainty k = 0.094939
        67        36        14        77     9        0.000000        0.456024         1    ;  uncertainty k = 0.547609
        67        36        14        77     9      180.000000       -0.689750         2    ;  uncertainty k = 0.168360
        67        36        14        77     9        0.000000        0.413910         3    ;  uncertainty k = 0.150476
        67        36        14        77     9      180.000000        0.128154         4    ;  uncertainty k = 0.042437
        68        36        14        77     9        0.000000        0.456024         1    ;  uncertainty k = 0.547609
        68        36        14        77     9      180.000000       -0.689750         2    ;  uncertainty k = 0.168360
        68        36        14        77     9        0.000000        0.413910         3    ;  uncertainty k = 0.150476
        68        36        14        77     9      180.000000        0.128154         4    ;  uncertainty k = 0.042437
        69        37        14        77     9        0.000000        0.454366         1    ;  uncertainty k = 0.372926
        69        37        14        77     9      180.000000       -0.609749         2    ;  uncertainty k = 0.186274
        69        37        14        77     9        0.000000        0.461123         3    ;  uncertainty k = 0.126286
        69        37        14        77     9      180.000000        0.133248         4    ;  uncertainty k = 0.070372
        69        37        38        71     9        0.000000        0.687508         1    ;  uncertainty k = 0.278541
        69        37        38        71     9      180.000000       -0.200380         2    ;  uncertainty k = 0.335904
        69        37        38        71     9        0.000000        0.639698         3    ;  uncertainty k = 0.146670
        69        37        38        71     9      180.000000        0.083502         4    ;  uncertainty k = 0.078470
        69        37        38        72     9        0.000000        0.687508         1    ;  uncertainty k = 0.278541
        69        37        38        72     9      180.000000       -0.200380         2    ;  uncertainty k = 0.335904
        69        37        38        72     9        0.000000        0.639698         3    ;  uncertainty k = 0.146670
        69        37        38        72     9      180.000000        0.083502         4    ;  uncertainty k = 0.078470
        70        37        14        77     9        0.000000        0.454366         1    ;  uncertainty k = 0.372926
        70        37        14        77     9      180.000000       -0.609749         2    ;  uncertainty k = 0.186274
        70        37        14        77     9        0.000000        0.461123         3    ;  uncertainty k = 0.126286
        70        37        14        77     9      180.000000        0.133248         4    ;  uncertainty k = 0.070372
        70        37        38        71     9        0.000000        0.687508         1    ;  uncertainty k = 0.278541
        70        37        38        71     9      180.000000       -0.200380         2    ;  uncertainty k = 0.335904
        70        37        38        71     9        0.000000        0.639698         3    ;  uncertainty k = 0.146670
        70        37        38        71     9      180.000000        0.083502         4    ;  uncertainty k = 0.078470
        70        37        38        72     9        0.000000        0.687508         1    ;  uncertainty k = 0.278541
        70        37        38        72     9      180.000000       -0.200380         2    ;  uncertainty k = 0.335904
        70        37        38        72     9        0.000000        0.639698         3    ;  uncertainty k = 0.146670
        70        37        38        72     9      180.000000        0.083502         4    ;  uncertainty k = 0.078470
        71        38        39        73     9        0.000000        1.247081         1    ;  uncertainty k = 0.383884
        71        38        39        73     9      180.000000       -0.045480         2    ;  uncertainty k = 0.119907
        71        38        39        73     9        0.000000        0.748786         3    ;  uncertainty k = 0.078538
        71        38        39        73     9      180.000000        0.077516         4    ;  uncertainty k = 0.057380
        71        38        39        74     9        0.000000        1.247081         1    ;  uncertainty k = 0.383884
        71        38        39        74     9      180.000000       -0.045480         2    ;  uncertainty k = 0.119907
        71        38        39        74     9        0.000000        0.748786         3    ;  uncertainty k = 0.078538
        71        38        39        74     9      180.000000        0.077516         4    ;  uncertainty k = 0.057380
        72        38        39        73     9        0.000000        1.247081         1    ;  uncertainty k = 0.383884
        72        38        39        73     9      180.000000       -0.045480         2    ;  uncertainty k = 0.119907
        72        38        39        73     9        0.000000        0.748786         3    ;  uncertainty k = 0.078538
        72        38        39        73     9      180.000000        0.077516         4    ;  uncertainty k = 0.057380
        72        38        39        74     9        0.000000        1.247081         1    ;  uncertainty k = 0.383884
        72        38        39        74     9      180.000000       -0.045480         2    ;  uncertainty k = 0.119907
        72        38        39        74     9        0.000000        0.748786         3    ;  uncertainty k = 0.078538
        72        38        39        74     9      180.000000        0.077516         4    ;  uncertainty k = 0.057380

[ dihedrals ] ; impropers
;       ai        aj        ak        al funct           phase               k        pn
         1         4         9        11     4      180.000000        6.148938         2    ;  uncertainty k = 0.251367
         1         9        11         4     4      180.000000        6.148938         2    ;  uncertainty k = 0.251367
         1        11         4         9     4      180.000000        6.148938         2    ;  uncertainty k = 0.251367
         4         1         2        15     4      180.000000       18.928695         2    ;  uncertainty k = 0.136217
         4         2        15         1     4      180.000000       18.928695         2    ;  uncertainty k = 0.136217
         4        15         1         2     4      180.000000       18.928695         2    ;  uncertainty k = 0.136217
         7         2         3         5     4      180.000000       41.196882         2    ;  uncertainty k = 0.078549
         7         3         5         2     4      180.000000       41.196882         2    ;  uncertainty k = 0.078549
         7         5         2         3     4      180.000000       41.196882         2    ;  uncertainty k = 0.078549
         9         1         5        10     4      180.000000       34.127777         2    ;  uncertainty k = 0.152435
         9         5        10         1     4      180.000000       34.127777         2    ;  uncertainty k = 0.152435
         9        10         1         5     4      180.000000       34.127777         2    ;  uncertainty k = 0.152435
        11         1         8        46     4      180.000000       14.739565         2    ;  uncertainty k = 0.105740
        11         8        46         1     4      180.000000       14.739565         2    ;  uncertainty k = 0.105740
        11        46         1         8     4      180.000000       14.739565         2    ;  uncertainty k = 0.105740
        13         8        15        16     4      180.000000       23.463047         2    ;  uncertainty k = 0.064662
        13        15        16         8     4      180.000000       23.463047         2    ;  uncertainty k = 0.064662
        13        16         8        15     4      180.000000       23.463047         2    ;  uncertainty k = 0.064662
        15         4        13        42     4      180.000000       13.038237         2    ;  uncertainty k = 0.171713
        15        13        42         4     4      180.000000       13.038237         2    ;  uncertainty k = 0.171713
        15        42         4        13     4      180.000000       13.038237         2    ;  uncertainty k = 0.171713
        16        13        24        28     4      180.000000       14.292689         2    ;  uncertainty k = 0.182349
        16        24        28        13     4      180.000000       14.292689         2    ;  uncertainty k = 0.182349
        16        28        13        24     4      180.000000       14.292689         2    ;  uncertainty k = 0.182349
        24        16        25        60     4      180.000000        2.564673         2    ;  uncertainty k = 0.531243
        24        25        60        16     4      180.000000        2.564673         2    ;  uncertainty k = 0.531243
        24        60        16        25     4      180.000000        2.564673         2    ;  uncertainty k = 0.531243
        25         6        24        26     4      180.000000       18.409649         2    ;  uncertainty k = 0.062050
        25        24        26         6     4      180.000000       18.409649         2    ;  uncertainty k = 0.062050
        25        26         6        24     4      180.000000       18.409649         2    ;  uncertainty k = 0.062050
        26        25        27        61     4      180.000000        2.030146         2    ;  uncertainty k = 0.254814
        26        27        61        25     4      180.000000        2.030146         2    ;  uncertainty k = 0.254814
        26        61        25        27     4      180.000000        2.030146         2    ;  uncertainty k = 0.254814
        27        26        28        29     4      180.000000        9.031844         2    ;  uncertainty k = 0.426292
        27        28        29        26     4      180.000000        9.031844         2    ;  uncertainty k = 0.426292
        27        29        26        28     4      180.000000        9.031844         2    ;  uncertainty k = 0.426292
        28        16        27        32     4      180.000000       14.195704         2    ;  uncertainty k = 0.101939
        28        27        32        16     4      180.000000       14.195704         2    ;  uncertainty k = 0.101939
        28        32        16        27     4      180.000000       14.195704         2    ;  uncertainty k = 0.101939
        29        27        30        62     4      180.000000        4.174294         2    ;  uncertainty k = 0.217254
        29        30        62        27     4      180.000000        4.174294         2    ;  uncertainty k = 0.217254
        29        62        27        30     4      180.000000        4.174294         2    ;  uncertainty k = 0.217254
        30        29        31        63     4      180.000000        1.833306         2    ;  uncertainty k = 0.294276
        30        31        63        29     4      180.000000        1.833306         2    ;  uncertainty k = 0.294276
        30        63        29        31     4      180.000000        1.833306         2    ;  uncertainty k = 0.294276
        31        30        32        44     4      180.000000       16.110487         2    ;  uncertainty k = 0.026816
        31        32        44        30     4      180.000000       16.110487         2    ;  uncertainty k = 0.026816
        31        44        30        32     4      180.000000       16.110487         2    ;  uncertainty k = 0.026816
        32        28        31        40     4      180.000000       12.892843         2    ;  uncertainty k = 0.094431
        32        31        40        28     4      180.000000       12.892843         2    ;  uncertainty k = 0.094431
        32        40        28        31     4      180.000000       12.892843         2    ;  uncertainty k = 0.094431

[ pairs ]
;       ai        aj funct
         1         7     1
         1        13     1
         1        18     1
         1        21     1
         1        42     1
         2         9     1
         2        11     1
         2        13     1
         2        17     1
         2        42     1
         3         4     1
         3         9     1
         3        14     1
         3        34     1
         3        39     1
         4         5     1
         4         8     1
         4        10     1
         4        16     1
         4        46     1
         5        11     1
         5        17     1
         5        18     1
         5        21     1
         6        16     1
         6        27     1
         6        60     1
         6        61     1
         7        10     1
         7        15     1
         7        33     1
         7        48     1
         7        49     1
         8         9     1
         8        24     1
         8        28     1
         8        42     1
         9        15     1
         9        19     1
         9        20     1
         9        46     1
         9        50     1
         9        51     1
         9        54     1
         9        55     1
        10        11     1
        10        12     1
        10        22     1
        10        23     1
        10        52     1
        10        53     1
        11        15     1
        11        16     1
        12        50     1
        12        51     1
        12        54     1
        12        55     1
        12        56     1
        12        57     1
        12        58     1
        12        59     1
        13        25     1
        13        27     1
        13        32     1
        13        46     1
        13        60     1
        14        43     1
        14        48     1
        14        49     1
        14        64     1
        14        65     1
        14        66     1
        14        71     1
        14        72     1
        14        73     1
        14        74     1
        15        24     1
        15        28     1
        16        26     1
        16        29     1
        16        31     1
        16        40     1
        16        42     1
        17        35     1
        17        36     1
        17        37     1
        17        38     1
        17        64     1
        17        65     1
        17        73     1
        17        74     1
        17        77     1
        18        20     1
        18        22     1
        18        47     1
        18        54     1
        18        55     1
        18        58     1
        18        59     1
        18        76     1
        19        21     1
        19        53     1
        19        56     1
        19        57     1
        20        52     1
        20        58     1
        20        59     1
        21        23     1
        21        47     1
        21        50     1
        21        51     1
        21        56     1
        21        57     1
        21        76     1
        22        47     1
        22        52     1
        22        54     1
        22        55     1
        22        76     1
        23        47     1
        23        50     1
        23        51     1
        23        53     1
        23        76     1
        24        27     1
        24        32     1
        24        45     1
        24        61     1
        25        28     1
        25        29     1
        26        30     1
        26        32     1
        26        45     1
        26        60     1
        26        62     1
        27        31     1
        27        40     1
        27        63     1
        28        30     1
        28        41     1
        28        44     1
        28        60     1
        28        61     1
        28        62     1
        29        32     1
        29        44     1
        29        61     1
        30        40     1
        31        41     1
        31        62     1
        32        63     1
        32        75     1
        33        43     1
        33        66     1
        33        67     1
        33        68     1
        33        69     1
        33        70     1
        33        71     1
        33        72     1
        34        37     1
        34        38     1
        34        48     1
        34        49     1
        34        67     1
        34        68     1
        34        73     1
        34        74     1
        34        77     1
        35        37     1
        35        39     1
        35        77     1
        36        38     1
        36        39     1
        36        64     1
        36        65     1
        36        69     1
        36        70     1
        37        67     1
        37        68     1
        37        73     1
        37        74     1
        38        77     1
        39        48     1
        39        49     1
        39        64     1
        39        65     1
        39        69     1
        39        70     1
        39        77     1
        40        44     1
        43        64     1
        43        65     1
        43        67     1
        43        68     1
        44        63     1
        47        52     1
        47        53     1
        50        52     1
        51        52     1
        52        58     1
        52        59     1
        52        76     1
        53        54     1
        53        55     1
        53        56     1
        53        57     1
        53        76     1
        56        58     1
        56        59     1
        57        58     1
        57        59     1
        62        63     1
        64        66     1
        65        66     1
        66        67     1
        66        68     1
        67        77     1
        68        77     1
        69        71     1
        69        72     1
        69        77     1
        70        71     1
        70        72     1
        70        77     1
        71        73     1
        71        74     1
        72        73     1
        72        74     1
