; ITP file created by ByteFF-joint-25, 2026-01-07 07:36:40.495901

[ atomtypes ]
;name           bonded.type        at.num        mass        charge   ptype           sigma         epsilon
 c0bf                                   6      0.0000       0.00000       A     3.31609e-01     4.13754e-01    ;  uncertainty sigma = 0.000037, epsilon = 0.001385
 c1bf                                   6      0.0000       0.00000       A     3.31530e-01     4.12842e-01    ;  uncertainty sigma = 0.000034, epsilon = 0.000988
 n2bf                                   7      0.0000       0.00000       A     3.38379e-01     3.93387e-01    ;  uncertainty sigma = 0.000023, epsilon = 0.000836
 o3bf                                   8      0.0000       0.00000       A     3.15717e-01     3.04039e-01    ;  uncertainty sigma = 0.000030, epsilon = 0.003724
 c4bf                                   6      0.0000       0.00000       A     3.31558e-01     4.13067e-01    ;  uncertainty sigma = 0.000015, epsilon = 0.001937
 c5bf                                   6      0.0000       0.00000       A     3.31536e-01     4.12755e-01    ;  uncertainty sigma = 0.000014, epsilon = 0.001148
 n6bf                                   7      0.0000       0.00000       A     3.38414e-01     3.93806e-01    ;  uncertainty sigma = 0.000029, epsilon = 0.000903
 c7bf                                   6      0.0000       0.00000       A     3.31540e-01     4.14420e-01    ;  uncertainty sigma = 0.000020, epsilon = 0.000938
 c8bf                                   6      0.0000       0.00000       A     3.39749e-01     4.50218e-01    ;  uncertainty sigma = 0.000008, epsilon = 0.000680
 n9bf                                   7      0.0000       0.00000       A     3.38425e-01     3.93667e-01    ;  uncertainty sigma = 0.000012, epsilon = 0.000919
 c10bf                                  6      0.0000       0.00000       A     3.31572e-01     4.13781e-01    ;  uncertainty sigma = 0.000022, epsilon = 0.001282
 c11bf                                  6      0.0000       0.00000       A     3.39781e-01     4.51950e-01    ;  uncertainty sigma = 0.000028, epsilon = 0.002002
 n12bf                                  7      0.0000       0.00000       A     3.19092e-01     8.99502e-01    ;  uncertainty sigma = 0.000028, epsilon = 0.008757
 c13bf                                  6      0.0000       0.00000       A     3.31514e-01     4.12966e-01    ;  uncertainty sigma = 0.000024, epsilon = 0.001054
 c14bf                                  6      0.0000       0.00000       A     3.39731e-01     4.47703e-01    ;  uncertainty sigma = 0.000049, epsilon = 0.003351
 n15bf                                  7      0.0000       0.00000       A     2.67683e-01     7.09588e+00    ;  uncertainty sigma = 0.000108, epsilon = 0.014793
 c16bf                                  6      0.0000       0.00000       A     3.31534e-01     4.13044e-01    ;  uncertainty sigma = 0.000009, epsilon = 0.001031
 n17bf                                  7      0.0000       0.00000       A     2.58910e-01     1.06608e+01    ;  uncertainty sigma = 0.000158, epsilon = 0.005288
 c18bf                                  6      0.0000       0.00000       A     3.31549e-01     4.12859e-01    ;  uncertainty sigma = 0.000017, epsilon = 0.000429
 c19bf                                  6      0.0000       0.00000       A     3.31521e-01     4.13255e-01    ;  uncertainty sigma = 0.000015, epsilon = 0.001410
 c20bf                                  6      0.0000       0.00000       A     3.39606e-01     4.50330e-01    ;  uncertainty sigma = 0.000116, epsilon = 0.001780
 c21bf                                  6      0.0000       0.00000       A     3.39764e-01     4.51773e-01    ;  uncertainty sigma = 0.000031, epsilon = 0.001688
 c22bf                                  6      0.0000       0.00000       A     3.39827e-01     4.49600e-01    ;  uncertainty sigma = 0.000034, epsilon = 0.001832
 c23bf                                  6      0.0000       0.00000       A     3.39827e-01     4.49600e-01    ;  uncertainty sigma = 0.000034, epsilon = 0.001832
 c24bf                                  6      0.0000       0.00000       A     3.39764e-01     4.51773e-01    ;  uncertainty sigma = 0.000031, epsilon = 0.001688
 c25bf                                  6      0.0000       0.00000       A     3.39736e-01     4.50291e-01    ;  uncertainty sigma = 0.000017, epsilon = 0.001100
 c26bf                                  6      0.0000       0.00000       A     3.39736e-01     4.50291e-01    ;  uncertainty sigma = 0.000017, epsilon = 0.001100
 c27bf                                  6      0.0000       0.00000       A     3.31519e-01     4.13286e-01    ;  uncertainty sigma = 0.000006, epsilon = 0.000571
 c28bf                                  6      0.0000       0.00000       A     3.31521e-01     4.13372e-01    ;  uncertainty sigma = 0.000006, epsilon = 0.000552
 c29bf                                  6      0.0000       0.00000       A     3.31526e-01     4.12973e-01    ;  uncertainty sigma = 0.000009, epsilon = 0.000709
 c30bf                                  6      0.0000       0.00000       A     3.39766e-01     4.50215e-01    ;  uncertainty sigma = 0.000031, epsilon = 0.002322
 c31bf                                  6      0.0000       0.00000       A     3.39798e-01     4.50987e-01    ;  uncertainty sigma = 0.000021, epsilon = 0.000717
 c32bf                                  6      0.0000       0.00000       A     3.39806e-01     4.50159e-01    ;  uncertainty sigma = 0.000037, epsilon = 0.001448
 c33bf                                  6      0.0000       0.00000       A     3.39826e-01     4.50989e-01    ;  uncertainty sigma = 0.000014, epsilon = 0.001563
 c34bf                                  6      0.0000       0.00000       A     3.39760e-01     4.51588e-01    ;  uncertainty sigma = 0.000017, epsilon = 0.001104
 c35bf                                  6      0.0000       0.00000       A     3.39752e-01     4.50838e-01    ;  uncertainty sigma = 0.000045, epsilon = 0.001063
 c36bf                                  6      0.0000       0.00000       A     3.39760e-01     4.50289e-01    ;  uncertainty sigma = 0.000031, epsilon = 0.000708
 c37bf                                  6      0.0000       0.00000       A     3.39746e-01     4.49605e-01    ;  uncertainty sigma = 0.000050, epsilon = 0.001522
 f38bf                                  9      0.0000       0.00000       A     3.03338e-01     3.48621e-01    ;  uncertainty sigma = 0.000031, epsilon = 0.001865
 f39bf                                  9      0.0000       0.00000       A     3.03453e-01     3.48209e-01    ;  uncertainty sigma = 0.000041, epsilon = 0.002505
 h40bf                                  1      0.0000       0.00000       A     2.62566e-01     6.67351e-02    ;  uncertainty sigma = 0.000015, epsilon = 0.000341
 h41bf                                  1      0.0000       0.00000       A     2.53623e-01     6.70308e-02    ;  uncertainty sigma = 0.000068, epsilon = 0.000562
 h42bf                                  1      0.0000       0.00000       A     1.10717e-01     3.90827e-02    ;  uncertainty sigma = 0.000124, epsilon = 0.002380
 h43bf                                  1      0.0000       0.00000       A     2.42234e-01     8.69301e-02    ;  uncertainty sigma = 0.000073, epsilon = 0.001078
 h44bf                                  1      0.0000       0.00000       A     2.42234e-01     8.69301e-02    ;  uncertainty sigma = 0.000073, epsilon = 0.001078
 h45bf                                  1      0.0000       0.00000       A     2.42256e-01     8.68712e-02    ;  uncertainty sigma = 0.000054, epsilon = 0.000742
 h46bf                                  1      0.0000       0.00000       A     2.42256e-01     8.68712e-02    ;  uncertainty sigma = 0.000054, epsilon = 0.000742
 h47bf                                  1      0.0000       0.00000       A     1.88892e-01     8.79018e-02    ;  uncertainty sigma = 0.000675, epsilon = 0.002116
 h48bf                                  1      0.0000       0.00000       A     1.88892e-01     8.79018e-02    ;  uncertainty sigma = 0.000675, epsilon = 0.002116
 h49bf                                  1      0.0000       0.00000       A     2.42256e-01     8.68712e-02    ;  uncertainty sigma = 0.000054, epsilon = 0.000742
 h50bf                                  1      0.0000       0.00000       A     2.42256e-01     8.68712e-02    ;  uncertainty sigma = 0.000054, epsilon = 0.000742
 h51bf                                  1      0.0000       0.00000       A     2.60051e-01     8.66631e-02    ;  uncertainty sigma = 0.000008, epsilon = 0.001058
 h52bf                                  1      0.0000       0.00000       A     2.60051e-01     8.66631e-02    ;  uncertainty sigma = 0.000008, epsilon = 0.001058
 h53bf                                  1      0.0000       0.00000       A     2.60051e-01     8.66631e-02    ;  uncertainty sigma = 0.000008, epsilon = 0.001058
 h54bf                                  1      0.0000       0.00000       A     2.60051e-01     8.66631e-02    ;  uncertainty sigma = 0.000008, epsilon = 0.001058
 h55bf                                  1      0.0000       0.00000       A     2.62568e-01     6.71894e-02    ;  uncertainty sigma = 0.000014, epsilon = 0.000434
 h56bf                                  1      0.0000       0.00000       A     2.62567e-01     6.70020e-02    ;  uncertainty sigma = 0.000013, epsilon = 0.000458
 h57bf                                  1      0.0000       0.00000       A     2.59911e-01     8.73186e-02    ;  uncertainty sigma = 0.000045, epsilon = 0.001270
 h58bf                                  1      0.0000       0.00000       A     2.59911e-01     8.73186e-02    ;  uncertainty sigma = 0.000045, epsilon = 0.001270
 h59bf                                  1      0.0000       0.00000       A     2.59981e-01     8.69645e-02    ;  uncertainty sigma = 0.000021, epsilon = 0.000707
 h60bf                                  1      0.0000       0.00000       A     2.59981e-01     8.69645e-02    ;  uncertainty sigma = 0.000021, epsilon = 0.000707
 h61bf                                  1      0.0000       0.00000       A     2.42224e-01     8.64288e-02    ;  uncertainty sigma = 0.000076, epsilon = 0.001445
 h62bf                                  1      0.0000       0.00000       A     1.88740e-01     8.59742e-02    ;  uncertainty sigma = 0.000146, epsilon = 0.001318
 h63bf                                  1      0.0000       0.00000       A     1.88740e-01     8.59742e-02    ;  uncertainty sigma = 0.000146, epsilon = 0.001318
 h64bf                                  1      0.0000       0.00000       A     1.88743e-01     8.53836e-02    ;  uncertainty sigma = 0.000048, epsilon = 0.000360
 h65bf                                  1      0.0000       0.00000       A     1.88743e-01     8.53836e-02    ;  uncertainty sigma = 0.000048, epsilon = 0.000360
 h66bf                                  1      0.0000       0.00000       A     2.59996e-01     8.64834e-02    ;  uncertainty sigma = 0.000020, epsilon = 0.000411
 h67bf                                  1      0.0000       0.00000       A     2.59996e-01     8.64834e-02    ;  uncertainty sigma = 0.000020, epsilon = 0.000411
 h68bf                                  1      0.0000       0.00000       A     2.60017e-01     8.67763e-02    ;  uncertainty sigma = 0.000029, epsilon = 0.000562
 h69bf                                  1      0.0000       0.00000       A     2.60017e-01     8.67763e-02    ;  uncertainty sigma = 0.000029, epsilon = 0.000562
 h70bf                                  1      0.0000       0.00000       A     2.60149e-01     8.73424e-02    ;  uncertainty sigma = 0.000106, epsilon = 0.002238
 h71bf                                  1      0.0000       0.00000       A     1.10718e-01     3.90827e-02    ;  uncertainty sigma = 0.000124, epsilon = 0.002380
 h72bf                                  1      0.0000       0.00000       A     1.10684e-01     4.10176e-02    ;  uncertainty sigma = 0.000227, epsilon = 0.004708
 h73bf                                  1      0.0000       0.00000       A     2.60028e-01     8.59472e-02    ;  uncertainty sigma = 0.000064, epsilon = 0.000883
 h74bf                                  1      0.0000       0.00000       A     2.60013e-01     8.68072e-02    ;  uncertainty sigma = 0.000030, epsilon = 0.000999
 h75bf                                  1      0.0000       0.00000       A     2.60013e-01     8.68072e-02    ;  uncertainty sigma = 0.000030, epsilon = 0.000999

[ moleculetype ]
;name             nrexcl
 MOL                   3

[ atoms ]
;       nr            type      resi   res      atom      cgnr      charge          mass ; qtot
         1            c0bf         1   UNL        c0         1    -0.39996       12.0110 ; qtot   -0.400
         2            c1bf         1   UNL        c1         2    -0.06266       12.0110 ; qtot   -0.463
         3            n2bf         1   UNL        n2         3    -0.74688       14.0070 ; qtot   -1.210
         4            o3bf         1   UNL        o3         4    -0.41359       15.9990 ; qtot   -1.623
         5            c4bf         1   UNL        c4         5     0.46751       12.0110 ; qtot   -1.156
         6            c5bf         1   UNL        c5         6    -0.04940       12.0110 ; qtot   -1.205
         7            n6bf         1   UNL        n6         7    -0.82134       14.0070 ; qtot   -2.026
         8            c7bf         1   UNL        c7         8     0.93489       12.0110 ; qtot   -1.091
         9            c8bf         1   UNL        c8         9    -0.00862       12.0110 ; qtot   -1.100
        10            n9bf         1   UNL        n9        10    -0.65883       14.0070 ; qtot   -1.759
        11           c10bf         1   UNL       c10        11     0.73686       12.0110 ; qtot   -1.022
        12           c11bf         1   UNL       c11        12    -0.12736       12.0110 ; qtot   -1.149
        13           n12bf         1   UNL       n12        13    -0.77286       14.0070 ; qtot   -1.922
        14           c13bf         1   UNL       c13        14     0.46015       12.0110 ; qtot   -1.462
        15           c14bf         1   UNL       c14        15    -0.09181       12.0110 ; qtot   -1.554
        16           n15bf         1   UNL       n15        16    -0.80074       14.0070 ; qtot   -2.355
        17           c16bf         1   UNL       c16        17     0.46075       12.0110 ; qtot   -1.894
        18           n17bf         1   UNL       n17        18    -0.73400       14.0070 ; qtot   -2.628
        19           c18bf         1   UNL       c18        19    -0.03897       12.0110 ; qtot   -2.667
        20           c19bf         1   UNL       c19        20    -0.13625       12.0110 ; qtot   -2.803
        21           c20bf         1   UNL       c20        21     0.14867       12.0110 ; qtot   -2.654
        22           c21bf         1   UNL       c21        22     0.19300       12.0110 ; qtot   -2.461
        23           c22bf         1   UNL       c22        23     0.14438       12.0110 ; qtot   -2.317
        24           c23bf         1   UNL       c23        24     0.14438       12.0110 ; qtot   -2.173
        25           c24bf         1   UNL       c24        25     0.19300       12.0110 ; qtot   -1.980
        26           c25bf         1   UNL       c25        26    -0.09656       12.0110 ; qtot   -2.076
        27           c26bf         1   UNL       c26        27    -0.09656       12.0110 ; qtot   -2.173
        28           c27bf         1   UNL       c27        28    -0.09626       12.0110 ; qtot   -2.269
        29           c28bf         1   UNL       c28        29    -0.13775       12.0110 ; qtot   -2.407
        30           c29bf         1   UNL       c29        30    -0.10552       12.0110 ; qtot   -2.512
        31           c30bf         1   UNL       c30        31     0.17096       12.0110 ; qtot   -2.341
        32           c31bf         1   UNL       c31        32    -0.12387       12.0110 ; qtot   -2.465
        33           c32bf         1   UNL       c32        33     0.16356       12.0110 ; qtot   -2.302
        34           c33bf         1   UNL       c33        34     0.11235       12.0110 ; qtot   -2.189
        35           c34bf         1   UNL       c34        35     0.14334       12.0110 ; qtot   -2.046
        36           c35bf         1   UNL       c35        36    -0.09536       12.0110 ; qtot   -2.141
        37           c36bf         1   UNL       c36        37    -0.09273       12.0110 ; qtot   -2.234
        38           c37bf         1   UNL       c37        38    -0.11606       12.0110 ; qtot   -2.350
        39           f38bf         1   UNL       f38        39    -0.10870       18.9980 ; qtot   -2.459
        40           f39bf         1   UNL       f39        40    -0.22526       18.9980 ; qtot   -2.684
        41           h40bf         1   UNL       h40        41     0.13581        1.0080 ; qtot   -2.548
        42           h41bf         1   UNL       h41        42     0.03470        1.0080 ; qtot   -2.514
        43           h42bf         1   UNL       h42        43     0.46548        1.0080 ; qtot   -2.048
        44           h43bf         1   UNL       h43        44     0.08997        1.0080 ; qtot   -1.958
        45           h44bf         1   UNL       h44        45     0.08997        1.0080 ; qtot   -1.868
        46           h45bf         1   UNL       h45        46     0.09669        1.0080 ; qtot   -1.771
        47           h46bf         1   UNL       h46        47     0.09669        1.0080 ; qtot   -1.675
        48           h47bf         1   UNL       h47        48     0.12687        1.0080 ; qtot   -1.548
        49           h48bf         1   UNL       h48        49     0.12687        1.0080 ; qtot   -1.421
        50           h49bf         1   UNL       h49        50     0.09669        1.0080 ; qtot   -1.324
        51           h50bf         1   UNL       h50        51     0.09669        1.0080 ; qtot   -1.228
        52           h51bf         1   UNL       h51        52     0.09820        1.0080 ; qtot   -1.129
        53           h52bf         1   UNL       h52        53     0.09820        1.0080 ; qtot   -1.031
        54           h53bf         1   UNL       h53        54     0.09820        1.0080 ; qtot   -0.933
        55           h54bf         1   UNL       h54        55     0.09820        1.0080 ; qtot   -0.835
        56           h55bf         1   UNL       h55        56     0.14391        1.0080 ; qtot   -0.691
        57           h56bf         1   UNL       h56        57     0.13528        1.0080 ; qtot   -0.556
        58           h57bf         1   UNL       h57        58     0.07552        1.0080 ; qtot   -0.480
        59           h58bf         1   UNL       h58        59     0.07552        1.0080 ; qtot   -0.405
        60           h59bf         1   UNL       h59        60     0.11159        1.0080 ; qtot   -0.293
        61           h60bf         1   UNL       h60        61     0.11159        1.0080 ; qtot   -0.181
        62           h61bf         1   UNL       h61        62     0.11302        1.0080 ; qtot   -0.068
        63           h62bf         1   UNL       h62        63     0.12148        1.0080 ; qtot    0.053
        64           h63bf         1   UNL       h63        64     0.12148        1.0080 ; qtot    0.175
        65           h64bf         1   UNL       h64        65     0.10586        1.0080 ; qtot    0.280
        66           h65bf         1   UNL       h65        66     0.10586        1.0080 ; qtot    0.386
        67           h66bf         1   UNL       h66        67     0.09445        1.0080 ; qtot    0.481
        68           h67bf         1   UNL       h67        68     0.09445        1.0080 ; qtot    0.575
        69           h68bf         1   UNL       h68        69     0.09419        1.0080 ; qtot    0.669
        70           h69bf         1   UNL       h69        70     0.09419        1.0080 ; qtot    0.764
        71           h70bf         1   UNL       h70        71     0.09769        1.0080 ; qtot    0.861
        72           h71bf         1   UNL       h71        72     0.46548        1.0080 ; qtot    1.327
        73           h72bf         1   UNL       h72        73     0.45477        1.0080 ; qtot    1.781
        74           h73bf         1   UNL       h73        74     0.09318        1.0080 ; qtot    1.875
        75           h74bf         1   UNL       h74        75     0.06269        1.0080 ; qtot    1.937
        76           h75bf         1   UNL       h75        76     0.06267        1.0080 ; qtot    2.000

[ bonds ]
;       ai        aj funct               r               k
         1         5     1        0.143065   479354.730664    ;  uncertainty r = 0.000210, k = 19.876784
         1        11     1        0.143984   362341.550391    ;  uncertainty r = 0.000299, k = 18.047099
         1        14     1        0.141863   373838.280420    ;  uncertainty r = 0.000083, k = 27.845294
         2         6     1        0.140476   341831.420996    ;  uncertainty r = 0.000109, k = 13.161283
         2        15     1        0.149051   244337.606885    ;  uncertainty r = 0.000103, k = 16.333499
         2        30     1        0.139453   366984.860840    ;  uncertainty r = 0.000057, k = 5.514353
         3         5     1        0.136188   419442.680176    ;  uncertainty r = 0.000150, k = 20.621687
         3         8     1        0.132546   399493.881982    ;  uncertainty r = 0.000085, k = 18.177902
         4         8     1        0.135693   306710.898438    ;  uncertainty r = 0.000236, k = 12.061293
         4        21     1        0.141542   257736.570654    ;  uncertainty r = 0.000296, k = 22.038382
         5        19     1        0.141351   366235.704199    ;  uncertainty r = 0.000143, k = 29.477197
         6         9     1        0.152203   243302.306934    ;  uncertainty r = 0.000126, k = 10.885725
         6        20     1        0.139947   339258.455078    ;  uncertainty r = 0.000090, k = 9.228533
         7         8     1        0.136972   410517.894580    ;  uncertainty r = 0.000209, k = 11.526559
         7        11     1        0.134153   486855.132910    ;  uncertainty r = 0.000475, k = 52.549853
         9        12     1        0.153162   209649.759570    ;  uncertainty r = 0.000047, k = 9.602388
         9        75     1        0.109667   309107.045410    ;  uncertainty r = 0.000051, k = 4.594540
         9        76     1        0.109667   309107.045410    ;  uncertainty r = 0.000051, k = 4.594540
        10        14     1        0.131666   379753.492139    ;  uncertainty r = 0.000116, k = 16.423525
        10        17     1        0.135863   354305.200830    ;  uncertainty r = 0.000247, k = 26.545669
        11        13     1        0.141100   334049.063525    ;  uncertainty r = 0.000263, k = 22.684729
        12        15     1        0.152874   199635.152295    ;  uncertainty r = 0.000086, k = 25.811463
        12        38     1        0.151018   213178.783789    ;  uncertainty r = 0.000123, k = 21.176252
        12        74     1        0.108639   311915.616699    ;  uncertainty r = 0.000060, k = 14.131537
        13        22     1        0.146717   282616.405908    ;  uncertainty r = 0.000141, k = 29.596490
        13        25     1        0.146717   282616.405908    ;  uncertainty r = 0.000141, k = 29.596490
        14        42     1        0.108819   333821.681104    ;  uncertainty r = 0.000029, k = 3.878828
        15        38     1        0.152141   204147.367993    ;  uncertainty r = 0.000067, k = 20.432351
        15        71     1        0.108613   310399.836035    ;  uncertainty r = 0.000099, k = 9.137260
        16        23     1        0.152813   214684.834814    ;  uncertainty r = 0.000144, k = 10.532025
        16        24     1        0.152813   214684.834814    ;  uncertainty r = 0.000144, k = 10.532025
        16        43     1        0.102746   394210.356201    ;  uncertainty r = 0.000084, k = 22.499263
        16        72     1        0.102746   394210.279590    ;  uncertainty r = 0.000084, k = 22.499217
        17        19     1        0.138888   342441.987744    ;  uncertainty r = 0.000117, k = 23.222676
        17        20     1        0.148004   272788.066309    ;  uncertainty r = 0.000112, k = 13.539918
        18        31     1        0.155440   185493.863062    ;  uncertainty r = 0.000371, k = 62.521970
        18        34     1        0.150479   223238.617285    ;  uncertainty r = 0.000141, k = 22.747989
        18        35     1        0.151322   221067.350098    ;  uncertainty r = 0.000178, k = 34.761636
        18        73     1        0.102591   390815.912549    ;  uncertainty r = 0.000170, k = 7.831097
        19        39     1        0.134154   335560.809326    ;  uncertainty r = 0.000026, k = 8.176120
        20        28     1        0.140526   346415.919482    ;  uncertainty r = 0.000127, k = 4.074029
        21        31     1        0.152478   192129.744775    ;  uncertainty r = 0.000154, k = 16.020389
        21        44     1        0.109399   312302.631592    ;  uncertainty r = 0.000057, k = 3.260239
        21        45     1        0.109399   312302.631592    ;  uncertainty r = 0.000057, k = 3.260239
        22        23     1        0.153389   209363.769482    ;  uncertainty r = 0.000246, k = 15.699741
        22        46     1        0.109512   306916.880762    ;  uncertainty r = 0.000054, k = 2.592167
        22        47     1        0.109512   306916.880762    ;  uncertainty r = 0.000054, k = 2.592167
        23        27     1        0.154170   203666.721289    ;  uncertainty r = 0.000096, k = 14.555239
        23        48     1        0.109104   316017.438281    ;  uncertainty r = 0.000091, k = 5.591607
        24        25     1        0.153389   209363.769482    ;  uncertainty r = 0.000246, k = 15.699741
        24        26     1        0.154170   203666.721289    ;  uncertainty r = 0.000096, k = 14.555239
        24        49     1        0.109104   316017.438281    ;  uncertainty r = 0.000091, k = 5.591607
        25        50     1        0.109512   306916.880762    ;  uncertainty r = 0.000054, k = 2.592167
        25        51     1        0.109512   306916.880762    ;  uncertainty r = 0.000054, k = 2.592167
        26        27     1        0.155765   216858.119434    ;  uncertainty r = 0.000150, k = 17.193911
        26        52     1        0.109186   310069.411377    ;  uncertainty r = 0.000038, k = 1.121843
        26        53     1        0.109186   310069.411377    ;  uncertainty r = 0.000038, k = 1.121843
        27        54     1        0.109186   310069.411377    ;  uncertainty r = 0.000038, k = 1.121843
        27        55     1        0.109186   310069.411377    ;  uncertainty r = 0.000038, k = 1.121843
        28        29     1        0.139603   364246.133545    ;  uncertainty r = 0.000062, k = 1.556062
        28        56     1        0.108683   333723.644141    ;  uncertainty r = 0.000032, k = 1.535299
        29        30     1        0.140037   367329.586279    ;  uncertainty r = 0.000085, k = 2.378433
        29        57     1        0.108810   333203.248926    ;  uncertainty r = 0.000019, k = 1.261250
        30        41     1        0.108896   335910.795410    ;  uncertainty r = 0.000063, k = 3.190795
        31        32     1        0.153836   201658.687305    ;  uncertainty r = 0.000119, k = 8.424143
        31        37     1        0.153842   200312.958252    ;  uncertainty r = 0.000116, k = 10.676445
        32        33     1        0.153418   216575.883301    ;  uncertainty r = 0.000134, k = 9.734911
        32        60     1        0.109225   309557.903076    ;  uncertainty r = 0.000049, k = 4.501173
        32        61     1        0.109225   309557.903076    ;  uncertainty r = 0.000049, k = 4.501173
        33        34     1        0.153110   224274.989795    ;  uncertainty r = 0.000237, k = 3.888646
        33        40     1        0.140470   290049.620020    ;  uncertainty r = 0.000244, k = 19.162413
        33        62     1        0.109153   312055.125928    ;  uncertainty r = 0.000039, k = 2.967546
        34        63     1        0.109010   315620.974658    ;  uncertainty r = 0.000068, k = 3.930497
        34        64     1        0.109010   315620.974658    ;  uncertainty r = 0.000068, k = 3.930497
        35        36     1        0.154091   226495.569141    ;  uncertainty r = 0.000118, k = 6.078971
        35        65     1        0.109032   312903.826221    ;  uncertainty r = 0.000044, k = 4.538202
        35        66     1        0.109032   312903.826221    ;  uncertainty r = 0.000044, k = 4.538202
        36        37     1        0.154653   221886.810400    ;  uncertainty r = 0.000111, k = 11.305459
        36        67     1        0.109199   311658.815527    ;  uncertainty r = 0.000012, k = 2.085787
        36        68     1        0.109199   311658.815527    ;  uncertainty r = 0.000012, k = 2.085787
        37        69     1        0.109263   307990.154395    ;  uncertainty r = 0.000017, k = 2.560164
        37        70     1        0.109263   307990.154395    ;  uncertainty r = 0.000017, k = 2.560164
        38        58     1        0.108737   313562.683643    ;  uncertainty r = 0.000034, k = 4.964319
        38        59     1        0.108737   313562.683643    ;  uncertainty r = 0.000034, k = 4.964319

[ angles ]
;       ai        aj        ak funct           theta             cth
         1         5         3     1      122.565292      577.067870    ;  uncertainty theta = 0.002467, k = 0.103302
         1         5        19     1      115.007431      382.828179    ;  uncertainty theta = 0.009273, k = 0.389772
         1        11         7     1      123.146286      524.777447    ;  uncertainty theta = 0.003526, k = 0.330096
         1        11        13     1      120.769066      459.954048    ;  uncertainty theta = 0.006455, k = 0.393069
         1        14        10     1      124.436142      691.365651    ;  uncertainty theta = 0.004438, k = 0.250964
         1        14        42     1      118.380714      255.245611    ;  uncertainty theta = 0.007156, k = 0.189327
         2         6         9     1      114.860916      545.251122    ;  uncertainty theta = 0.004000, k = 0.220012
         2         6        20     1      120.210182      441.623543    ;  uncertainty theta = 0.004502, k = 0.275146
         2        15        12     1      105.553818      456.334769    ;  uncertainty theta = 0.006151, k = 0.410184
         2        15        38     1      113.952309      343.423366    ;  uncertainty theta = 0.006600, k = 0.678176
         2        15        71     1      119.817673      228.709889    ;  uncertainty theta = 0.004358, k = 0.558657
         2        30        29     1      117.812477      535.799008    ;  uncertainty theta = 0.003352, k = 0.133673
         2        30        41     1      120.692810      280.094750    ;  uncertainty theta = 0.003477, k = 0.046816
         3         5        19     1      120.786880      449.225079    ;  uncertainty theta = 0.006433, k = 0.090240
         3         8         4     1      116.936462      557.966049    ;  uncertainty theta = 0.012083, k = 0.197542
         3         8         7     1      129.563202      744.255239    ;  uncertainty theta = 0.002879, k = 0.093993
         4         8         7     1      115.775780      567.111143    ;  uncertainty theta = 0.011292, k = 0.094910
         4        21        31     1      106.536636      550.831363    ;  uncertainty theta = 0.008312, k = 0.092146
         4        21        44     1      106.871071      434.187137    ;  uncertainty theta = 0.003828, k = 0.111649
         4        21        45     1      106.871071      434.187137    ;  uncertainty theta = 0.003828, k = 0.111649
         5         1        11     1      119.338600      424.768891    ;  uncertainty theta = 0.012618, k = 0.215877
         5         1        14     1      120.681068      440.331333    ;  uncertainty theta = 0.002337, k = 0.506311
         5         3         8     1      111.951370      428.598340    ;  uncertainty theta = 0.012264, k = 0.149890
         5        19        17     1      123.476807      428.022798    ;  uncertainty theta = 0.004509, k = 0.259084
         5        19        39     1      115.753433      442.635228    ;  uncertainty theta = 0.006553, k = 0.376840
         6         2        15     1      113.206093      519.104920    ;  uncertainty theta = 0.007368, k = 0.178949
         6         2        30     1      119.681190      418.795059    ;  uncertainty theta = 0.001677, k = 0.057630
         6         9        12     1      104.447716      672.925815    ;  uncertainty theta = 0.004400, k = 0.240295
         6         9        75     1      109.805504      380.704513    ;  uncertainty theta = 0.003438, k = 0.139398
         6         9        76     1      109.805504      380.704513    ;  uncertainty theta = 0.003438, k = 0.139398
         6        20        17     1      119.033875      367.366736    ;  uncertainty theta = 0.005900, k = 0.140887
         6        20        28     1      120.716507      429.137684    ;  uncertainty theta = 0.003215, k = 0.134568
         7        11        13     1      122.671585      669.625336    ;  uncertainty theta = 0.004829, k = 0.216895
         8         4        21     1      108.560646      499.385931    ;  uncertainty theta = 0.004991, k = 0.167344
         8         7        11     1      121.180313      407.919187    ;  uncertainty theta = 0.012509, k = 0.258354
         9         6        20     1      126.433876      389.012182    ;  uncertainty theta = 0.003031, k = 0.216210
         9        12        15     1      108.550026      452.669684    ;  uncertainty theta = 0.002920, k = 0.374935
         9        12        38     1      116.764023      393.562607    ;  uncertainty theta = 0.012457, k = 0.451958
         9        12        74     1      118.413101      252.153514    ;  uncertainty theta = 0.008990, k = 0.502287
        10        14        42     1      116.991089      320.095025    ;  uncertainty theta = 0.004332, k = 0.150649
        10        17        19     1      122.812088      504.959469    ;  uncertainty theta = 0.005116, k = 0.192517
        10        17        20     1      118.834694      464.231514    ;  uncertainty theta = 0.003991, k = 0.174114
        11         1        14     1      123.655479      370.850796    ;  uncertainty theta = 0.010865, k = 0.420379
        11        13        22     1      110.984398      422.188111    ;  uncertainty theta = 0.004181, k = 0.144764
        11        13        25     1      110.984398      422.188111    ;  uncertainty theta = 0.004181, k = 0.144764
        12         9        75     1      109.685898      383.302371    ;  uncertainty theta = 0.003411, k = 0.114230
        12         9        76     1      109.685898      383.302371    ;  uncertainty theta = 0.003411, k = 0.114230
        12        15        38     1       59.090355      167.360000    ;  uncertainty theta = 0.012341, k = 0.000000
        12        15        71     1      118.048462      210.608803    ;  uncertainty theta = 0.017598, k = 0.821068
        12        38        15     1       62.004467      186.369617    ;  uncertainty theta = 0.034188, k = 0.954278
        12        38        58     1      112.713760      227.973510    ;  uncertainty theta = 0.006798, k = 0.268678
        12        38        59     1      112.713760      227.973526    ;  uncertainty theta = 0.006798, k = 0.268678
        13        22        23     1      110.133949      649.655061    ;  uncertainty theta = 0.001985, k = 0.133737
        13        22        46     1      108.568321      453.936420    ;  uncertainty theta = 0.004489, k = 0.158239
        13        22        47     1      108.568321      453.936420    ;  uncertainty theta = 0.004489, k = 0.158239
        13        25        24     1      110.133949      649.655061    ;  uncertainty theta = 0.001985, k = 0.133737
        13        25        50     1      108.568321      453.936420    ;  uncertainty theta = 0.004489, k = 0.158239
        13        25        51     1      108.568321      453.936420    ;  uncertainty theta = 0.004489, k = 0.158239
        14        10        17     1      120.228127      416.951727    ;  uncertainty theta = 0.003715, k = 0.188563
        15         2        30     1      128.338669      376.532835    ;  uncertainty theta = 0.010047, k = 0.154925
        15        12        38     1       58.342590      167.360000    ;  uncertainty theta = 0.037544, k = 0.000000
        15        12        74     1      115.952660      245.922443    ;  uncertainty theta = 0.012537, k = 0.179050
        15        38        58     1      111.946045      218.921754    ;  uncertainty theta = 0.005768, k = 0.298416
        15        38        59     1      111.946045      218.921754    ;  uncertainty theta = 0.005768, k = 0.298416
        16        23        22     1      107.106102      724.692090    ;  uncertainty theta = 0.009614, k = 0.194544
        16        23        27     1      104.244400      885.384478    ;  uncertainty theta = 0.008129, k = 0.207713
        16        23        48     1      107.116615      462.413527    ;  uncertainty theta = 0.004311, k = 0.213725
        16        24        25     1      107.106102      724.692090    ;  uncertainty theta = 0.009614, k = 0.194544
        16        24        26     1      104.244400      885.384478    ;  uncertainty theta = 0.008129, k = 0.207713
        16        24        49     1      107.116615      462.413527    ;  uncertainty theta = 0.004311, k = 0.213725
        17        19        39     1      117.192360      460.098939    ;  uncertainty theta = 0.004900, k = 0.213375
        17        20        28     1      119.210670      399.090115    ;  uncertainty theta = 0.001710, k = 0.195077
        18        31        21     1      106.313026      577.207111    ;  uncertainty theta = 0.013531, k = 0.484072
        18        31        32     1      105.478836      800.614618    ;  uncertainty theta = 0.009707, k = 0.226439
        18        31        37     1      105.830856      804.791149    ;  uncertainty theta = 0.009842, k = 0.234652
        18        34        33     1      106.743797      762.018533    ;  uncertainty theta = 0.010616, k = 0.072688
        18        34        63     1      107.183151      466.739386    ;  uncertainty theta = 0.005270, k = 0.156070
        18        34        64     1      107.183151      466.739386    ;  uncertainty theta = 0.005270, k = 0.156070
        18        35        36     1      107.158607      807.735067    ;  uncertainty theta = 0.008544, k = 0.118371
        18        35        65     1      106.329147      464.789883    ;  uncertainty theta = 0.004972, k = 0.167651
        18        35        66     1      106.329147      464.789883    ;  uncertainty theta = 0.004972, k = 0.167651
        19        17        20     1      119.947678      359.086137    ;  uncertainty theta = 0.007406, k = 0.147070
        20        28        29     1      121.994797      527.691071    ;  uncertainty theta = 0.003316, k = 0.086063
        20        28        56     1      118.869408      273.421329    ;  uncertainty theta = 0.003118, k = 0.070676
        21        31        32     1      109.787682      504.430851    ;  uncertainty theta = 0.006816, k = 0.290304
        21        31        37     1      110.577492      496.461644    ;  uncertainty theta = 0.008668, k = 0.182764
        22        13        25     1      113.145386      423.689565    ;  uncertainty theta = 0.008189, k = 0.281148
        22        23        27     1      112.961136      535.549287    ;  uncertainty theta = 0.001825, k = 0.221357
        22        23        48     1      110.097534      391.839363    ;  uncertainty theta = 0.006671, k = 0.265089
        23        16        24     1      103.811905      816.372228    ;  uncertainty theta = 0.015300, k = 0.296682
        23        16        43     1      110.536942      414.249869    ;  uncertainty theta = 0.015659, k = 0.317278
        23        16        72     1      110.536942      414.249869    ;  uncertainty theta = 0.015659, k = 0.317278
        23        22        46     1      108.657677      423.347847    ;  uncertainty theta = 0.003396, k = 0.148176
        23        22        47     1      108.657677      423.347847    ;  uncertainty theta = 0.003396, k = 0.148176
        23        27        26     1      106.024353      704.147996    ;  uncertainty theta = 0.006529, k = 0.081671
        23        27        54     1      108.154015      411.973076    ;  uncertainty theta = 0.004144, k = 0.083638
        23        27        55     1      108.154015      411.973076    ;  uncertainty theta = 0.004144, k = 0.083638
        24        16        43     1      110.536942      414.249869    ;  uncertainty theta = 0.015659, k = 0.317278
        24        16        72     1      110.536942      414.249869    ;  uncertainty theta = 0.015659, k = 0.317278
        24        25        50     1      108.657677      423.347847    ;  uncertainty theta = 0.003396, k = 0.148176
        24        25        51     1      108.657677      423.347847    ;  uncertainty theta = 0.003396, k = 0.148176
        24        26        27     1      106.024353      704.147996    ;  uncertainty theta = 0.006529, k = 0.081671
        24        26        52     1      108.154015      411.973076    ;  uncertainty theta = 0.004144, k = 0.083638
        24        26        53     1      108.154015      411.973044    ;  uncertainty theta = 0.004144, k = 0.083638
        25        24        26     1      112.961136      535.549287    ;  uncertainty theta = 0.001825, k = 0.221357
        25        24        49     1      110.097534      391.839363    ;  uncertainty theta = 0.006671, k = 0.265089
        26        24        49     1      111.749306      382.110299    ;  uncertainty theta = 0.005995, k = 0.096526
        26        27        54     1      110.275002      402.480996    ;  uncertainty theta = 0.003380, k = 0.146043
        26        27        55     1      110.275002      402.480996    ;  uncertainty theta = 0.003380, k = 0.146043
        27        23        48     1      111.749306      382.110299    ;  uncertainty theta = 0.005995, k = 0.096526
        27        26        52     1      110.275002      402.480996    ;  uncertainty theta = 0.003380, k = 0.146043
        27        26        53     1      110.275002      402.480996    ;  uncertainty theta = 0.003380, k = 0.146043
        28        29        30     1      120.681618      513.282970    ;  uncertainty theta = 0.003159, k = 0.103257
        28        29        57     1      119.854080      286.575718    ;  uncertainty theta = 0.001644, k = 0.036483
        29        28        56     1      120.328079      292.807826    ;  uncertainty theta = 0.002427, k = 0.068064
        29        30        41     1      120.719017      287.108262    ;  uncertainty theta = 0.002248, k = 0.053295
        30        29        57     1      120.781837      285.884939    ;  uncertainty theta = 0.003264, k = 0.043612
        31        18        34     1      109.551758      666.060802    ;  uncertainty theta = 0.012138, k = 0.251631
        31        18        35     1      109.533287      672.975549    ;  uncertainty theta = 0.011177, k = 0.203335
        31        18        73     1      107.358116      426.286211    ;  uncertainty theta = 0.006315, k = 0.165270
        31        21        44     1      109.179382      392.426366    ;  uncertainty theta = 0.002737, k = 0.174360
        31        21        45     1      109.179382      392.426366    ;  uncertainty theta = 0.002737, k = 0.174360
        31        32        33     1      107.478836      678.632657    ;  uncertainty theta = 0.005988, k = 0.090075
        31        32        60     1      107.981346      383.992129    ;  uncertainty theta = 0.002981, k = 0.128153
        31        32        61     1      107.981346      383.992129    ;  uncertainty theta = 0.002981, k = 0.128153
        31        37        36     1      106.895546      691.908570    ;  uncertainty theta = 0.002804, k = 0.130854
        31        37        69     1      107.385544      384.578780    ;  uncertainty theta = 0.002948, k = 0.089690
        31        37        70     1      107.385544      384.578780    ;  uncertainty theta = 0.002948, k = 0.089690
        32        31        37     1      114.012108      535.162910    ;  uncertainty theta = 0.008207, k = 0.314415
        32        33        34     1      107.903954      728.610887    ;  uncertainty theta = 0.005631, k = 0.144773
        32        33        40     1      112.217163      663.999830    ;  uncertainty theta = 0.004822, k = 0.207483
        32        33        62     1      111.480957      392.955558    ;  uncertainty theta = 0.001862, k = 0.125322
        33        32        60     1      108.231163      411.350704    ;  uncertainty theta = 0.002452, k = 0.050492
        33        32        61     1      108.231163      411.350704    ;  uncertainty theta = 0.002452, k = 0.050492
        33        34        63     1      110.560501      397.994700    ;  uncertainty theta = 0.001618, k = 0.080862
        33        34        64     1      110.560501      397.994700    ;  uncertainty theta = 0.001618, k = 0.080862
        34        18        35     1      113.620338      542.203012    ;  uncertainty theta = 0.004313, k = 0.415995
        34        18        73     1      107.583168      424.366809    ;  uncertainty theta = 0.003876, k = 0.157938
        34        33        40     1      110.685326      656.729351    ;  uncertainty theta = 0.007482, k = 0.092610
        34        33        62     1      110.630043      389.554111    ;  uncertainty theta = 0.005126, k = 0.188180
        35        18        73     1      107.859543      429.250111    ;  uncertainty theta = 0.004149, k = 0.175082
        35        36        37     1      106.225937      738.837733    ;  uncertainty theta = 0.006589, k = 0.212736
        35        36        67     1      108.810410      420.814725    ;  uncertainty theta = 0.001037, k = 0.099472
        35        36        68     1      108.810410      420.814725    ;  uncertainty theta = 0.001037, k = 0.099472
        36        35        65     1      111.713829      406.497473    ;  uncertainty theta = 0.002306, k = 0.030583
        36        35        66     1      111.713829      406.497473    ;  uncertainty theta = 0.002306, k = 0.030583
        36        37        69     1      109.892822      419.193885    ;  uncertainty theta = 0.001887, k = 0.088812
        36        37        70     1      109.892822      419.193885    ;  uncertainty theta = 0.001887, k = 0.088812
        37        36        67     1      109.782631      416.660572    ;  uncertainty theta = 0.002668, k = 0.125704
        37        36        68     1      109.782631      416.660572    ;  uncertainty theta = 0.002668, k = 0.125704
        38        12        74     1      113.211411      225.489707    ;  uncertainty theta = 0.014046, k = 0.304815
        38        15        71     1      113.743141      198.119416    ;  uncertainty theta = 0.016445, k = 0.486875
        40        33        62     1      108.218422      460.481677    ;  uncertainty theta = 0.004012, k = 0.152472
        43        16        72     1      107.747574      350.201426    ;  uncertainty theta = 0.021722, k = 0.473761
        44        21        45     1      108.175621      328.123318    ;  uncertainty theta = 0.001602, k = 0.062972
        46        22        47     1      105.897926      325.661285    ;  uncertainty theta = 0.002949, k = 0.142469
        50        25        51     1      105.897926      325.661285    ;  uncertainty theta = 0.002949, k = 0.142469
        52        26        53     1      104.910599      313.577157    ;  uncertainty theta = 0.003222, k = 0.124326
        54        27        55     1      104.910599      313.577157    ;  uncertainty theta = 0.003222, k = 0.124326
        58        38        59     1      115.514816      207.460763    ;  uncertainty theta = 0.006953, k = 0.178229
        60        32        61     1      106.239235      310.954655    ;  uncertainty theta = 0.003084, k = 0.044097
        63        34        64     1      108.400620      316.091062    ;  uncertainty theta = 0.004273, k = 0.128302
        65        35        66     1      107.501404      319.034277    ;  uncertainty theta = 0.003296, k = 0.090988
        67        36        68     1      105.080666      317.747590    ;  uncertainty theta = 0.002226, k = 0.118787
        69        37        70     1      105.563980      314.652876    ;  uncertainty theta = 0.002290, k = 0.108688
        75         9        76     1      104.639328      293.825448    ;  uncertainty theta = 0.003085, k = 0.132817

[ dihedrals ] ; propers for gromacs 4.5 or higher, use funct 9
;       ai        aj        ak        al funct           phase               k        pn
         1         5         3         8     9        0.000000       -0.298053         1    ;  uncertainty k = 1.272642
         1         5         3         8     9      180.000000       12.863318         2    ;  uncertainty k = 0.541058
         1         5         3         8     9        0.000000        0.623139         3    ;  uncertainty k = 0.325701
         1         5         3         8     9      180.000000        1.147727         4    ;  uncertainty k = 0.354971
         1         5        19        17     9        0.000000       -0.348285         1    ;  uncertainty k = 0.354933
         1         5        19        17     9      180.000000        3.324943         2    ;  uncertainty k = 1.136623
         1         5        19        17     9        0.000000        0.270046         3    ;  uncertainty k = 0.288216
         1         5        19        17     9      180.000000        1.203679         4    ;  uncertainty k = 0.370257
         1         5        19        39     9        0.000000        0.327370         1    ;  uncertainty k = 0.597475
         1         5        19        39     9      180.000000        8.095901         2    ;  uncertainty k = 0.652129
         1         5        19        39     9        0.000000        1.390306         3    ;  uncertainty k = 0.141752
         1         5        19        39     9      180.000000        1.494158         4    ;  uncertainty k = 0.234402
         1        11         7         8     9        0.000000       -0.781881         1    ;  uncertainty k = 1.422060
         1        11         7         8     9      180.000000       12.984261         2    ;  uncertainty k = 0.677102
         1        11         7         8     9        0.000000        0.656450         3    ;  uncertainty k = 0.998368
         1        11         7         8     9      180.000000        1.732429         4    ;  uncertainty k = 0.821786
         1        11        13        22     9        0.000000       -1.427466         1    ;  uncertainty k = 1.188999
         1        11        13        22     9      180.000000        9.343136         2    ;  uncertainty k = 0.264294
         1        11        13        22     9        0.000000        0.295999         3    ;  uncertainty k = 0.386319
         1        11        13        22     9      180.000000        0.358373         4    ;  uncertainty k = 0.207630
         1        11        13        25     9        0.000000       -1.427466         1    ;  uncertainty k = 1.188999
         1        11        13        25     9      180.000000        9.343136         2    ;  uncertainty k = 0.264294
         1        11        13        25     9        0.000000        0.295999         3    ;  uncertainty k = 0.386319
         1        11        13        25     9      180.000000        0.358373         4    ;  uncertainty k = 0.207630
         1        14        10        17     9        0.000000       -0.391388         1    ;  uncertainty k = 0.610242
         1        14        10        17     9      180.000000       16.587034         2    ;  uncertainty k = 0.530078
         1        14        10        17     9        0.000000        1.034351         3    ;  uncertainty k = 0.831443
         1        14        10        17     9      180.000000        1.702502         4    ;  uncertainty k = 0.302157
         2         6         9        12     9        0.000000       -3.481607         1    ;  uncertainty k = 3.088696
         2         6         9        12     9      180.000000        5.154018         2    ;  uncertainty k = 1.430792
         2         6         9        12     9        0.000000       -0.488670         3    ;  uncertainty k = 0.234850
         2         6         9        12     9      180.000000        0.780663         4    ;  uncertainty k = 0.143953
         2         6         9        75     9        0.000000       -0.416406         1    ;  uncertainty k = 0.603784
         2         6         9        75     9      180.000000        1.973167         2    ;  uncertainty k = 0.366652
         2         6         9        75     9        0.000000        0.447979         3    ;  uncertainty k = 0.176160
         2         6         9        75     9      180.000000        0.316003         4    ;  uncertainty k = 0.101896
         2         6         9        76     9        0.000000       -0.416406         1    ;  uncertainty k = 0.603784
         2         6         9        76     9      180.000000        1.973167         2    ;  uncertainty k = 0.366652
         2         6         9        76     9        0.000000        0.447979         3    ;  uncertainty k = 0.176160
         2         6         9        76     9      180.000000        0.316003         4    ;  uncertainty k = 0.101896
         2         6        20        17     9        0.000000        0.274973         1    ;  uncertainty k = 0.484581
         2         6        20        17     9      180.000000        8.932872         2    ;  uncertainty k = 0.990757
         2         6        20        17     9        0.000000        0.921503         3    ;  uncertainty k = 0.562380
         2         6        20        17     9      180.000000        1.528692         4    ;  uncertainty k = 0.200454
         2         6        20        28     9        0.000000       -0.082106         1    ;  uncertainty k = 0.292106
         2         6        20        28     9      180.000000       10.733668         2    ;  uncertainty k = 0.253812
         2         6        20        28     9        0.000000       -0.678876         3    ;  uncertainty k = 0.563636
         2         6        20        28     9      180.000000        0.841991         4    ;  uncertainty k = 0.418054
         2        15        12         9     9        0.000000       -6.281067         1    ;  uncertainty k = 5.463862
         2        15        12         9     9      180.000000        7.094131         2    ;  uncertainty k = 0.763060
         2        15        12         9     9        0.000000        1.070813         3    ;  uncertainty k = 1.354387
         2        15        12         9     9      180.000000       -0.774621         4    ;  uncertainty k = 0.405856
         2        15        12        38     9        0.000000       27.633578         1    ;  uncertainty k = 0.769769
         2        15        12        38     9      180.000000       -3.678870         2    ;  uncertainty k = 4.714255
         2        15        12        38     9        0.000000       -3.060007         3    ;  uncertainty k = 1.038380
         2        15        12        38     9      180.000000        4.817442         4    ;  uncertainty k = 0.454498
         2        15        12        74     9        0.000000       -0.851278         1    ;  uncertainty k = 2.693306
         2        15        12        74     9      180.000000        3.376086         2    ;  uncertainty k = 1.983533
         2        15        12        74     9        0.000000        0.492256         3    ;  uncertainty k = 0.626822
         2        15        12        74     9      180.000000       -0.511999         4    ;  uncertainty k = 0.189152
         2        15        38        12     9        0.000000       25.565274         1    ;  uncertainty k = 1.875712
         2        15        38        12     9      180.000000      -22.915843         2    ;  uncertainty k = 8.018575
         2        15        38        12     9        0.000000       -1.338678         3    ;  uncertainty k = 1.453546
         2        15        38        12     9      180.000000        1.418708         4    ;  uncertainty k = 1.288233
         2        15        38        58     9        0.000000       -2.569963         1    ;  uncertainty k = 3.189552
         2        15        38        58     9      180.000000        4.232220         2    ;  uncertainty k = 0.945416
         2        15        38        58     9        0.000000        0.785189         3    ;  uncertainty k = 0.724814
         2        15        38        58     9      180.000000       -1.160352         4    ;  uncertainty k = 0.249296
         2        15        38        59     9        0.000000       -2.569963         1    ;  uncertainty k = 3.189552
         2        15        38        59     9      180.000000        4.232220         2    ;  uncertainty k = 0.945416
         2        15        38        59     9        0.000000        0.785189         3    ;  uncertainty k = 0.724814
         2        15        38        59     9      180.000000       -1.160352         4    ;  uncertainty k = 0.249296
         2        30        29        28     9        0.000000       -0.042728         1    ;  uncertainty k = 0.291875
         2        30        29        28     9      180.000000       14.419786         2    ;  uncertainty k = 0.150105
         2        30        29        28     9        0.000000       -0.919205         3    ;  uncertainty k = 0.320909
         2        30        29        28     9      180.000000        0.653965         4    ;  uncertainty k = 0.288246
         2        30        29        57     9        0.000000        0.081237         1    ;  uncertainty k = 0.155550
         2        30        29        57     9      180.000000        9.182937         2    ;  uncertainty k = 0.407557
         2        30        29        57     9        0.000000        1.336906         3    ;  uncertainty k = 0.286606
         2        30        29        57     9      180.000000        1.679459         4    ;  uncertainty k = 0.173504
         3         5         1        11     9        0.000000        0.003574         1    ;  uncertainty k = 0.518510
         3         5         1        11     9      180.000000        7.306601         2    ;  uncertainty k = 0.995080
         3         5         1        11     9        0.000000        0.353306         3    ;  uncertainty k = 0.305884
         3         5         1        11     9      180.000000        1.556199         4    ;  uncertainty k = 0.321636
         3         5         1        14     9        0.000000       -0.064689         1    ;  uncertainty k = 0.419069
         3         5         1        14     9      180.000000        7.622186         2    ;  uncertainty k = 0.900954
         3         5         1        14     9        0.000000        0.219825         3    ;  uncertainty k = 0.354552
         3         5         1        14     9      180.000000        1.517374         4    ;  uncertainty k = 0.340734
         3         5        19        17     9        0.000000       -0.022894         1    ;  uncertainty k = 0.170037
         3         5        19        17     9      180.000000        5.969840         2    ;  uncertainty k = 0.637232
         3         5        19        17     9        0.000000        0.413924         3    ;  uncertainty k = 0.214253
         3         5        19        17     9      180.000000        1.176311         4    ;  uncertainty k = 0.413244
         3         5        19        39     9        0.000000        0.118594         1    ;  uncertainty k = 0.678887
         3         5        19        39     9      180.000000       11.854224         2    ;  uncertainty k = 0.675278
         3         5        19        39     9        0.000000        1.101056         3    ;  uncertainty k = 0.351231
         3         5        19        39     9      180.000000        1.141670         4    ;  uncertainty k = 0.468095
         3         8         4        21     9        0.000000        2.587720         1    ;  uncertainty k = 1.861086
         3         8         4        21     9      180.000000        9.635143         2    ;  uncertainty k = 0.503979
         3         8         4        21     9        0.000000        0.048090         3    ;  uncertainty k = 0.150965
         3         8         4        21     9      180.000000       -0.190525         4    ;  uncertainty k = 0.213028
         3         8         7        11     9        0.000000       -0.488652         1    ;  uncertainty k = 1.057490
         3         8         7        11     9      180.000000        8.899800         2    ;  uncertainty k = 0.865025
         3         8         7        11     9        0.000000        1.151301         3    ;  uncertainty k = 0.231591
         3         8         7        11     9      180.000000        0.505791         4    ;  uncertainty k = 0.486052
         4         8         3         5     9        0.000000        0.028872         1    ;  uncertainty k = 1.302060
         4         8         3         5     9      180.000000       14.454565         2    ;  uncertainty k = 0.373958
         4         8         3         5     9        0.000000        2.576237         3    ;  uncertainty k = 0.319246
         4         8         3         5     9      180.000000        1.437213         4    ;  uncertainty k = 0.277234
         4         8         7        11     9        0.000000        0.338738         1    ;  uncertainty k = 1.906641
         4         8         7        11     9      180.000000       10.107912         2    ;  uncertainty k = 0.413421
         4         8         7        11     9        0.000000        2.022862         3    ;  uncertainty k = 0.211584
         4         8         7        11     9      180.000000        0.951306         4    ;  uncertainty k = 0.118728
         4        21        31        18     9        0.000000        1.648820         1    ;  uncertainty k = 1.739602
         4        21        31        18     9      180.000000       -5.109102         2    ;  uncertainty k = 0.802289
         4        21        31        18     9        0.000000        1.105428         3    ;  uncertainty k = 0.303574
         4        21        31        18     9      180.000000       -0.088958         4    ;  uncertainty k = 0.178163
         4        21        31        32     9        0.000000        0.044084         1    ;  uncertainty k = 0.646701
         4        21        31        32     9      180.000000       -0.278590         2    ;  uncertainty k = 0.943499
         4        21        31        32     9        0.000000        1.196532         3    ;  uncertainty k = 0.324769
         4        21        31        32     9      180.000000       -0.120059         4    ;  uncertainty k = 0.135335
         4        21        31        37     9        0.000000       -0.126859         1    ;  uncertainty k = 0.637012
         4        21        31        37     9      180.000000       -0.197512         2    ;  uncertainty k = 0.897261
         4        21        31        37     9        0.000000        1.220267         3    ;  uncertainty k = 0.313254
         4        21        31        37     9      180.000000       -0.086043         4    ;  uncertainty k = 0.118852
         5         1        11         7     9        0.000000       -0.432153         1    ;  uncertainty k = 0.933164
         5         1        11         7     9      180.000000        6.594069         2    ;  uncertainty k = 1.138021
         5         1        11         7     9        0.000000       -0.370434         3    ;  uncertainty k = 0.550124
         5         1        11         7     9      180.000000        0.841299         4    ;  uncertainty k = 0.376556
         5         1        11        13     9        0.000000       -1.028340         1    ;  uncertainty k = 1.278975
         5         1        11        13     9      180.000000        7.034857         2    ;  uncertainty k = 0.889988
         5         1        11        13     9        0.000000        0.119182         3    ;  uncertainty k = 0.340788
         5         1        11        13     9      180.000000        0.876181         4    ;  uncertainty k = 0.330302
         5         1        14        10     9        0.000000        0.036055         1    ;  uncertainty k = 0.409038
         5         1        14        10     9      180.000000       11.553092         2    ;  uncertainty k = 0.532038
         5         1        14        10     9        0.000000       -0.623816         3    ;  uncertainty k = 0.679170
         5         1        14        10     9      180.000000        0.799700         4    ;  uncertainty k = 0.317045
         5         1        14        42     9        0.000000       -0.492604         1    ;  uncertainty k = 0.580379
         5         1        14        42     9      180.000000        5.926251         2    ;  uncertainty k = 0.461071
         5         1        14        42     9        0.000000        0.702150         3    ;  uncertainty k = 0.217600
         5         1        14        42     9      180.000000        0.758502         4    ;  uncertainty k = 0.278314
         5         3         8         7     9        0.000000       -0.198817         1    ;  uncertainty k = 1.036097
         5         3         8         7     9      180.000000       11.792606         2    ;  uncertainty k = 0.751858
         5         3         8         7     9        0.000000        1.700416         3    ;  uncertainty k = 0.526604
         5         3         8         7     9      180.000000        1.151432         4    ;  uncertainty k = 0.244789
         5        19        17        10     9        0.000000       -0.230742         1    ;  uncertainty k = 0.443971
         5        19        17        10     9      180.000000        6.528437         2    ;  uncertainty k = 0.733846
         5        19        17        10     9        0.000000        0.456777         3    ;  uncertainty k = 0.555024
         5        19        17        10     9      180.000000        1.352513         4    ;  uncertainty k = 0.348053
         5        19        17        20     9        0.000000       -0.157554         1    ;  uncertainty k = 0.511640
         5        19        17        20     9      180.000000        5.229266         2    ;  uncertainty k = 0.669943
         5        19        17        20     9        0.000000        0.875383         3    ;  uncertainty k = 0.278505
         5        19        17        20     9      180.000000        1.316630         4    ;  uncertainty k = 0.166112
         6         2        15        12     9        0.000000       -2.645957         1    ;  uncertainty k = 2.815390
         6         2        15        12     9      180.000000       12.374123         2    ;  uncertainty k = 0.778321
         6         2        15        12     9        0.000000       -1.925660         3    ;  uncertainty k = 1.556285
         6         2        15        12     9      180.000000        0.785923         4    ;  uncertainty k = 0.484344
         6         2        15        38     9        0.000000       -5.520772         1    ;  uncertainty k = 1.350243
         6         2        15        38     9      180.000000        2.871653         2    ;  uncertainty k = 0.703373
         6         2        15        38     9        0.000000        2.009031         3    ;  uncertainty k = 1.530878
         6         2        15        38     9      180.000000       -0.057088         4    ;  uncertainty k = 0.523515
         6         2        15        71     9        0.000000       -0.223932         1    ;  uncertainty k = 1.759206
         6         2        15        71     9      180.000000        2.033773         2    ;  uncertainty k = 0.913110
         6         2        15        71     9        0.000000        0.542358         3    ;  uncertainty k = 0.318410
         6         2        15        71     9      180.000000        0.354639         4    ;  uncertainty k = 0.354505
         6         2        30        29     9        0.000000        0.022752         1    ;  uncertainty k = 0.467540
         6         2        30        29     9      180.000000       14.013420         2    ;  uncertainty k = 0.192898
         6         2        30        29     9        0.000000       -1.572338         3    ;  uncertainty k = 0.642826
         6         2        30        29     9      180.000000        0.566045         4    ;  uncertainty k = 0.379416
         6         2        30        41     9        0.000000       -0.001362         1    ;  uncertainty k = 0.214481
         6         2        30        41     9      180.000000        7.421763         2    ;  uncertainty k = 0.581719
         6         2        30        41     9        0.000000        1.180292         3    ;  uncertainty k = 0.244690
         6         2        30        41     9      180.000000        1.601194         4    ;  uncertainty k = 0.193496
         6         9        12        15     9        0.000000       -0.951179         1    ;  uncertainty k = 1.186343
         6         9        12        15     9      180.000000       10.108530         2    ;  uncertainty k = 1.422735
         6         9        12        15     9        0.000000       -0.340824         3    ;  uncertainty k = 0.289619
         6         9        12        15     9      180.000000       -1.064941         4    ;  uncertainty k = 0.299139
         6         9        12        38     9        0.000000       -0.575234         1    ;  uncertainty k = 1.244590
         6         9        12        38     9      180.000000       -1.354420         2    ;  uncertainty k = 2.257770
         6         9        12        38     9        0.000000        2.625040         3    ;  uncertainty k = 0.957510
         6         9        12        38     9      180.000000       -0.028745         4    ;  uncertainty k = 0.166693
         6         9        12        74     9        0.000000       -0.091509         1    ;  uncertainty k = 0.801847
         6         9        12        74     9      180.000000       -0.435961         2    ;  uncertainty k = 1.081558
         6         9        12        74     9        0.000000        1.074005         3    ;  uncertainty k = 0.327154
         6         9        12        74     9      180.000000        0.055105         4    ;  uncertainty k = 0.279116
         6        20        17        10     9        0.000000        0.649651         1    ;  uncertainty k = 0.656517
         6        20        17        10     9      180.000000        6.142485         2    ;  uncertainty k = 0.179068
         6        20        17        10     9        0.000000        0.488101         3    ;  uncertainty k = 0.283976
         6        20        17        10     9      180.000000        0.272073         4    ;  uncertainty k = 0.268215
         6        20        17        19     9        0.000000       -0.018308         1    ;  uncertainty k = 0.494994
         6        20        17        19     9      180.000000        4.872485         2    ;  uncertainty k = 0.313826
         6        20        17        19     9        0.000000        0.497782         3    ;  uncertainty k = 0.202767
         6        20        17        19     9      180.000000        0.323912         4    ;  uncertainty k = 0.157758
         6        20        28        29     9        0.000000       -0.060770         1    ;  uncertainty k = 0.282950
         6        20        28        29     9      180.000000       11.723730         2    ;  uncertainty k = 0.426444
         6        20        28        29     9        0.000000       -0.427935         3    ;  uncertainty k = 0.408455
         6        20        28        29     9      180.000000        0.882278         4    ;  uncertainty k = 0.459417
         6        20        28        56     9        0.000000        0.034753         1    ;  uncertainty k = 0.295330
         6        20        28        56     9      180.000000        7.863730         2    ;  uncertainty k = 0.418325
         6        20        28        56     9        0.000000        1.354342         3    ;  uncertainty k = 0.218936
         6        20        28        56     9      180.000000        1.652293         4    ;  uncertainty k = 0.075594
         7         8         4        21     9        0.000000        5.577612         1    ;  uncertainty k = 1.517024
         7         8         4        21     9      180.000000        9.614249         2    ;  uncertainty k = 0.104637
         7         8         4        21     9        0.000000        0.238222         3    ;  uncertainty k = 0.197833
         7         8         4        21     9      180.000000       -0.124547         4    ;  uncertainty k = 0.269647
         7        11         1        14     9        0.000000        1.010765         1    ;  uncertainty k = 0.811571
         7        11         1        14     9      180.000000        5.492896         2    ;  uncertainty k = 1.798058
         7        11         1        14     9        0.000000       -0.031334         3    ;  uncertainty k = 0.476348
         7        11         1        14     9      180.000000        0.753937         4    ;  uncertainty k = 0.495112
         7        11        13        22     9        0.000000        8.637731         1    ;  uncertainty k = 1.424692
         7        11        13        22     9      180.000000       12.771763         2    ;  uncertainty k = 0.293856
         7        11        13        22     9        0.000000        0.441311         3    ;  uncertainty k = 0.155128
         7        11        13        22     9      180.000000        0.169356         4    ;  uncertainty k = 0.328120
         7        11        13        25     9        0.000000        8.637731         1    ;  uncertainty k = 1.424692
         7        11        13        25     9      180.000000       12.771763         2    ;  uncertainty k = 0.293856
         7        11        13        25     9        0.000000        0.441311         3    ;  uncertainty k = 0.155128
         7        11        13        25     9      180.000000        0.169356         4    ;  uncertainty k = 0.328120
         8         3         5        19     9        0.000000       -0.251305         1    ;  uncertainty k = 1.173968
         8         3         5        19     9      180.000000       12.813167         2    ;  uncertainty k = 0.330828
         8         3         5        19     9        0.000000        1.820183         3    ;  uncertainty k = 0.744198
         8         3         5        19     9      180.000000        1.078788         4    ;  uncertainty k = 0.486330
         8         4        21        31     9        0.000000       -7.510759         1    ;  uncertainty k = 1.475998
         8         4        21        31     9      180.000000        2.709102         2    ;  uncertainty k = 0.765413
         8         4        21        31     9        0.000000       -0.781039         3    ;  uncertainty k = 0.343085
         8         4        21        31     9      180.000000        0.934031         4    ;  uncertainty k = 0.415992
         8         4        21        44     9        0.000000        3.153671         1    ;  uncertainty k = 1.578014
         8         4        21        44     9      180.000000        1.364681         2    ;  uncertainty k = 0.591178
         8         4        21        44     9        0.000000       -0.131180         3    ;  uncertainty k = 0.310201
         8         4        21        44     9      180.000000        0.395920         4    ;  uncertainty k = 0.121665
         8         4        21        45     9        0.000000        3.153671         1    ;  uncertainty k = 1.578014
         8         4        21        45     9      180.000000        1.364681         2    ;  uncertainty k = 0.591178
         8         4        21        45     9        0.000000       -0.131180         3    ;  uncertainty k = 0.310201
         8         4        21        45     9      180.000000        0.395920         4    ;  uncertainty k = 0.121665
         8         7        11        13     9        0.000000        0.434878         1    ;  uncertainty k = 1.165997
         8         7        11        13     9      180.000000       18.095739         2    ;  uncertainty k = 0.788100
         8         7        11        13     9        0.000000        2.581721         3    ;  uncertainty k = 0.811252
         8         7        11        13     9      180.000000        1.672242         4    ;  uncertainty k = 0.700518
         9         6         2        15     9        0.000000        0.200243         1    ;  uncertainty k = 0.650168
         9         6         2        15     9      180.000000       12.748500         2    ;  uncertainty k = 0.772051
         9         6         2        15     9        0.000000       -0.956980         3    ;  uncertainty k = 0.840341
         9         6         2        15     9      180.000000        1.200796         4    ;  uncertainty k = 0.384507
         9         6         2        30     9        0.000000        0.254240         1    ;  uncertainty k = 0.764199
         9         6         2        30     9      180.000000        8.686921         2    ;  uncertainty k = 0.380375
         9         6         2        30     9        0.000000        0.693757         3    ;  uncertainty k = 0.677260
         9         6         2        30     9      180.000000        1.368201         4    ;  uncertainty k = 0.271390
         9         6        20        17     9        0.000000       -0.126672         1    ;  uncertainty k = 0.402207
         9         6        20        17     9      180.000000        7.981407         2    ;  uncertainty k = 0.247568
         9         6        20        17     9        0.000000        1.019605         3    ;  uncertainty k = 0.330793
         9         6        20        17     9      180.000000        1.294750         4    ;  uncertainty k = 0.109664
         9         6        20        28     9        0.000000        0.192552         1    ;  uncertainty k = 0.256785
         9         6        20        28     9      180.000000        7.545704         2    ;  uncertainty k = 0.685291
         9         6        20        28     9        0.000000        1.272516         3    ;  uncertainty k = 0.158151
         9         6        20        28     9      180.000000        1.605336         4    ;  uncertainty k = 0.244055
         9        12        15        38     9        0.000000       37.747642         1    ;  uncertainty k = 1.116640
         9        12        15        38     9      180.000000       -0.960492         2    ;  uncertainty k = 4.906323
         9        12        15        38     9        0.000000       -2.843461         3    ;  uncertainty k = 0.996278
         9        12        15        38     9      180.000000        4.571167         4    ;  uncertainty k = 1.018836
         9        12        15        71     9        0.000000       -2.585481         1    ;  uncertainty k = 5.973965
         9        12        15        71     9      180.000000        1.688661         2    ;  uncertainty k = 1.296003
         9        12        15        71     9        0.000000        1.057834         3    ;  uncertainty k = 0.344189
         9        12        15        71     9      180.000000       -0.845769         4    ;  uncertainty k = 0.551624
         9        12        38        15     9        0.000000       26.554334         1    ;  uncertainty k = 1.282078
         9        12        38        15     9      180.000000      -17.629029         2    ;  uncertainty k = 5.987549
         9        12        38        15     9        0.000000        0.490082         3    ;  uncertainty k = 1.950599
         9        12        38        15     9      180.000000       -0.023424         4    ;  uncertainty k = 1.691276
         9        12        38        58     9        0.000000       -1.469593         1    ;  uncertainty k = 3.815945
         9        12        38        58     9      180.000000        6.044630         2    ;  uncertainty k = 1.943096
         9        12        38        58     9        0.000000        1.079934         3    ;  uncertainty k = 0.474839
         9        12        38        58     9      180.000000       -0.905356         4    ;  uncertainty k = 0.355355
         9        12        38        59     9        0.000000       -1.469593         1    ;  uncertainty k = 3.815945
         9        12        38        59     9      180.000000        6.044630         2    ;  uncertainty k = 1.943096
         9        12        38        59     9        0.000000        1.079934         3    ;  uncertainty k = 0.474839
         9        12        38        59     9      180.000000       -0.905356         4    ;  uncertainty k = 0.355355
        10        14         1        11     9        0.000000        0.119005         1    ;  uncertainty k = 0.440312
        10        14         1        11     9      180.000000        8.675109         2    ;  uncertainty k = 0.965079
        10        14         1        11     9        0.000000        0.379063         3    ;  uncertainty k = 0.365010
        10        14         1        11     9      180.000000        1.140131         4    ;  uncertainty k = 0.314753
        10        17        19        39     9        0.000000        0.228609         1    ;  uncertainty k = 0.647300
        10        17        19        39     9      180.000000       11.999954         2    ;  uncertainty k = 0.673260
        10        17        19        39     9        0.000000        1.350585         3    ;  uncertainty k = 0.203393
        10        17        19        39     9      180.000000        1.476155         4    ;  uncertainty k = 0.429093
        10        17        20        28     9        0.000000        1.458025         1    ;  uncertainty k = 0.730045
        10        17        20        28     9      180.000000        5.979156         2    ;  uncertainty k = 0.275126
        10        17        20        28     9        0.000000        0.401398         3    ;  uncertainty k = 0.251493
        10        17        20        28     9      180.000000        0.286576         4    ;  uncertainty k = 0.127285
        11         1         5        19     9        0.000000       -0.319719         1    ;  uncertainty k = 0.793817
        11         1         5        19     9      180.000000        5.763898         2    ;  uncertainty k = 0.652377
        11         1         5        19     9        0.000000        0.195975         3    ;  uncertainty k = 0.403101
        11         1         5        19     9      180.000000        1.385956         4    ;  uncertainty k = 0.284818
        11         1        14        42     9        0.000000       -0.822919         1    ;  uncertainty k = 1.519408
        11         1        14        42     9      180.000000        5.542489         2    ;  uncertainty k = 0.582925
        11         1        14        42     9        0.000000        0.953694         3    ;  uncertainty k = 0.254549
        11         1        14        42     9      180.000000        0.667319         4    ;  uncertainty k = 0.245899
        11        13        22        23     9        0.000000       -0.458195         1    ;  uncertainty k = 1.681825
        11        13        22        23     9      180.000000       -1.874762         2    ;  uncertainty k = 0.739856
        11        13        22        23     9        0.000000       -0.040748         3    ;  uncertainty k = 0.186193
        11        13        22        23     9      180.000000        0.284566         4    ;  uncertainty k = 0.036558
        11        13        22        46     9        0.000000       -0.358961         1    ;  uncertainty k = 0.549202
        11        13        22        46     9      180.000000       -0.676027         2    ;  uncertainty k = 0.423916
        11        13        22        46     9        0.000000        0.014841         3    ;  uncertainty k = 0.121211
        11        13        22        46     9      180.000000        0.198073         4    ;  uncertainty k = 0.095184
        11        13        22        47     9        0.000000       -0.358961         1    ;  uncertainty k = 0.549202
        11        13        22        47     9      180.000000       -0.676027         2    ;  uncertainty k = 0.423916
        11        13        22        47     9        0.000000        0.014841         3    ;  uncertainty k = 0.121211
        11        13        22        47     9      180.000000        0.198073         4    ;  uncertainty k = 0.095184
        11        13        25        24     9        0.000000       -0.458195         1    ;  uncertainty k = 1.681825
        11        13        25        24     9      180.000000       -1.874762         2    ;  uncertainty k = 0.739856
        11        13        25        24     9        0.000000       -0.040748         3    ;  uncertainty k = 0.186193
        11        13        25        24     9      180.000000        0.284566         4    ;  uncertainty k = 0.036558
        11        13        25        50     9        0.000000       -0.358961         1    ;  uncertainty k = 0.549202
        11        13        25        50     9      180.000000       -0.676027         2    ;  uncertainty k = 0.423916
        11        13        25        50     9        0.000000        0.014841         3    ;  uncertainty k = 0.121211
        11        13        25        50     9      180.000000        0.198073         4    ;  uncertainty k = 0.095184
        11        13        25        51     9        0.000000       -0.358961         1    ;  uncertainty k = 0.549202
        11        13        25        51     9      180.000000       -0.676027         2    ;  uncertainty k = 0.423916
        11        13        25        51     9        0.000000        0.014841         3    ;  uncertainty k = 0.121211
        11        13        25        51     9      180.000000        0.198073         4    ;  uncertainty k = 0.095184
        12         9         6        20     9        0.000000       -1.262332         1    ;  uncertainty k = 1.738079
        12         9         6        20     9      180.000000        1.210320         2    ;  uncertainty k = 0.861527
        12         9         6        20     9        0.000000        0.252080         3    ;  uncertainty k = 0.444508
        12         9         6        20     9      180.000000        0.395508         4    ;  uncertainty k = 0.169180
        12        15         2        30     9        0.000000       -1.525411         1    ;  uncertainty k = 1.142865
        12        15         2        30     9      180.000000        0.860198         2    ;  uncertainty k = 1.281665
        12        15         2        30     9        0.000000        0.569128         3    ;  uncertainty k = 0.937016
        12        15         2        30     9      180.000000        0.544101         4    ;  uncertainty k = 0.470949
        12        15        38        58     9        0.000000       36.381826         1    ;  uncertainty k = 0.186487
        12        15        38        58     9      180.000000       -2.890353         2    ;  uncertainty k = 2.811832
        12        15        38        58     9        0.000000       -6.776043         3    ;  uncertainty k = 1.346352
        12        15        38        58     9      180.000000        3.940541         4    ;  uncertainty k = 0.677421
        12        15        38        59     9        0.000000       36.381826         1    ;  uncertainty k = 0.186487
        12        15        38        59     9      180.000000       -2.890353         2    ;  uncertainty k = 2.811832
        12        15        38        59     9        0.000000       -6.776043         3    ;  uncertainty k = 1.346352
        12        15        38        59     9      180.000000        3.940541         4    ;  uncertainty k = 0.677421
        12        38        15        71     9        0.000000       31.912820         1    ;  uncertainty k = 0.512546
        12        38        15        71     9      180.000000      -10.089599         2    ;  uncertainty k = 5.413443
        12        38        15        71     9        0.000000       -7.682777         3    ;  uncertainty k = 0.967994
        12        38        15        71     9      180.000000        2.282563         4    ;  uncertainty k = 1.326723
        13        11         1        14     9        0.000000       -0.440520         1    ;  uncertainty k = 0.674670
        13        11         1        14     9      180.000000        6.491550         2    ;  uncertainty k = 1.033182
        13        11         1        14     9        0.000000        0.191838         3    ;  uncertainty k = 0.577376
        13        11         1        14     9      180.000000        0.829660         4    ;  uncertainty k = 0.424967
        13        22        23        16     9        0.000000        9.107743         1    ;  uncertainty k = 1.082844
        13        22        23        16     9      180.000000       -3.282809         2    ;  uncertainty k = 1.314094
        13        22        23        16     9        0.000000        2.160516         3    ;  uncertainty k = 0.186385
        13        22        23        16     9      180.000000       -0.493621         4    ;  uncertainty k = 0.354842
        13        22        23        27     9        0.000000        8.403191         1    ;  uncertainty k = 2.185287
        13        22        23        27     9      180.000000        2.355906         2    ;  uncertainty k = 1.415442
        13        22        23        27     9        0.000000        1.695368         3    ;  uncertainty k = 0.321915
        13        22        23        27     9      180.000000       -0.398746         4    ;  uncertainty k = 0.237742
        13        22        23        48     9        0.000000        1.706369         1    ;  uncertainty k = 0.425655
        13        22        23        48     9      180.000000       -2.100813         2    ;  uncertainty k = 2.274752
        13        22        23        48     9        0.000000        0.528673         3    ;  uncertainty k = 0.426932
        13        22        23        48     9      180.000000        0.298925         4    ;  uncertainty k = 0.509447
        13        25        24        16     9        0.000000        9.107743         1    ;  uncertainty k = 1.082844
        13        25        24        16     9      180.000000       -3.282809         2    ;  uncertainty k = 1.314094
        13        25        24        16     9        0.000000        2.160516         3    ;  uncertainty k = 0.186385
        13        25        24        16     9      180.000000       -0.493621         4    ;  uncertainty k = 0.354842
        13        25        24        26     9        0.000000        8.403191         1    ;  uncertainty k = 2.185287
        13        25        24        26     9      180.000000        2.355906         2    ;  uncertainty k = 1.415442
        13        25        24        26     9        0.000000        1.695368         3    ;  uncertainty k = 0.321915
        13        25        24        26     9      180.000000       -0.398746         4    ;  uncertainty k = 0.237742
        13        25        24        49     9        0.000000        1.706369         1    ;  uncertainty k = 0.425655
        13        25        24        49     9      180.000000       -2.100813         2    ;  uncertainty k = 2.274752
        13        25        24        49     9        0.000000        0.528673         3    ;  uncertainty k = 0.426932
        13        25        24        49     9      180.000000        0.298925         4    ;  uncertainty k = 0.509447
        14         1         5        19     9        0.000000       -0.629798         1    ;  uncertainty k = 1.085692
        14         1         5        19     9      180.000000        5.328084         2    ;  uncertainty k = 1.305631
        14         1         5        19     9        0.000000        0.129852         3    ;  uncertainty k = 0.201912
        14         1         5        19     9      180.000000        1.483301         4    ;  uncertainty k = 0.309503
        14        10        17        19     9        0.000000        0.016714         1    ;  uncertainty k = 0.867218
        14        10        17        19     9      180.000000       10.085642         2    ;  uncertainty k = 0.523019
        14        10        17        19     9        0.000000        1.747405         3    ;  uncertainty k = 0.744185
        14        10        17        19     9      180.000000        1.245026         4    ;  uncertainty k = 0.081828
        14        10        17        20     9        0.000000        0.671237         1    ;  uncertainty k = 0.422963
        14        10        17        20     9      180.000000       13.445019         2    ;  uncertainty k = 0.391713
        14        10        17        20     9        0.000000        2.436991         3    ;  uncertainty k = 0.626720
        14        10        17        20     9      180.000000        1.423257         4    ;  uncertainty k = 0.170436
        15         2         6        20     9        0.000000        0.136643         1    ;  uncertainty k = 0.417766
        15         2         6        20     9      180.000000        8.374036         2    ;  uncertainty k = 0.772834
        15         2         6        20     9        0.000000        0.475047         3    ;  uncertainty k = 0.433438
        15         2         6        20     9      180.000000        1.114930         4    ;  uncertainty k = 0.155287
        15         2        30        29     9        0.000000        0.269315         1    ;  uncertainty k = 0.330180
        15         2        30        29     9      180.000000        8.214807         2    ;  uncertainty k = 0.710749
        15         2        30        29     9        0.000000        1.385490         3    ;  uncertainty k = 0.305229
        15         2        30        29     9      180.000000        1.905086         4    ;  uncertainty k = 0.255552
        15         2        30        41     9        0.000000       -0.275948         1    ;  uncertainty k = 0.859366
        15         2        30        41     9      180.000000        6.357865         2    ;  uncertainty k = 0.431645
        15         2        30        41     9        0.000000        0.661673         3    ;  uncertainty k = 0.342932
        15         2        30        41     9      180.000000        1.056234         4    ;  uncertainty k = 0.444455
        15        12         9        75     9        0.000000       -0.786431         1    ;  uncertainty k = 0.913246
        15        12         9        75     9      180.000000        0.183143         2    ;  uncertainty k = 0.436967
        15        12         9        75     9        0.000000        0.542190         3    ;  uncertainty k = 0.273537
        15        12         9        75     9      180.000000        0.075357         4    ;  uncertainty k = 0.178931
        15        12         9        76     9        0.000000       -0.786431         1    ;  uncertainty k = 0.913246
        15        12         9        76     9      180.000000        0.183143         2    ;  uncertainty k = 0.436967
        15        12         9        76     9        0.000000        0.542190         3    ;  uncertainty k = 0.273537
        15        12         9        76     9      180.000000        0.075357         4    ;  uncertainty k = 0.178931
        15        12        38        58     9        0.000000       39.463317         1    ;  uncertainty k = 0.200361
        15        12        38        58     9      180.000000       -0.391004         2    ;  uncertainty k = 3.143425
        15        12        38        58     9        0.000000       -5.897908         3    ;  uncertainty k = 2.187117
        15        12        38        58     9      180.000000        3.945297         4    ;  uncertainty k = 0.695569
        15        12        38        59     9        0.000000       39.463317         1    ;  uncertainty k = 0.200361
        15        12        38        59     9      180.000000       -0.391004         2    ;  uncertainty k = 3.143425
        15        12        38        59     9        0.000000       -5.897908         3    ;  uncertainty k = 2.187117
        15        12        38        59     9      180.000000        3.945297         4    ;  uncertainty k = 0.695569
        15        38        12        74     9        0.000000       35.260412         1    ;  uncertainty k = 0.714630
        15        38        12        74     9      180.000000       -5.882471         2    ;  uncertainty k = 4.187621
        15        38        12        74     9        0.000000       -6.077865         3    ;  uncertainty k = 2.046747
        15        38        12        74     9      180.000000        2.582458         4    ;  uncertainty k = 1.095049
        16        23        22        46     9        0.000000       -1.226081         1    ;  uncertainty k = 2.151708
        16        23        22        46     9      180.000000       -0.881111         2    ;  uncertainty k = 0.372613
        16        23        22        46     9        0.000000        0.771595         3    ;  uncertainty k = 0.306670
        16        23        22        46     9      180.000000       -0.188527         4    ;  uncertainty k = 0.228071
        16        23        22        47     9        0.000000       -1.226081         1    ;  uncertainty k = 2.151708
        16        23        22        47     9      180.000000       -0.881111         2    ;  uncertainty k = 0.372613
        16        23        22        47     9        0.000000        0.771595         3    ;  uncertainty k = 0.306670
        16        23        22        47     9      180.000000       -0.188527         4    ;  uncertainty k = 0.228071
        16        23        27        26     9        0.000000        0.189331         1    ;  uncertainty k = 1.089252
        16        23        27        26     9      180.000000        0.699806         2    ;  uncertainty k = 0.973188
        16        23        27        26     9        0.000000        2.265726         3    ;  uncertainty k = 0.479934
        16        23        27        26     9      180.000000       -1.705008         4    ;  uncertainty k = 0.384237
        16        23        27        54     9        0.000000       -2.507565         1    ;  uncertainty k = 1.392526
        16        23        27        54     9      180.000000       -0.064910         2    ;  uncertainty k = 0.466805
        16        23        27        54     9        0.000000        1.243317         3    ;  uncertainty k = 0.217719
        16        23        27        54     9      180.000000       -0.274757         4    ;  uncertainty k = 0.163796
        16        23        27        55     9        0.000000       -2.507565         1    ;  uncertainty k = 1.392526
        16        23        27        55     9      180.000000       -0.064910         2    ;  uncertainty k = 0.466805
        16        23        27        55     9        0.000000        1.243317         3    ;  uncertainty k = 0.217719
        16        23        27        55     9      180.000000       -0.274757         4    ;  uncertainty k = 0.163796
        16        24        25        50     9        0.000000       -1.226081         1    ;  uncertainty k = 2.151708
        16        24        25        50     9      180.000000       -0.881111         2    ;  uncertainty k = 0.372613
        16        24        25        50     9        0.000000        0.771595         3    ;  uncertainty k = 0.306670
        16        24        25        50     9      180.000000       -0.188527         4    ;  uncertainty k = 0.228071
        16        24        25        51     9        0.000000       -1.226081         1    ;  uncertainty k = 2.151708
        16        24        25        51     9      180.000000       -0.881111         2    ;  uncertainty k = 0.372613
        16        24        25        51     9        0.000000        0.771595         3    ;  uncertainty k = 0.306670
        16        24        25        51     9      180.000000       -0.188527         4    ;  uncertainty k = 0.228071
        16        24        26        27     9        0.000000        0.189331         1    ;  uncertainty k = 1.089252
        16        24        26        27     9      180.000000        0.699806         2    ;  uncertainty k = 0.973188
        16        24        26        27     9        0.000000        2.265726         3    ;  uncertainty k = 0.479934
        16        24        26        27     9      180.000000       -1.705008         4    ;  uncertainty k = 0.384237
        16        24        26        52     9        0.000000       -2.507565         1    ;  uncertainty k = 1.392526
        16        24        26        52     9      180.000000       -0.064910         2    ;  uncertainty k = 0.466805
        16        24        26        52     9        0.000000        1.243317         3    ;  uncertainty k = 0.217719
        16        24        26        52     9      180.000000       -0.274757         4    ;  uncertainty k = 0.163796
        16        24        26        53     9        0.000000       -2.507565         1    ;  uncertainty k = 1.392526
        16        24        26        53     9      180.000000       -0.064910         2    ;  uncertainty k = 0.466805
        16        24        26        53     9        0.000000        1.243317         3    ;  uncertainty k = 0.217719
        16        24        26        53     9      180.000000       -0.274757         4    ;  uncertainty k = 0.163796
        17        10        14        42     9        0.000000        0.010363         1    ;  uncertainty k = 0.618135
        17        10        14        42     9      180.000000       16.530982         2    ;  uncertainty k = 0.561751
        17        10        14        42     9        0.000000        2.087492         3    ;  uncertainty k = 0.361107
        17        10        14        42     9      180.000000        1.625029         4    ;  uncertainty k = 0.346741
        17        20        28        29     9        0.000000        0.178454         1    ;  uncertainty k = 0.418488
        17        20        28        29     9      180.000000        9.126578         2    ;  uncertainty k = 0.772582
        17        20        28        29     9        0.000000        1.203313         3    ;  uncertainty k = 0.329713
        17        20        28        29     9      180.000000        1.848455         4    ;  uncertainty k = 0.224212
        17        20        28        56     9        0.000000       -0.236216         1    ;  uncertainty k = 0.268504
        17        20        28        56     9      180.000000        7.303858         2    ;  uncertainty k = 0.258737
        17        20        28        56     9        0.000000        0.752769         3    ;  uncertainty k = 0.295421
        17        20        28        56     9      180.000000        1.279575         4    ;  uncertainty k = 0.105538
        18        31        21        44     9        0.000000       -0.024288         1    ;  uncertainty k = 0.736587
        18        31        21        44     9      180.000000       -1.149259         2    ;  uncertainty k = 0.605140
        18        31        21        44     9        0.000000        0.504039         3    ;  uncertainty k = 0.134525
        18        31        21        44     9      180.000000       -0.291529         4    ;  uncertainty k = 0.196831
        18        31        21        45     9        0.000000       -0.024288         1    ;  uncertainty k = 0.736587
        18        31        21        45     9      180.000000       -1.149259         2    ;  uncertainty k = 0.605140
        18        31        21        45     9        0.000000        0.504039         3    ;  uncertainty k = 0.134525
        18        31        21        45     9      180.000000       -0.291529         4    ;  uncertainty k = 0.196831
        18        31        32        33     9        0.000000       -0.868339         1    ;  uncertainty k = 2.503341
        18        31        32        33     9      180.000000        1.975563         2    ;  uncertainty k = 1.597596
        18        31        32        33     9        0.000000        0.507320         3    ;  uncertainty k = 0.444471
        18        31        32        33     9      180.000000       -0.690372         4    ;  uncertainty k = 0.125489
        18        31        32        60     9        0.000000       -0.601059         1    ;  uncertainty k = 0.927986
        18        31        32        60     9      180.000000       -0.842918         2    ;  uncertainty k = 0.283818
        18        31        32        60     9        0.000000        0.422561         3    ;  uncertainty k = 0.203674
        18        31        32        60     9      180.000000       -0.186494         4    ;  uncertainty k = 0.107250
        18        31        32        61     9        0.000000       -0.601059         1    ;  uncertainty k = 0.927986
        18        31        32        61     9      180.000000       -0.842918         2    ;  uncertainty k = 0.283818
        18        31        32        61     9        0.000000        0.422561         3    ;  uncertainty k = 0.203674
        18        31        32        61     9      180.000000       -0.186494         4    ;  uncertainty k = 0.107250
        18        31        37        36     9        0.000000       -0.956783         1    ;  uncertainty k = 1.651069
        18        31        37        36     9      180.000000        3.144220         2    ;  uncertainty k = 1.634745
        18        31        37        36     9        0.000000        0.769518         3    ;  uncertainty k = 0.398272
        18        31        37        36     9      180.000000       -1.078081         4    ;  uncertainty k = 0.389535
        18        31        37        69     9        0.000000       -0.514942         1    ;  uncertainty k = 0.734917
        18        31        37        69     9      180.000000       -1.001290         2    ;  uncertainty k = 0.281105
        18        31        37        69     9        0.000000        0.546898         3    ;  uncertainty k = 0.247640
        18        31        37        69     9      180.000000       -0.203949         4    ;  uncertainty k = 0.107426
        18        31        37        70     9        0.000000       -0.514942         1    ;  uncertainty k = 0.734917
        18        31        37        70     9      180.000000       -1.001290         2    ;  uncertainty k = 0.281105
        18        31        37        70     9        0.000000        0.546898         3    ;  uncertainty k = 0.247640
        18        31        37        70     9      180.000000       -0.203949         4    ;  uncertainty k = 0.107426
        18        34        33        32     9        0.000000        0.117107         1    ;  uncertainty k = 1.311784
        18        34        33        32     9      180.000000        1.890904         2    ;  uncertainty k = 0.759609
        18        34        33        32     9        0.000000        0.547352         3    ;  uncertainty k = 0.329867
        18        34        33        32     9      180.000000       -0.888948         4    ;  uncertainty k = 0.358730
        18        34        33        40     9        0.000000       -3.783754         1    ;  uncertainty k = 3.127350
        18        34        33        40     9      180.000000       -1.601321         2    ;  uncertainty k = 1.458449
        18        34        33        40     9        0.000000        1.613212         3    ;  uncertainty k = 0.456793
        18        34        33        40     9      180.000000        0.006887         4    ;  uncertainty k = 0.346925
        18        34        33        62     9        0.000000       -0.643241         1    ;  uncertainty k = 1.396753
        18        34        33        62     9      180.000000        0.258265         2    ;  uncertainty k = 0.627785
        18        34        33        62     9        0.000000        0.490579         3    ;  uncertainty k = 0.153076
        18        34        33        62     9      180.000000       -0.147007         4    ;  uncertainty k = 0.207965
        18        35        36        37     9        0.000000       -1.367572         1    ;  uncertainty k = 1.068056
        18        35        36        37     9      180.000000        1.920951         2    ;  uncertainty k = 1.215792
        18        35        36        37     9        0.000000        0.940848         3    ;  uncertainty k = 0.412612
        18        35        36        37     9      180.000000       -1.583983         4    ;  uncertainty k = 0.404003
        18        35        36        67     9        0.000000       -0.629747         1    ;  uncertainty k = 1.198085
        18        35        36        67     9      180.000000       -1.044778         2    ;  uncertainty k = 0.678388
        18        35        36        67     9        0.000000        0.845981         3    ;  uncertainty k = 0.139447
        18        35        36        67     9      180.000000        0.067060         4    ;  uncertainty k = 0.156792
        18        35        36        68     9        0.000000       -0.629747         1    ;  uncertainty k = 1.198085
        18        35        36        68     9      180.000000       -1.044778         2    ;  uncertainty k = 0.678388
        18        35        36        68     9        0.000000        0.845981         3    ;  uncertainty k = 0.139447
        18        35        36        68     9      180.000000        0.067060         4    ;  uncertainty k = 0.156792
        19        17        20        28     9        0.000000        0.295555         1    ;  uncertainty k = 0.523306
        19        17        20        28     9      180.000000        4.843678         2    ;  uncertainty k = 0.247699
        19        17        20        28     9        0.000000        0.314089         3    ;  uncertainty k = 0.147120
        19        17        20        28     9      180.000000        0.294848         4    ;  uncertainty k = 0.079740
        20         6         2        30     9        0.000000       -0.148675         1    ;  uncertainty k = 0.346726
        20         6         2        30     9      180.000000        8.826846         2    ;  uncertainty k = 0.221513
        20         6         2        30     9        0.000000       -0.146053         3    ;  uncertainty k = 0.357175
        20         6         2        30     9      180.000000        0.934855         4    ;  uncertainty k = 0.288663
        20         6         9        75     9        0.000000        1.132073         1    ;  uncertainty k = 0.561843
        20         6         9        75     9      180.000000        1.788732         2    ;  uncertainty k = 0.474563
        20         6         9        75     9        0.000000       -0.109610         3    ;  uncertainty k = 0.290997
        20         6         9        75     9      180.000000        0.269833         4    ;  uncertainty k = 0.099417
        20         6         9        76     9        0.000000        1.132073         1    ;  uncertainty k = 0.561843
        20         6         9        76     9      180.000000        1.788732         2    ;  uncertainty k = 0.474563
        20         6         9        76     9        0.000000       -0.109610         3    ;  uncertainty k = 0.290997
        20         6         9        76     9      180.000000        0.269833         4    ;  uncertainty k = 0.099417
        20        17        19        39     9        0.000000        0.133346         1    ;  uncertainty k = 0.102824
        20        17        19        39     9      180.000000       10.486102         2    ;  uncertainty k = 0.598141
        20        17        19        39     9        0.000000        1.212589         3    ;  uncertainty k = 0.218769
        20        17        19        39     9      180.000000        1.349684         4    ;  uncertainty k = 0.269295
        20        28        29        30     9        0.000000        0.023014         1    ;  uncertainty k = 0.193300
        20        28        29        30     9      180.000000       13.681240         2    ;  uncertainty k = 0.363757
        20        28        29        30     9        0.000000       -1.011091         3    ;  uncertainty k = 0.418834
        20        28        29        30     9      180.000000        0.753763         4    ;  uncertainty k = 0.205910
        20        28        29        57     9        0.000000        0.033847         1    ;  uncertainty k = 0.141094
        20        28        29        57     9      180.000000        7.521312         2    ;  uncertainty k = 0.206902
        20        28        29        57     9        0.000000        1.349921         3    ;  uncertainty k = 0.234235
        20        28        29        57     9      180.000000        1.851345         4    ;  uncertainty k = 0.166618
        21        31        18        34     9        0.000000       -0.639178         1    ;  uncertainty k = 0.643538
        21        31        18        34     9      180.000000        0.472526         2    ;  uncertainty k = 0.328157
        21        31        18        34     9        0.000000        1.114089         3    ;  uncertainty k = 0.174942
        21        31        18        34     9      180.000000       -0.010613         4    ;  uncertainty k = 0.102410
        21        31        18        35     9        0.000000       -0.626805         1    ;  uncertainty k = 0.723132
        21        31        18        35     9      180.000000        0.698358         2    ;  uncertainty k = 0.445688
        21        31        18        35     9        0.000000        1.131548         3    ;  uncertainty k = 0.227513
        21        31        18        35     9      180.000000       -0.026928         4    ;  uncertainty k = 0.112057
        21        31        18        73     9        0.000000        2.999725         1    ;  uncertainty k = 1.649944
        21        31        18        73     9      180.000000       -1.176997         2    ;  uncertainty k = 0.939507
        21        31        18        73     9        0.000000        0.486169         3    ;  uncertainty k = 0.195304
        21        31        18        73     9      180.000000       -0.155976         4    ;  uncertainty k = 0.125202
        21        31        32        33     9        0.000000       -2.471278         1    ;  uncertainty k = 1.115432
        21        31        32        33     9      180.000000        0.908620         2    ;  uncertainty k = 0.807660
        21        31        32        33     9        0.000000        0.632752         3    ;  uncertainty k = 0.289710
        21        31        32        33     9      180.000000        0.013391         4    ;  uncertainty k = 0.239089
        21        31        32        60     9        0.000000        0.156883         1    ;  uncertainty k = 0.272250
        21        31        32        60     9      180.000000       -0.444333         2    ;  uncertainty k = 0.437555
        21        31        32        60     9        0.000000        0.690313         3    ;  uncertainty k = 0.195683
        21        31        32        60     9      180.000000       -0.107119         4    ;  uncertainty k = 0.112618
        21        31        32        61     9        0.000000        0.156883         1    ;  uncertainty k = 0.272250
        21        31        32        61     9      180.000000       -0.444333         2    ;  uncertainty k = 0.437555
        21        31        32        61     9        0.000000        0.690313         3    ;  uncertainty k = 0.195683
        21        31        32        61     9      180.000000       -0.107119         4    ;  uncertainty k = 0.112618
        21        31        37        36     9        0.000000       -3.104895         1    ;  uncertainty k = 0.997264
        21        31        37        36     9      180.000000        1.323646         2    ;  uncertainty k = 0.670841
        21        31        37        36     9        0.000000        0.846280         3    ;  uncertainty k = 0.204351
        21        31        37        36     9      180.000000       -0.029244         4    ;  uncertainty k = 0.290839
        21        31        37        69     9        0.000000        0.149810         1    ;  uncertainty k = 0.280995
        21        31        37        69     9      180.000000       -0.432167         2    ;  uncertainty k = 0.397421
        21        31        37        69     9        0.000000        0.713168         3    ;  uncertainty k = 0.204525
        21        31        37        69     9      180.000000       -0.126043         4    ;  uncertainty k = 0.138125
        21        31        37        70     9        0.000000        0.149810         1    ;  uncertainty k = 0.280995
        21        31        37        70     9      180.000000       -0.432167         2    ;  uncertainty k = 0.397421
        21        31        37        70     9        0.000000        0.713168         3    ;  uncertainty k = 0.204525
        21        31        37        70     9      180.000000       -0.126043         4    ;  uncertainty k = 0.138125
        22        13        25        24     9        0.000000        0.996296         1    ;  uncertainty k = 3.091746
        22        13        25        24     9      180.000000       -3.882568         2    ;  uncertainty k = 0.920126
        22        13        25        24     9        0.000000        0.631843         3    ;  uncertainty k = 0.319690
        22        13        25        24     9      180.000000       -0.069009         4    ;  uncertainty k = 0.224471
        22        13        25        50     9        0.000000       -4.262002         1    ;  uncertainty k = 1.361313
        22        13        25        50     9      180.000000        0.464518         2    ;  uncertainty k = 0.710044
        22        13        25        50     9        0.000000        0.955170         3    ;  uncertainty k = 0.043456
        22        13        25        50     9      180.000000       -0.070179         4    ;  uncertainty k = 0.112495
        22        13        25        51     9        0.000000       -4.262002         1    ;  uncertainty k = 1.361313
        22        13        25        51     9      180.000000        0.464518         2    ;  uncertainty k = 0.710044
        22        13        25        51     9        0.000000        0.955170         3    ;  uncertainty k = 0.043456
        22        13        25        51     9      180.000000       -0.070179         4    ;  uncertainty k = 0.112495
        22        23        16        24     9        0.000000        2.332974         1    ;  uncertainty k = 3.433745
        22        23        16        24     9      180.000000       -0.969466         2    ;  uncertainty k = 2.647801
        22        23        16        24     9        0.000000        0.669799         3    ;  uncertainty k = 0.434210
        22        23        16        24     9      180.000000       -0.707708         4    ;  uncertainty k = 0.580677
        22        23        16        43     9        0.000000        1.449081         1    ;  uncertainty k = 1.710019
        22        23        16        43     9      180.000000       -0.149483         2    ;  uncertainty k = 1.068319
        22        23        16        43     9        0.000000        0.745969         3    ;  uncertainty k = 0.389032
        22        23        16        43     9      180.000000        0.030759         4    ;  uncertainty k = 0.168263
        22        23        16        72     9        0.000000        1.449081         1    ;  uncertainty k = 1.710019
        22        23        16        72     9      180.000000       -0.149483         2    ;  uncertainty k = 1.068319
        22        23        16        72     9        0.000000        0.745969         3    ;  uncertainty k = 0.389032
        22        23        16        72     9      180.000000        0.030759         4    ;  uncertainty k = 0.168263
        22        23        27        26     9        0.000000        1.425983         1    ;  uncertainty k = 2.348979
        22        23        27        26     9      180.000000        1.085251         2    ;  uncertainty k = 1.083519
        22        23        27        26     9        0.000000        1.042528         3    ;  uncertainty k = 0.388855
        22        23        27        26     9      180.000000       -0.396419         4    ;  uncertainty k = 0.415101
        22        23        27        54     9        0.000000       -0.935670         1    ;  uncertainty k = 0.319567
        22        23        27        54     9      180.000000       -0.073400         2    ;  uncertainty k = 0.323152
        22        23        27        54     9        0.000000        0.584904         3    ;  uncertainty k = 0.288153
        22        23        27        54     9      180.000000       -0.098097         4    ;  uncertainty k = 0.050566
        22        23        27        55     9        0.000000       -0.935670         1    ;  uncertainty k = 0.319567
        22        23        27        55     9      180.000000       -0.073400         2    ;  uncertainty k = 0.323152
        22        23        27        55     9        0.000000        0.584904         3    ;  uncertainty k = 0.288153
        22        23        27        55     9      180.000000       -0.098097         4    ;  uncertainty k = 0.050566
        23        16        24        25     9        0.000000        2.332974         1    ;  uncertainty k = 3.433745
        23        16        24        25     9      180.000000       -0.969466         2    ;  uncertainty k = 2.647801
        23        16        24        25     9        0.000000        0.669799         3    ;  uncertainty k = 0.434210
        23        16        24        25     9      180.000000       -0.707708         4    ;  uncertainty k = 0.580677
        23        16        24        26     9        0.000000       -2.863884         1    ;  uncertainty k = 0.953340
        23        16        24        26     9      180.000000        5.881051         2    ;  uncertainty k = 1.496646
        23        16        24        26     9        0.000000        0.959501         3    ;  uncertainty k = 0.308106
        23        16        24        26     9      180.000000       -1.578218         4    ;  uncertainty k = 0.785949
        23        16        24        49     9        0.000000       -2.464294         1    ;  uncertainty k = 3.480424
        23        16        24        49     9      180.000000       -1.153887         2    ;  uncertainty k = 0.886333
        23        16        24        49     9        0.000000        0.163905         3    ;  uncertainty k = 0.495815
        23        16        24        49     9      180.000000       -0.156421         4    ;  uncertainty k = 0.288580
        23        22        13        25     9        0.000000        0.996296         1    ;  uncertainty k = 3.091746
        23        22        13        25     9      180.000000       -3.882568         2    ;  uncertainty k = 0.920126
        23        22        13        25     9        0.000000        0.631843         3    ;  uncertainty k = 0.319690
        23        22        13        25     9      180.000000       -0.069009         4    ;  uncertainty k = 0.224471
        23        27        26        24     9        0.000000       -2.135289         1    ;  uncertainty k = 3.339583
        23        27        26        24     9      180.000000        7.371280         2    ;  uncertainty k = 1.668222
        23        27        26        24     9        0.000000        0.556705         3    ;  uncertainty k = 0.529878
        23        27        26        24     9      180.000000       -1.870357         4    ;  uncertainty k = 0.587896
        23        27        26        52     9        0.000000       -1.534651         1    ;  uncertainty k = 0.857224
        23        27        26        52     9      180.000000        0.015553         2    ;  uncertainty k = 0.276003
        23        27        26        52     9        0.000000        0.812494         3    ;  uncertainty k = 0.034992
        23        27        26        52     9      180.000000        0.159229         4    ;  uncertainty k = 0.085386
        23        27        26        53     9        0.000000       -1.534651         1    ;  uncertainty k = 0.857224
        23        27        26        53     9      180.000000        0.015553         2    ;  uncertainty k = 0.276003
        23        27        26        53     9        0.000000        0.812494         3    ;  uncertainty k = 0.034992
        23        27        26        53     9      180.000000        0.159229         4    ;  uncertainty k = 0.085386
        24        16        23        27     9        0.000000       -2.863884         1    ;  uncertainty k = 0.953340
        24        16        23        27     9      180.000000        5.881051         2    ;  uncertainty k = 1.496646
        24        16        23        27     9        0.000000        0.959501         3    ;  uncertainty k = 0.308106
        24        16        23        27     9      180.000000       -1.578218         4    ;  uncertainty k = 0.785949
        24        16        23        48     9        0.000000       -2.464294         1    ;  uncertainty k = 3.480424
        24        16        23        48     9      180.000000       -1.153887         2    ;  uncertainty k = 0.886333
        24        16        23        48     9        0.000000        0.163905         3    ;  uncertainty k = 0.495815
        24        16        23        48     9      180.000000       -0.156421         4    ;  uncertainty k = 0.288580
        24        26        27        54     9        0.000000       -1.534651         1    ;  uncertainty k = 0.857224
        24        26        27        54     9      180.000000        0.015553         2    ;  uncertainty k = 0.276003
        24        26        27        54     9        0.000000        0.812494         3    ;  uncertainty k = 0.034992
        24        26        27        54     9      180.000000        0.159229         4    ;  uncertainty k = 0.085386
        24        26        27        55     9        0.000000       -1.534651         1    ;  uncertainty k = 0.857224
        24        26        27        55     9      180.000000        0.015553         2    ;  uncertainty k = 0.276003
        24        26        27        55     9        0.000000        0.812494         3    ;  uncertainty k = 0.034992
        24        26        27        55     9      180.000000        0.159229         4    ;  uncertainty k = 0.085386
        25        13        22        46     9        0.000000       -4.262002         1    ;  uncertainty k = 1.361313
        25        13        22        46     9      180.000000        0.464518         2    ;  uncertainty k = 0.710044
        25        13        22        46     9        0.000000        0.955170         3    ;  uncertainty k = 0.043456
        25        13        22        46     9      180.000000       -0.070179         4    ;  uncertainty k = 0.112495
        25        13        22        47     9        0.000000       -4.262002         1    ;  uncertainty k = 1.361313
        25        13        22        47     9      180.000000        0.464518         2    ;  uncertainty k = 0.710044
        25        13        22        47     9        0.000000        0.955170         3    ;  uncertainty k = 0.043456
        25        13        22        47     9      180.000000       -0.070179         4    ;  uncertainty k = 0.112495
        25        24        16        43     9        0.000000        1.449081         1    ;  uncertainty k = 1.710019
        25        24        16        43     9      180.000000       -0.149483         2    ;  uncertainty k = 1.068319
        25        24        16        43     9        0.000000        0.745969         3    ;  uncertainty k = 0.389032
        25        24        16        43     9      180.000000        0.030759         4    ;  uncertainty k = 0.168263
        25        24        16        72     9        0.000000        1.449081         1    ;  uncertainty k = 1.710019
        25        24        16        72     9      180.000000       -0.149483         2    ;  uncertainty k = 1.068319
        25        24        16        72     9        0.000000        0.745969         3    ;  uncertainty k = 0.389032
        25        24        16        72     9      180.000000        0.030759         4    ;  uncertainty k = 0.168263
        25        24        26        27     9        0.000000        1.425983         1    ;  uncertainty k = 2.348979
        25        24        26        27     9      180.000000        1.085251         2    ;  uncertainty k = 1.083519
        25        24        26        27     9        0.000000        1.042528         3    ;  uncertainty k = 0.388855
        25        24        26        27     9      180.000000       -0.396419         4    ;  uncertainty k = 0.415101
        25        24        26        52     9        0.000000       -0.935670         1    ;  uncertainty k = 0.319567
        25        24        26        52     9      180.000000       -0.073400         2    ;  uncertainty k = 0.323152
        25        24        26        52     9        0.000000        0.584904         3    ;  uncertainty k = 0.288153
        25        24        26        52     9      180.000000       -0.098097         4    ;  uncertainty k = 0.050566
        25        24        26        53     9        0.000000       -0.935670         1    ;  uncertainty k = 0.319567
        25        24        26        53     9      180.000000       -0.073400         2    ;  uncertainty k = 0.323152
        25        24        26        53     9        0.000000        0.584904         3    ;  uncertainty k = 0.288153
        25        24        26        53     9      180.000000       -0.098097         4    ;  uncertainty k = 0.050566
        26        24        16        43     9        0.000000       -1.262213         1    ;  uncertainty k = 1.005152
        26        24        16        43     9      180.000000        2.725544         2    ;  uncertainty k = 0.732836
        26        24        16        43     9        0.000000        0.844379         3    ;  uncertainty k = 0.439475
        26        24        16        43     9      180.000000       -0.092959         4    ;  uncertainty k = 0.177019
        26        24        16        72     9        0.000000       -1.262213         1    ;  uncertainty k = 1.005152
        26        24        16        72     9      180.000000        2.725544         2    ;  uncertainty k = 0.732836
        26        24        16        72     9        0.000000        0.844379         3    ;  uncertainty k = 0.439475
        26        24        16        72     9      180.000000       -0.092959         4    ;  uncertainty k = 0.177019
        26        24        25        50     9        0.000000       -1.591268         1    ;  uncertainty k = 0.965378
        26        24        25        50     9      180.000000        0.142374         2    ;  uncertainty k = 0.299069
        26        24        25        50     9        0.000000        0.343526         3    ;  uncertainty k = 0.196374
        26        24        25        50     9      180.000000       -0.030757         4    ;  uncertainty k = 0.039234
        26        24        25        51     9        0.000000       -1.591268         1    ;  uncertainty k = 0.965378
        26        24        25        51     9      180.000000        0.142374         2    ;  uncertainty k = 0.299069
        26        24        25        51     9        0.000000        0.343526         3    ;  uncertainty k = 0.196374
        26        24        25        51     9      180.000000       -0.030757         4    ;  uncertainty k = 0.039234
        26        27        23        48     9        0.000000       -0.957159         1    ;  uncertainty k = 1.390041
        26        27        23        48     9      180.000000        0.911072         2    ;  uncertainty k = 0.870353
        26        27        23        48     9        0.000000        0.472911         3    ;  uncertainty k = 0.357988
        26        27        23        48     9      180.000000       -0.015053         4    ;  uncertainty k = 0.294989
        27        23        16        43     9        0.000000       -1.262213         1    ;  uncertainty k = 1.005152
        27        23        16        43     9      180.000000        2.725544         2    ;  uncertainty k = 0.732836
        27        23        16        43     9        0.000000        0.844379         3    ;  uncertainty k = 0.439475
        27        23        16        43     9      180.000000       -0.092959         4    ;  uncertainty k = 0.177019
        27        23        16        72     9        0.000000       -1.262213         1    ;  uncertainty k = 1.005152
        27        23        16        72     9      180.000000        2.725544         2    ;  uncertainty k = 0.732836
        27        23        16        72     9        0.000000        0.844379         3    ;  uncertainty k = 0.439475
        27        23        16        72     9      180.000000       -0.092959         4    ;  uncertainty k = 0.177019
        27        23        22        46     9        0.000000       -1.591268         1    ;  uncertainty k = 0.965378
        27        23        22        46     9      180.000000        0.142374         2    ;  uncertainty k = 0.299069
        27        23        22        46     9        0.000000        0.343526         3    ;  uncertainty k = 0.196374
        27        23        22        46     9      180.000000       -0.030757         4    ;  uncertainty k = 0.039234
        27        23        22        47     9        0.000000       -1.591268         1    ;  uncertainty k = 0.965378
        27        23        22        47     9      180.000000        0.142374         2    ;  uncertainty k = 0.299069
        27        23        22        47     9        0.000000        0.343526         3    ;  uncertainty k = 0.196374
        27        23        22        47     9      180.000000       -0.030757         4    ;  uncertainty k = 0.039234
        27        26        24        49     9        0.000000       -0.957159         1    ;  uncertainty k = 1.390041
        27        26        24        49     9      180.000000        0.911072         2    ;  uncertainty k = 0.870353
        27        26        24        49     9        0.000000        0.472911         3    ;  uncertainty k = 0.357988
        27        26        24        49     9      180.000000       -0.015053         4    ;  uncertainty k = 0.294989
        28        29        30        41     9        0.000000        0.150030         1    ;  uncertainty k = 0.140080
        28        29        30        41     9      180.000000        7.613001         2    ;  uncertainty k = 0.308059
        28        29        30        41     9        0.000000        1.492204         3    ;  uncertainty k = 0.224275
        28        29        30        41     9      180.000000        1.775654         4    ;  uncertainty k = 0.224193
        30         2        15        38     9        0.000000       -0.609056         1    ;  uncertainty k = 1.403133
        30         2        15        38     9      180.000000        1.503140         2    ;  uncertainty k = 1.303468
        30         2        15        38     9        0.000000        0.964669         3    ;  uncertainty k = 0.489501
        30         2        15        38     9      180.000000        0.160476         4    ;  uncertainty k = 0.244268
        30         2        15        71     9        0.000000       -0.331977         1    ;  uncertainty k = 0.714680
        30         2        15        71     9      180.000000        1.203708         2    ;  uncertainty k = 0.457570
        30         2        15        71     9        0.000000        0.435612         3    ;  uncertainty k = 0.256071
        30         2        15        71     9      180.000000        0.322632         4    ;  uncertainty k = 0.212654
        30        29        28        56     9        0.000000        0.031689         1    ;  uncertainty k = 0.131769
        30        29        28        56     9      180.000000        7.791734         2    ;  uncertainty k = 0.214472
        30        29        28        56     9        0.000000        1.348822         3    ;  uncertainty k = 0.230871
        30        29        28        56     9      180.000000        1.816571         4    ;  uncertainty k = 0.158108
        31        18        34        33     9        0.000000       -1.195631         1    ;  uncertainty k = 2.066799
        31        18        34        33     9      180.000000        2.132754         2    ;  uncertainty k = 2.134026
        31        18        34        33     9        0.000000        0.539887         3    ;  uncertainty k = 0.184632
        31        18        34        33     9      180.000000       -0.584180         4    ;  uncertainty k = 0.195142
        31        18        34        63     9        0.000000        0.411534         1    ;  uncertainty k = 0.297414
        31        18        34        63     9      180.000000       -0.322366         2    ;  uncertainty k = 0.554299
        31        18        34        63     9        0.000000        0.572894         3    ;  uncertainty k = 0.114023
        31        18        34        63     9      180.000000        0.089412         4    ;  uncertainty k = 0.120513
        31        18        34        64     9        0.000000        0.411534         1    ;  uncertainty k = 0.297414
        31        18        34        64     9      180.000000       -0.322366         2    ;  uncertainty k = 0.554299
        31        18        34        64     9        0.000000        0.572894         3    ;  uncertainty k = 0.114023
        31        18        34        64     9      180.000000        0.089412         4    ;  uncertainty k = 0.120513
        31        18        35        36     9        0.000000       -3.324505         1    ;  uncertainty k = 2.046848
        31        18        35        36     9      180.000000        3.921835         2    ;  uncertainty k = 2.395800
        31        18        35        36     9        0.000000        0.760440         3    ;  uncertainty k = 0.265909
        31        18        35        36     9      180.000000       -0.866054         4    ;  uncertainty k = 0.253926
        31        18        35        65     9        0.000000        0.627919         1    ;  uncertainty k = 0.344784
        31        18        35        65     9      180.000000       -0.523048         2    ;  uncertainty k = 0.655984
        31        18        35        65     9        0.000000        0.559069         3    ;  uncertainty k = 0.117734
        31        18        35        65     9      180.000000        0.113462         4    ;  uncertainty k = 0.133169
        31        18        35        66     9        0.000000        0.627919         1    ;  uncertainty k = 0.344784
        31        18        35        66     9      180.000000       -0.523048         2    ;  uncertainty k = 0.655984
        31        18        35        66     9        0.000000        0.559069         3    ;  uncertainty k = 0.117734
        31        18        35        66     9      180.000000        0.113462         4    ;  uncertainty k = 0.133169
        31        32        33        34     9        0.000000       -1.368642         1    ;  uncertainty k = 1.142051
        31        32        33        34     9      180.000000        3.837818         2    ;  uncertainty k = 1.334522
        31        32        33        34     9        0.000000        0.208044         3    ;  uncertainty k = 0.436054
        31        32        33        34     9      180.000000       -1.164148         4    ;  uncertainty k = 0.214891
        31        32        33        40     9        0.000000       -2.359342         1    ;  uncertainty k = 1.453478
        31        32        33        40     9      180.000000       -0.525068         2    ;  uncertainty k = 0.954490
        31        32        33        40     9        0.000000        0.969919         3    ;  uncertainty k = 0.259228
        31        32        33        40     9      180.000000        0.199583         4    ;  uncertainty k = 0.129406
        31        32        33        62     9        0.000000       -0.468934         1    ;  uncertainty k = 0.241299
        31        32        33        62     9      180.000000        0.583055         2    ;  uncertainty k = 0.468769
        31        32        33        62     9        0.000000        0.357769         3    ;  uncertainty k = 0.237704
        31        32        33        62     9      180.000000       -0.102254         4    ;  uncertainty k = 0.047155
        31        37        36        35     9        0.000000       -0.998877         1    ;  uncertainty k = 0.846504
        31        37        36        35     9      180.000000        4.241090         2    ;  uncertainty k = 1.841506
        31        37        36        35     9        0.000000        0.322704         3    ;  uncertainty k = 0.356794
        31        37        36        35     9      180.000000       -1.638901         4    ;  uncertainty k = 0.577723
        31        37        36        67     9        0.000000       -0.580146         1    ;  uncertainty k = 0.436494
        31        37        36        67     9      180.000000       -0.638570         2    ;  uncertainty k = 0.285140
        31        37        36        67     9        0.000000        0.540445         3    ;  uncertainty k = 0.139964
        31        37        36        67     9      180.000000        0.121223         4    ;  uncertainty k = 0.095489
        31        37        36        68     9        0.000000       -0.580146         1    ;  uncertainty k = 0.436494
        31        37        36        68     9      180.000000       -0.638570         2    ;  uncertainty k = 0.285140
        31        37        36        68     9        0.000000        0.540445         3    ;  uncertainty k = 0.139964
        31        37        36        68     9      180.000000        0.121223         4    ;  uncertainty k = 0.095489
        32        31        18        34     9        0.000000       -2.395663         1    ;  uncertainty k = 1.524704
        32        31        18        34     9      180.000000        0.302722         2    ;  uncertainty k = 1.023424
        32        31        18        34     9        0.000000        1.519274         3    ;  uncertainty k = 0.356773
        32        31        18        34     9      180.000000       -0.103660         4    ;  uncertainty k = 0.279154
        32        31        18        35     9        0.000000       -2.523383         1    ;  uncertainty k = 1.338521
        32        31        18        35     9      180.000000        0.395082         2    ;  uncertainty k = 0.939889
        32        31        18        35     9        0.000000        1.534443         3    ;  uncertainty k = 0.318764
        32        31        18        35     9      180.000000       -0.118144         4    ;  uncertainty k = 0.253492
        32        31        18        73     9        0.000000        1.750261         1    ;  uncertainty k = 0.866113
        32        31        18        73     9      180.000000        0.104748         2    ;  uncertainty k = 0.278568
        32        31        18        73     9        0.000000        0.422846         3    ;  uncertainty k = 0.268763
        32        31        18        73     9      180.000000       -0.108626         4    ;  uncertainty k = 0.173580
        32        31        21        44     9        0.000000       -1.344375         1    ;  uncertainty k = 0.487676
        32        31        21        44     9      180.000000        0.124134         2    ;  uncertainty k = 0.172032
        32        31        21        44     9        0.000000        0.348188         3    ;  uncertainty k = 0.154494
        32        31        21        44     9      180.000000       -0.189504         4    ;  uncertainty k = 0.054597
        32        31        21        45     9        0.000000       -1.344375         1    ;  uncertainty k = 0.487676
        32        31        21        45     9      180.000000        0.124134         2    ;  uncertainty k = 0.172032
        32        31        21        45     9        0.000000        0.348188         3    ;  uncertainty k = 0.154494
        32        31        21        45     9      180.000000       -0.189504         4    ;  uncertainty k = 0.054597
        32        31        37        36     9        0.000000       -3.093941         1    ;  uncertainty k = 0.887633
        32        31        37        36     9      180.000000        1.658632         2    ;  uncertainty k = 0.404874
        32        31        37        36     9        0.000000        1.004480         3    ;  uncertainty k = 0.124356
        32        31        37        36     9      180.000000       -0.045683         4    ;  uncertainty k = 0.218287
        32        31        37        69     9        0.000000       -0.657099         1    ;  uncertainty k = 0.264135
        32        31        37        69     9      180.000000       -0.118516         2    ;  uncertainty k = 0.278253
        32        31        37        69     9        0.000000        0.643050         3    ;  uncertainty k = 0.239235
        32        31        37        69     9      180.000000        0.003887         4    ;  uncertainty k = 0.083291
        32        31        37        70     9        0.000000       -0.657099         1    ;  uncertainty k = 0.264135
        32        31        37        70     9      180.000000       -0.118516         2    ;  uncertainty k = 0.278253
        32        31        37        70     9        0.000000        0.643050         3    ;  uncertainty k = 0.239235
        32        31        37        70     9      180.000000        0.003887         4    ;  uncertainty k = 0.083291
        32        33        34        63     9        0.000000       -1.160856         1    ;  uncertainty k = 0.551031
        32        33        34        63     9      180.000000       -0.159421         2    ;  uncertainty k = 0.154425
        32        33        34        63     9        0.000000        0.290565         3    ;  uncertainty k = 0.161159
        32        33        34        63     9      180.000000        0.023554         4    ;  uncertainty k = 0.085688
        32        33        34        64     9        0.000000       -1.160856         1    ;  uncertainty k = 0.551031
        32        33        34        64     9      180.000000       -0.159421         2    ;  uncertainty k = 0.154425
        32        33        34        64     9        0.000000        0.290565         3    ;  uncertainty k = 0.161159
        32        33        34        64     9      180.000000        0.023554         4    ;  uncertainty k = 0.085688
        33        32        31        37     9        0.000000       -2.738758         1    ;  uncertainty k = 0.849017
        33        32        31        37     9      180.000000        0.828297         2    ;  uncertainty k = 0.485746
        33        32        31        37     9        0.000000        0.639755         3    ;  uncertainty k = 0.153197
        33        32        31        37     9      180.000000       -0.053471         4    ;  uncertainty k = 0.163570
        33        34        18        35     9        0.000000       -1.899600         1    ;  uncertainty k = 0.460369
        33        34        18        35     9      180.000000       -0.354065         2    ;  uncertainty k = 0.704830
        33        34        18        35     9        0.000000        1.129099         3    ;  uncertainty k = 0.298646
        33        34        18        35     9      180.000000       -0.076611         4    ;  uncertainty k = 0.232941
        33        34        18        73     9        0.000000        1.978203         1    ;  uncertainty k = 1.666874
        33        34        18        73     9      180.000000       -1.271299         2    ;  uncertainty k = 0.522278
        33        34        18        73     9        0.000000        0.588759         3    ;  uncertainty k = 0.273375
        33        34        18        73     9      180.000000        0.019119         4    ;  uncertainty k = 0.172144
        34        18        31        37     9        0.000000       -2.580495         1    ;  uncertainty k = 1.608499
        34        18        31        37     9      180.000000        0.298985         2    ;  uncertainty k = 1.231663
        34        18        31        37     9        0.000000        1.513489         3    ;  uncertainty k = 0.348048
        34        18        31        37     9      180.000000       -0.150708         4    ;  uncertainty k = 0.361386
        34        18        35        36     9        0.000000       -3.064349         1    ;  uncertainty k = 0.690274
        34        18        35        36     9      180.000000        0.593983         2    ;  uncertainty k = 0.871916
        34        18        35        36     9        0.000000        1.471688         3    ;  uncertainty k = 0.329536
        34        18        35        36     9      180.000000       -0.049578         4    ;  uncertainty k = 0.224774
        34        18        35        65     9        0.000000        0.122147         1    ;  uncertainty k = 0.337927
        34        18        35        65     9      180.000000       -0.533425         2    ;  uncertainty k = 0.374997
        34        18        35        65     9        0.000000        1.071767         3    ;  uncertainty k = 0.267585
        34        18        35        65     9      180.000000        0.024694         4    ;  uncertainty k = 0.078256
        34        18        35        66     9        0.000000        0.122147         1    ;  uncertainty k = 0.337927
        34        18        35        66     9      180.000000       -0.533425         2    ;  uncertainty k = 0.374997
        34        18        35        66     9        0.000000        1.071767         3    ;  uncertainty k = 0.267585
        34        18        35        66     9      180.000000        0.024694         4    ;  uncertainty k = 0.078256
        34        33        32        60     9        0.000000       -1.288712         1    ;  uncertainty k = 0.737068
        34        33        32        60     9      180.000000        0.099805         2    ;  uncertainty k = 0.161910
        34        33        32        60     9        0.000000        0.502226         3    ;  uncertainty k = 0.163406
        34        33        32        60     9      180.000000        0.116336         4    ;  uncertainty k = 0.056889
        34        33        32        61     9        0.000000       -1.288712         1    ;  uncertainty k = 0.737068
        34        33        32        61     9      180.000000        0.099805         2    ;  uncertainty k = 0.161910
        34        33        32        61     9        0.000000        0.502226         3    ;  uncertainty k = 0.163406
        34        33        32        61     9      180.000000        0.116336         4    ;  uncertainty k = 0.056889
        35        18        31        37     9        0.000000       -2.904349         1    ;  uncertainty k = 1.168020
        35        18        31        37     9      180.000000        0.314865         2    ;  uncertainty k = 1.137654
        35        18        31        37     9        0.000000        1.538343         3    ;  uncertainty k = 0.335719
        35        18        31        37     9      180.000000       -0.164713         4    ;  uncertainty k = 0.323609
        35        18        34        63     9        0.000000       -0.221573         1    ;  uncertainty k = 0.366295
        35        18        34        63     9      180.000000       -0.325655         2    ;  uncertainty k = 0.290333
        35        18        34        63     9        0.000000        0.987233         3    ;  uncertainty k = 0.254192
        35        18        34        63     9      180.000000        0.005287         4    ;  uncertainty k = 0.051103
        35        18        34        64     9        0.000000       -0.221573         1    ;  uncertainty k = 0.366295
        35        18        34        64     9      180.000000       -0.325655         2    ;  uncertainty k = 0.290333
        35        18        34        64     9        0.000000        0.987233         3    ;  uncertainty k = 0.254192
        35        18        34        64     9      180.000000        0.005287         4    ;  uncertainty k = 0.051103
        35        36        37        69     9        0.000000       -1.708880         1    ;  uncertainty k = 0.515654
        35        36        37        69     9      180.000000        0.019179         2    ;  uncertainty k = 0.079205
        35        36        37        69     9        0.000000        0.831176         3    ;  uncertainty k = 0.073769
        35        36        37        69     9      180.000000        0.171490         4    ;  uncertainty k = 0.040914
        35        36        37        70     9        0.000000       -1.708880         1    ;  uncertainty k = 0.515654
        35        36        37        70     9      180.000000        0.019179         2    ;  uncertainty k = 0.079205
        35        36        37        70     9        0.000000        0.831176         3    ;  uncertainty k = 0.073769
        35        36        37        70     9      180.000000        0.171490         4    ;  uncertainty k = 0.040914
        36        35        18        73     9        0.000000        2.252897         1    ;  uncertainty k = 1.235177
        36        35        18        73     9      180.000000       -0.618196         2    ;  uncertainty k = 0.862018
        36        35        18        73     9        0.000000        0.664194         3    ;  uncertainty k = 0.225898
        36        35        18        73     9      180.000000        0.080725         4    ;  uncertainty k = 0.182553
        37        31        18        73     9        0.000000        1.890107         1    ;  uncertainty k = 1.269200
        37        31        18        73     9      180.000000        0.211733         2    ;  uncertainty k = 0.418481
        37        31        18        73     9        0.000000        0.476288         3    ;  uncertainty k = 0.314515
        37        31        18        73     9      180.000000       -0.117315         4    ;  uncertainty k = 0.183861
        37        31        21        44     9        0.000000       -1.364128         1    ;  uncertainty k = 0.503835
        37        31        21        44     9      180.000000        0.102087         2    ;  uncertainty k = 0.186925
        37        31        21        44     9        0.000000        0.334655         3    ;  uncertainty k = 0.122377
        37        31        21        44     9      180.000000       -0.170263         4    ;  uncertainty k = 0.050608
        37        31        21        45     9        0.000000       -1.364128         1    ;  uncertainty k = 0.503835
        37        31        21        45     9      180.000000        0.102087         2    ;  uncertainty k = 0.186925
        37        31        21        45     9        0.000000        0.334655         3    ;  uncertainty k = 0.122377
        37        31        21        45     9      180.000000       -0.170263         4    ;  uncertainty k = 0.050608
        37        31        32        60     9        0.000000       -0.740047         1    ;  uncertainty k = 0.410287
        37        31        32        60     9      180.000000       -0.024654         2    ;  uncertainty k = 0.241363
        37        31        32        60     9        0.000000        0.630498         3    ;  uncertainty k = 0.202161
        37        31        32        60     9      180.000000        0.022235         4    ;  uncertainty k = 0.076468
        37        31        32        61     9        0.000000       -0.740047         1    ;  uncertainty k = 0.410287
        37        31        32        61     9      180.000000       -0.024654         2    ;  uncertainty k = 0.241363
        37        31        32        61     9        0.000000        0.630498         3    ;  uncertainty k = 0.202161
        37        31        32        61     9      180.000000        0.022235         4    ;  uncertainty k = 0.076468
        37        36        35        65     9        0.000000       -1.505040         1    ;  uncertainty k = 0.251547
        37        36        35        65     9      180.000000       -0.124273         2    ;  uncertainty k = 0.412484
        37        36        35        65     9        0.000000        0.633101         3    ;  uncertainty k = 0.120487
        37        36        35        65     9      180.000000        0.076744         4    ;  uncertainty k = 0.164472
        37        36        35        66     9        0.000000       -1.505040         1    ;  uncertainty k = 0.251547
        37        36        35        66     9      180.000000       -0.124273         2    ;  uncertainty k = 0.412484
        37        36        35        66     9        0.000000        0.633101         3    ;  uncertainty k = 0.120487
        37        36        35        66     9      180.000000        0.076744         4    ;  uncertainty k = 0.164472
        38        12         9        75     9        0.000000        0.020057         1    ;  uncertainty k = 0.888566
        38        12         9        75     9      180.000000        0.712077         2    ;  uncertainty k = 0.715043
        38        12         9        75     9        0.000000        1.233750         3    ;  uncertainty k = 0.278888
        38        12         9        75     9      180.000000        0.129715         4    ;  uncertainty k = 0.116294
        38        12         9        76     9        0.000000        0.020057         1    ;  uncertainty k = 0.888566
        38        12         9        76     9      180.000000        0.712077         2    ;  uncertainty k = 0.715043
        38        12         9        76     9        0.000000        1.233750         3    ;  uncertainty k = 0.278888
        38        12         9        76     9      180.000000        0.129715         4    ;  uncertainty k = 0.116294
        38        12        15        71     9        0.000000       35.132507         1    ;  uncertainty k = 0.865944
        38        12        15        71     9      180.000000       -6.653537         2    ;  uncertainty k = 3.524890
        38        12        15        71     9        0.000000       -6.554290         3    ;  uncertainty k = 1.201722
        38        12        15        71     9      180.000000        3.272543         4    ;  uncertainty k = 0.731414
        38        15        12        74     9        0.000000       39.448027         1    ;  uncertainty k = 1.021898
        38        15        12        74     9      180.000000       -2.898130         2    ;  uncertainty k = 3.721961
        38        15        12        74     9        0.000000       -6.518361         3    ;  uncertainty k = 0.881354
        38        15        12        74     9      180.000000        3.609217         4    ;  uncertainty k = 0.933352
        40        33        32        60     9        0.000000        0.348097         1    ;  uncertainty k = 0.447176
        40        33        32        60     9      180.000000       -0.851337         2    ;  uncertainty k = 0.311957
        40        33        32        60     9        0.000000        1.204142         3    ;  uncertainty k = 0.144007
        40        33        32        60     9      180.000000        0.096041         4    ;  uncertainty k = 0.101433
        40        33        32        61     9        0.000000        0.348097         1    ;  uncertainty k = 0.447176
        40        33        32        61     9      180.000000       -0.851337         2    ;  uncertainty k = 0.311957
        40        33        32        61     9        0.000000        1.204142         3    ;  uncertainty k = 0.144007
        40        33        32        61     9      180.000000        0.096041         4    ;  uncertainty k = 0.101433
        40        33        34        63     9        0.000000        0.439589         1    ;  uncertainty k = 0.629587
        40        33        34        63     9      180.000000       -1.005087         2    ;  uncertainty k = 0.173890
        40        33        34        63     9        0.000000        1.027237         3    ;  uncertainty k = 0.285939
        40        33        34        63     9      180.000000        0.049461         4    ;  uncertainty k = 0.064409
        40        33        34        64     9        0.000000        0.439589         1    ;  uncertainty k = 0.629587
        40        33        34        64     9      180.000000       -1.005087         2    ;  uncertainty k = 0.173890
        40        33        34        64     9        0.000000        1.027237         3    ;  uncertainty k = 0.285939
        40        33        34        64     9      180.000000        0.049461         4    ;  uncertainty k = 0.064409
        41        30        29        57     9        0.000000        0.067908         1    ;  uncertainty k = 0.094563
        41        30        29        57     9      180.000000        7.421041         2    ;  uncertainty k = 0.379633
        41        30        29        57     9        0.000000       -0.380323         3    ;  uncertainty k = 0.332097
        41        30        29        57     9      180.000000        0.054401         4    ;  uncertainty k = 0.157656
        43        16        23        48     9        0.000000       -1.423010         1    ;  uncertainty k = 0.616460
        43        16        23        48     9      180.000000        1.515703         2    ;  uncertainty k = 1.087822
        43        16        23        48     9        0.000000        0.256622         3    ;  uncertainty k = 0.208318
        43        16        23        48     9      180.000000       -0.095640         4    ;  uncertainty k = 0.130121
        43        16        24        49     9        0.000000       -1.423010         1    ;  uncertainty k = 0.616460
        43        16        24        49     9      180.000000        1.515703         2    ;  uncertainty k = 1.087822
        43        16        24        49     9        0.000000        0.256622         3    ;  uncertainty k = 0.208318
        43        16        24        49     9      180.000000       -0.095640         4    ;  uncertainty k = 0.130121
        46        22        23        48     9        0.000000       -0.439454         1    ;  uncertainty k = 0.906270
        46        22        23        48     9      180.000000        0.487195         2    ;  uncertainty k = 0.479541
        46        22        23        48     9        0.000000        0.253527         3    ;  uncertainty k = 0.175912
        46        22        23        48     9      180.000000       -0.139844         4    ;  uncertainty k = 0.167927
        47        22        23        48     9        0.000000       -0.439454         1    ;  uncertainty k = 0.906270
        47        22        23        48     9      180.000000        0.487195         2    ;  uncertainty k = 0.479541
        47        22        23        48     9        0.000000        0.253527         3    ;  uncertainty k = 0.175912
        47        22        23        48     9      180.000000       -0.139844         4    ;  uncertainty k = 0.167927
        48        23        16        72     9        0.000000       -1.423010         1    ;  uncertainty k = 0.616460
        48        23        16        72     9      180.000000        1.515703         2    ;  uncertainty k = 1.087822
        48        23        16        72     9        0.000000        0.256622         3    ;  uncertainty k = 0.208318
        48        23        16        72     9      180.000000       -0.095640         4    ;  uncertainty k = 0.130121
        48        23        27        54     9        0.000000        1.228961         1    ;  uncertainty k = 0.553312
        48        23        27        54     9      180.000000       -0.001863         2    ;  uncertainty k = 0.239275
        48        23        27        54     9        0.000000        0.353228         3    ;  uncertainty k = 0.286862
        48        23        27        54     9      180.000000        0.045306         4    ;  uncertainty k = 0.112735
        48        23        27        55     9        0.000000        1.228961         1    ;  uncertainty k = 0.553312
        48        23        27        55     9      180.000000       -0.001863         2    ;  uncertainty k = 0.239275
        48        23        27        55     9        0.000000        0.353228         3    ;  uncertainty k = 0.286862
        48        23        27        55     9      180.000000        0.045306         4    ;  uncertainty k = 0.112735
        49        24        16        72     9        0.000000       -1.423010         1    ;  uncertainty k = 0.616460
        49        24        16        72     9      180.000000        1.515703         2    ;  uncertainty k = 1.087822
        49        24        16        72     9        0.000000        0.256622         3    ;  uncertainty k = 0.208318
        49        24        16        72     9      180.000000       -0.095640         4    ;  uncertainty k = 0.130121
        49        24        25        50     9        0.000000       -0.439454         1    ;  uncertainty k = 0.906270
        49        24        25        50     9      180.000000        0.487195         2    ;  uncertainty k = 0.479541
        49        24        25        50     9        0.000000        0.253527         3    ;  uncertainty k = 0.175912
        49        24        25        50     9      180.000000       -0.139844         4    ;  uncertainty k = 0.167927
        49        24        25        51     9        0.000000       -0.439454         1    ;  uncertainty k = 0.906270
        49        24        25        51     9      180.000000        0.487195         2    ;  uncertainty k = 0.479541
        49        24        25        51     9        0.000000        0.253527         3    ;  uncertainty k = 0.175912
        49        24        25        51     9      180.000000       -0.139844         4    ;  uncertainty k = 0.167927
        49        24        26        52     9        0.000000        1.228961         1    ;  uncertainty k = 0.553312
        49        24        26        52     9      180.000000       -0.001863         2    ;  uncertainty k = 0.239275
        49        24        26        52     9        0.000000        0.353228         3    ;  uncertainty k = 0.286862
        49        24        26        52     9      180.000000        0.045306         4    ;  uncertainty k = 0.112735
        49        24        26        53     9        0.000000        1.228961         1    ;  uncertainty k = 0.553312
        49        24        26        53     9      180.000000       -0.001863         2    ;  uncertainty k = 0.239275
        49        24        26        53     9        0.000000        0.353228         3    ;  uncertainty k = 0.286862
        49        24        26        53     9      180.000000        0.045306         4    ;  uncertainty k = 0.112735
        52        26        27        54     9        0.000000        1.361375         1    ;  uncertainty k = 0.592307
        52        26        27        54     9      180.000000       -0.075431         2    ;  uncertainty k = 0.471152
        52        26        27        54     9        0.000000        1.070581         3    ;  uncertainty k = 0.228523
        52        26        27        54     9      180.000000        0.077192         4    ;  uncertainty k = 0.031932
        52        26        27        55     9        0.000000        1.361375         1    ;  uncertainty k = 0.592307
        52        26        27        55     9      180.000000       -0.075431         2    ;  uncertainty k = 0.471152
        52        26        27        55     9        0.000000        1.070581         3    ;  uncertainty k = 0.228523
        52        26        27        55     9      180.000000        0.077192         4    ;  uncertainty k = 0.031932
        53        26        27        54     9        0.000000        1.361375         1    ;  uncertainty k = 0.592307
        53        26        27        54     9      180.000000       -0.075431         2    ;  uncertainty k = 0.471152
        53        26        27        54     9        0.000000        1.070581         3    ;  uncertainty k = 0.228523
        53        26        27        54     9      180.000000        0.077192         4    ;  uncertainty k = 0.031932
        53        26        27        55     9        0.000000        1.361375         1    ;  uncertainty k = 0.592307
        53        26        27        55     9      180.000000       -0.075431         2    ;  uncertainty k = 0.471152
        53        26        27        55     9        0.000000        1.070581         3    ;  uncertainty k = 0.228523
        53        26        27        55     9      180.000000        0.077192         4    ;  uncertainty k = 0.031932
        56        28        29        57     9        0.000000       -0.080651         1    ;  uncertainty k = 0.194993
        56        28        29        57     9      180.000000        7.729923         2    ;  uncertainty k = 0.308887
        56        28        29        57     9        0.000000       -0.385007         3    ;  uncertainty k = 0.225492
        56        28        29        57     9      180.000000        0.185289         4    ;  uncertainty k = 0.122996
        58        38        12        74     9        0.000000        1.520924         1    ;  uncertainty k = 1.990386
        58        38        12        74     9      180.000000        3.127864         2    ;  uncertainty k = 1.914585
        58        38        12        74     9        0.000000        0.554417         3    ;  uncertainty k = 0.482770
        58        38        12        74     9      180.000000       -0.702415         4    ;  uncertainty k = 0.385700
        58        38        15        71     9        0.000000        1.541216         1    ;  uncertainty k = 1.779466
        58        38        15        71     9      180.000000        1.294627         2    ;  uncertainty k = 1.870130
        58        38        15        71     9        0.000000        0.469858         3    ;  uncertainty k = 0.321242
        58        38        15        71     9      180.000000       -0.758447         4    ;  uncertainty k = 0.321335
        59        38        12        74     9        0.000000        1.520924         1    ;  uncertainty k = 1.990386
        59        38        12        74     9      180.000000        3.127864         2    ;  uncertainty k = 1.914585
        59        38        12        74     9        0.000000        0.554417         3    ;  uncertainty k = 0.482770
        59        38        12        74     9      180.000000       -0.702415         4    ;  uncertainty k = 0.385700
        59        38        15        71     9        0.000000        1.541216         1    ;  uncertainty k = 1.779466
        59        38        15        71     9      180.000000        1.294627         2    ;  uncertainty k = 1.870130
        59        38        15        71     9        0.000000        0.469858         3    ;  uncertainty k = 0.321242
        59        38        15        71     9      180.000000       -0.758447         4    ;  uncertainty k = 0.321335
        60        32        33        62     9        0.000000        0.658717         1    ;  uncertainty k = 0.774984
        60        32        33        62     9      180.000000       -0.273207         2    ;  uncertainty k = 0.164962
        60        32        33        62     9        0.000000        0.711463         3    ;  uncertainty k = 0.107578
        60        32        33        62     9      180.000000        0.126313         4    ;  uncertainty k = 0.070131
        61        32        33        62     9        0.000000        0.658717         1    ;  uncertainty k = 0.774984
        61        32        33        62     9      180.000000       -0.273207         2    ;  uncertainty k = 0.164962
        61        32        33        62     9        0.000000        0.711463         3    ;  uncertainty k = 0.107578
        61        32        33        62     9      180.000000        0.126313         4    ;  uncertainty k = 0.070131
        62        33        34        63     9        0.000000        0.100408         1    ;  uncertainty k = 0.231069
        62        33        34        63     9      180.000000       -0.495488         2    ;  uncertainty k = 0.217883
        62        33        34        63     9        0.000000        0.589146         3    ;  uncertainty k = 0.139819
        62        33        34        63     9      180.000000        0.148881         4    ;  uncertainty k = 0.094939
        62        33        34        64     9        0.000000        0.100408         1    ;  uncertainty k = 0.231069
        62        33        34        64     9      180.000000       -0.495488         2    ;  uncertainty k = 0.217883
        62        33        34        64     9        0.000000        0.589146         3    ;  uncertainty k = 0.139819
        62        33        34        64     9      180.000000        0.148881         4    ;  uncertainty k = 0.094939
        63        34        18        73     9        0.000000        0.456024         1    ;  uncertainty k = 0.547609
        63        34        18        73     9      180.000000       -0.689750         2    ;  uncertainty k = 0.168360
        63        34        18        73     9        0.000000        0.413910         3    ;  uncertainty k = 0.150476
        63        34        18        73     9      180.000000        0.128154         4    ;  uncertainty k = 0.042437
        64        34        18        73     9        0.000000        0.456024         1    ;  uncertainty k = 0.547609
        64        34        18        73     9      180.000000       -0.689750         2    ;  uncertainty k = 0.168360
        64        34        18        73     9        0.000000        0.413910         3    ;  uncertainty k = 0.150476
        64        34        18        73     9      180.000000        0.128154         4    ;  uncertainty k = 0.042437
        65        35        18        73     9        0.000000        0.454366         1    ;  uncertainty k = 0.372926
        65        35        18        73     9      180.000000       -0.609749         2    ;  uncertainty k = 0.186274
        65        35        18        73     9        0.000000        0.461123         3    ;  uncertainty k = 0.126286
        65        35        18        73     9      180.000000        0.133248         4    ;  uncertainty k = 0.070372
        65        35        36        67     9        0.000000        0.687508         1    ;  uncertainty k = 0.278541
        65        35        36        67     9      180.000000       -0.200380         2    ;  uncertainty k = 0.335904
        65        35        36        67     9        0.000000        0.639698         3    ;  uncertainty k = 0.146670
        65        35        36        67     9      180.000000        0.083502         4    ;  uncertainty k = 0.078470
        65        35        36        68     9        0.000000        0.687508         1    ;  uncertainty k = 0.278541
        65        35        36        68     9      180.000000       -0.200380         2    ;  uncertainty k = 0.335904
        65        35        36        68     9        0.000000        0.639698         3    ;  uncertainty k = 0.146670
        65        35        36        68     9      180.000000        0.083502         4    ;  uncertainty k = 0.078470
        66        35        18        73     9        0.000000        0.454366         1    ;  uncertainty k = 0.372926
        66        35        18        73     9      180.000000       -0.609749         2    ;  uncertainty k = 0.186274
        66        35        18        73     9        0.000000        0.461123         3    ;  uncertainty k = 0.126286
        66        35        18        73     9      180.000000        0.133248         4    ;  uncertainty k = 0.070372
        66        35        36        67     9        0.000000        0.687508         1    ;  uncertainty k = 0.278541
        66        35        36        67     9      180.000000       -0.200380         2    ;  uncertainty k = 0.335904
        66        35        36        67     9        0.000000        0.639698         3    ;  uncertainty k = 0.146670
        66        35        36        67     9      180.000000        0.083502         4    ;  uncertainty k = 0.078470
        66        35        36        68     9        0.000000        0.687508         1    ;  uncertainty k = 0.278541
        66        35        36        68     9      180.000000       -0.200380         2    ;  uncertainty k = 0.335904
        66        35        36        68     9        0.000000        0.639698         3    ;  uncertainty k = 0.146670
        66        35        36        68     9      180.000000        0.083502         4    ;  uncertainty k = 0.078470
        67        36        37        69     9        0.000000        1.247081         1    ;  uncertainty k = 0.383884
        67        36        37        69     9      180.000000       -0.045480         2    ;  uncertainty k = 0.119907
        67        36        37        69     9        0.000000        0.748786         3    ;  uncertainty k = 0.078538
        67        36        37        69     9      180.000000        0.077516         4    ;  uncertainty k = 0.057380
        67        36        37        70     9        0.000000        1.247081         1    ;  uncertainty k = 0.383884
        67        36        37        70     9      180.000000       -0.045480         2    ;  uncertainty k = 0.119907
        67        36        37        70     9        0.000000        0.748786         3    ;  uncertainty k = 0.078538
        67        36        37        70     9      180.000000        0.077516         4    ;  uncertainty k = 0.057380
        68        36        37        69     9        0.000000        1.247081         1    ;  uncertainty k = 0.383884
        68        36        37        69     9      180.000000       -0.045480         2    ;  uncertainty k = 0.119907
        68        36        37        69     9        0.000000        0.748786         3    ;  uncertainty k = 0.078538
        68        36        37        69     9      180.000000        0.077516         4    ;  uncertainty k = 0.057380
        68        36        37        70     9        0.000000        1.247081         1    ;  uncertainty k = 0.383884
        68        36        37        70     9      180.000000       -0.045480         2    ;  uncertainty k = 0.119907
        68        36        37        70     9        0.000000        0.748786         3    ;  uncertainty k = 0.078538
        68        36        37        70     9      180.000000        0.077516         4    ;  uncertainty k = 0.057380
        71        15        12        74     9        0.000000        7.372600         1    ;  uncertainty k = 1.826537
        71        15        12        74     9      180.000000        0.021640         2    ;  uncertainty k = 1.563435
        71        15        12        74     9        0.000000        0.450716         3    ;  uncertainty k = 0.415189
        71        15        12        74     9      180.000000       -0.073120         4    ;  uncertainty k = 0.193657
        74        12         9        75     9        0.000000       -0.165631         1    ;  uncertainty k = 0.421341
        74        12         9        75     9      180.000000        0.066065         2    ;  uncertainty k = 0.191403
        74        12         9        75     9        0.000000        0.954652         3    ;  uncertainty k = 0.180534
        74        12         9        75     9      180.000000        0.214426         4    ;  uncertainty k = 0.129001
        74        12         9        76     9        0.000000       -0.165631         1    ;  uncertainty k = 0.421341
        74        12         9        76     9      180.000000        0.066065         2    ;  uncertainty k = 0.191403
        74        12         9        76     9        0.000000        0.954652         3    ;  uncertainty k = 0.180534
        74        12         9        76     9      180.000000        0.214426         4    ;  uncertainty k = 0.129001

[ dihedrals ] ; impropers
;       ai        aj        ak        al funct           phase               k        pn
         1         5        11        14     4      180.000000        6.151423         2    ;  uncertainty k = 0.251921
         1        11        14         5     4      180.000000        6.151423         2    ;  uncertainty k = 0.251921
         1        14         5        11     4      180.000000        6.151423         2    ;  uncertainty k = 0.251921
         2         6        15        30     4      180.000000        5.928202         2    ;  uncertainty k = 0.475820
         2        15        30         6     4      180.000000        5.928202         2    ;  uncertainty k = 0.475820
         2        30         6        15     4      180.000000        5.928202         2    ;  uncertainty k = 0.475820
         5         1         3        19     4      180.000000       18.947262         2    ;  uncertainty k = 0.136764
         5         3        19         1     4      180.000000       18.947262         2    ;  uncertainty k = 0.136764
         5        19         1         3     4      180.000000       18.947262         2    ;  uncertainty k = 0.136764
         6         2         9        20     4      180.000000        5.942356         2    ;  uncertainty k = 0.486383
         6         9        20         2     4      180.000000        5.942356         2    ;  uncertainty k = 0.486383
         6        20         2         9     4      180.000000        5.942356         2    ;  uncertainty k = 0.486383
         8         3         4         7     4      180.000000       41.196877         2    ;  uncertainty k = 0.078548
         8         4         7         3     4      180.000000       41.196877         2    ;  uncertainty k = 0.078548
         8         7         3         4     4      180.000000       41.196877         2    ;  uncertainty k = 0.078548
        11         1         7        13     4      180.000000       34.127780         2    ;  uncertainty k = 0.152435
        11         7        13         1     4      180.000000       34.127780         2    ;  uncertainty k = 0.152435
        11        13         1         7     4      180.000000       34.127780         2    ;  uncertainty k = 0.152435
        14         1        10        42     4      180.000000       14.648738         2    ;  uncertainty k = 0.110158
        14        10        42         1     4      180.000000       14.648738         2    ;  uncertainty k = 0.110158
        14        42         1        10     4      180.000000       14.648738         2    ;  uncertainty k = 0.110158
        17        10        19        20     4      180.000000       23.750246         2    ;  uncertainty k = 0.084946
        17        19        20        10     4      180.000000       23.750246         2    ;  uncertainty k = 0.084946
        17        20        10        19     4      180.000000       23.750246         2    ;  uncertainty k = 0.084946
        19         5        17        39     4      180.000000       13.374568         2    ;  uncertainty k = 0.224172
        19        17        39         5     4      180.000000       13.374568         2    ;  uncertainty k = 0.224172
        19        39         5        17     4      180.000000       13.374568         2    ;  uncertainty k = 0.224172
        20         6        17        28     4      180.000000       12.383060         2    ;  uncertainty k = 0.156878
        20        17        28         6     4      180.000000       12.383060         2    ;  uncertainty k = 0.156878
        20        28         6        17     4      180.000000       12.383060         2    ;  uncertainty k = 0.156878
        28        20        29        56     4      180.000000        3.834427         2    ;  uncertainty k = 0.118744
        28        29        56        20     4      180.000000        3.834427         2    ;  uncertainty k = 0.118744
        28        56        20        29     4      180.000000        3.834427         2    ;  uncertainty k = 0.118744
        29        28        30        57     4      180.000000        3.538581         2    ;  uncertainty k = 0.267021
        29        30        57        28     4      180.000000        3.538581         2    ;  uncertainty k = 0.267021
        29        57        28        30     4      180.000000        3.538581         2    ;  uncertainty k = 0.267021
        30         2        29        41     4      180.000000        4.343884         2    ;  uncertainty k = 0.253102
        30        29        41         2     4      180.000000        4.343884         2    ;  uncertainty k = 0.253102
        30        41         2        29     4      180.000000        4.343884         2    ;  uncertainty k = 0.253102

[ pairs ]
;       ai        aj funct
         1         8     1
         1        17     1
         1        22     1
         1        25     1
         1        39     1
         2        17     1
         2        28     1
         2        57     1
         2        58     1
         2        59     1
         2        74     1
         2        75     1
         2        76     1
         3        11     1
         3        14     1
         3        17     1
         3        21     1
         3        39     1
         4         5     1
         4        11     1
         4        18     1
         4        32     1
         4        37     1
         5         7     1
         5        10     1
         5        13     1
         5        20     1
         5        42     1
         6        10     1
         6        19     1
         6        29     1
         6        38     1
         6        41     1
         6        56     1
         6        71     1
         6        74     1
         7        14     1
         7        21     1
         7        22     1
         7        25     1
         8        13     1
         8        19     1
         8        31     1
         8        44     1
         8        45     1
         9        17     1
         9        28     1
         9        30     1
         9        58     1
         9        59     1
         9        71     1
        10        11     1
        10        28     1
        10        39     1
        11        19     1
        11        23     1
        11        24     1
        11        42     1
        11        46     1
        11        47     1
        11        50     1
        11        51     1
        12        20     1
        12        30     1
        13        14     1
        13        16     1
        13        26     1
        13        27     1
        13        48     1
        13        49     1
        14        19     1
        14        20     1
        15        20     1
        15        29     1
        15        41     1
        15        75     1
        15        76     1
        16        46     1
        16        47     1
        16        50     1
        16        51     1
        16        52     1
        16        53     1
        16        54     1
        16        55     1
        17        29     1
        17        42     1
        17        56     1
        18        40     1
        18        44     1
        18        45     1
        18        60     1
        18        61     1
        18        62     1
        18        67     1
        18        68     1
        18        69     1
        18        70     1
        19        28     1
        20        30     1
        20        39     1
        20        57     1
        20        75     1
        20        76     1
        21        33     1
        21        34     1
        21        35     1
        21        36     1
        21        60     1
        21        61     1
        21        69     1
        21        70     1
        21        73     1
        22        24     1
        22        26     1
        22        43     1
        22        50     1
        22        51     1
        22        54     1
        22        55     1
        22        72     1
        23        25     1
        23        49     1
        23        52     1
        23        53     1
        24        48     1
        24        54     1
        24        55     1
        25        27     1
        25        43     1
        25        46     1
        25        47     1
        25        52     1
        25        53     1
        25        72     1
        26        43     1
        26        48     1
        26        50     1
        26        51     1
        26        72     1
        27        43     1
        27        46     1
        27        47     1
        27        49     1
        27        72     1
        28        41     1
        30        38     1
        30        56     1
        30        71     1
        31        40     1
        31        62     1
        31        63     1
        31        64     1
        31        65     1
        31        66     1
        31        67     1
        31        68     1
        32        35     1
        32        36     1
        32        44     1
        32        45     1
        32        63     1
        32        64     1
        32        69     1
        32        70     1
        32        73     1
        33        35     1
        33        37     1
        33        73     1
        34        36     1
        34        37     1
        34        60     1
        34        61     1
        34        65     1
        34        66     1
        35        63     1
        35        64     1
        35        69     1
        35        70     1
        36        73     1
        37        44     1
        37        45     1
        37        60     1
        37        61     1
        37        65     1
        37        66     1
        37        73     1
        38        75     1
        38        76     1
        40        60     1
        40        61     1
        40        63     1
        40        64     1
        41        57     1
        43        48     1
        43        49     1
        46        48     1
        47        48     1
        48        54     1
        48        55     1
        48        72     1
        49        50     1
        49        51     1
        49        52     1
        49        53     1
        49        72     1
        52        54     1
        52        55     1
        53        54     1
        53        55     1
        56        57     1
        58        71     1
        58        74     1
        59        71     1
        59        74     1
        60        62     1
        61        62     1
        62        63     1
        62        64     1
        63        73     1
        64        73     1
        65        67     1
        65        68     1
        65        73     1
        66        67     1
        66        68     1
        66        73     1
        67        69     1
        67        70     1
        68        69     1
        68        70     1
        71        74     1
        74        75     1
        74        76     1
