; ITP file created by ByteFF-joint-25, 2026-01-07 07:35:30.284687

[ atomtypes ]
;name           bonded.type        at.num        mass        charge   ptype           sigma         epsilon
 c0bf                                   6      0.0000       0.00000       A     3.31609e-01     4.13754e-01    ;  uncertainty sigma = 0.000037, epsilon = 0.001385
 n1bf                                   7      0.0000       0.00000       A     3.38379e-01     3.93387e-01    ;  uncertainty sigma = 0.000023, epsilon = 0.000836
 o2bf                                   8      0.0000       0.00000       A     3.15717e-01     3.04039e-01    ;  uncertainty sigma = 0.000030, epsilon = 0.003724
 c3bf                                   6      0.0000       0.00000       A     3.31558e-01     4.13054e-01    ;  uncertainty sigma = 0.000015, epsilon = 0.001911
 n4bf                                   7      0.0000       0.00000       A     3.38414e-01     3.93806e-01    ;  uncertainty sigma = 0.000029, epsilon = 0.000903
 c5bf                                   6      0.0000       0.00000       A     3.31540e-01     4.14420e-01    ;  uncertainty sigma = 0.000020, epsilon = 0.000938
 n6bf                                   7      0.0000       0.00000       A     3.38420e-01     3.93578e-01    ;  uncertainty sigma = 0.000016, epsilon = 0.000873
 c7bf                                   6      0.0000       0.00000       A     3.31572e-01     4.13781e-01    ;  uncertainty sigma = 0.000022, epsilon = 0.001282
 n8bf                                   7      0.0000       0.00000       A     3.19092e-01     8.99502e-01    ;  uncertainty sigma = 0.000028, epsilon = 0.008757
 c9bf                                   6      0.0000       0.00000       A     3.31514e-01     4.12984e-01    ;  uncertainty sigma = 0.000024, epsilon = 0.001071
 n10bf                                  7      0.0000       0.00000       A     2.67683e-01     7.09588e+00    ;  uncertainty sigma = 0.000108, epsilon = 0.014793
 c11bf                                  6      0.0000       0.00000       A     3.31556e-01     4.13362e-01    ;  uncertainty sigma = 0.000019, epsilon = 0.000987
 n12bf                                  7      0.0000       0.00000       A     2.58910e-01     1.06608e+01    ;  uncertainty sigma = 0.000158, epsilon = 0.005288
 c13bf                                  6      0.0000       0.00000       A     3.31553e-01     4.12771e-01    ;  uncertainty sigma = 0.000016, epsilon = 0.000462
 c14bf                                  6      0.0000       0.00000       A     3.31430e-01     4.12607e-01    ;  uncertainty sigma = 0.000039, epsilon = 0.001300
 c15bf                                  6      0.0000       0.00000       A     3.39606e-01     4.50330e-01    ;  uncertainty sigma = 0.000116, epsilon = 0.001780
 c16bf                                  6      0.0000       0.00000       A     3.39764e-01     4.51773e-01    ;  uncertainty sigma = 0.000031, epsilon = 0.001688
 c17bf                                  6      0.0000       0.00000       A     3.39827e-01     4.49600e-01    ;  uncertainty sigma = 0.000034, epsilon = 0.001832
 c18bf                                  6      0.0000       0.00000       A     3.39827e-01     4.49600e-01    ;  uncertainty sigma = 0.000034, epsilon = 0.001832
 c19bf                                  6      0.0000       0.00000       A     3.39764e-01     4.51773e-01    ;  uncertainty sigma = 0.000031, epsilon = 0.001688
 c20bf                                  6      0.0000       0.00000       A     3.39736e-01     4.50291e-01    ;  uncertainty sigma = 0.000017, epsilon = 0.001100
 c21bf                                  6      0.0000       0.00000       A     3.39736e-01     4.50291e-01    ;  uncertainty sigma = 0.000017, epsilon = 0.001100
 c22bf                                  6      0.0000       0.00000       A     3.31544e-01     4.13073e-01    ;  uncertainty sigma = 0.000013, epsilon = 0.001240
 c23bf                                  6      0.0000       0.00000       A     3.31533e-01     4.13232e-01    ;  uncertainty sigma = 0.000003, epsilon = 0.000669
 c24bf                                  6      0.0000       0.00000       A     3.31523e-01     4.13447e-01    ;  uncertainty sigma = 0.000005, epsilon = 0.000575
 c25bf                                  6      0.0000       0.00000       A     3.31499e-01     4.13202e-01    ;  uncertainty sigma = 0.000016, epsilon = 0.000860
 c26bf                                  6      0.0000       0.00000       A     3.31669e-01     4.13140e-01    ;  uncertainty sigma = 0.000089, epsilon = 0.002407
 c27bf                                  6      0.0000       0.00000       A     3.31522e-01     4.13442e-01    ;  uncertainty sigma = 0.000003, epsilon = 0.000597
 c28bf                                  6      0.0000       0.00000       A     3.31524e-01     4.13351e-01    ;  uncertainty sigma = 0.000001, epsilon = 0.000694
 c29bf                                  6      0.0000       0.00000       A     3.31534e-01     4.13157e-01    ;  uncertainty sigma = 0.000003, epsilon = 0.000518
 c30bf                                  6      0.0000       0.00000       A     3.31524e-01     4.13693e-01    ;  uncertainty sigma = 0.000021, epsilon = 0.001117
 c31bf                                  6      0.0000       0.00000       A     3.39766e-01     4.50215e-01    ;  uncertainty sigma = 0.000031, epsilon = 0.002322
 c32bf                                  6      0.0000       0.00000       A     3.39798e-01     4.50987e-01    ;  uncertainty sigma = 0.000021, epsilon = 0.000717
 c33bf                                  6      0.0000       0.00000       A     3.39806e-01     4.50159e-01    ;  uncertainty sigma = 0.000037, epsilon = 0.001448
 c34bf                                  6      0.0000       0.00000       A     3.39826e-01     4.50989e-01    ;  uncertainty sigma = 0.000014, epsilon = 0.001563
 c35bf                                  6      0.0000       0.00000       A     3.39760e-01     4.51588e-01    ;  uncertainty sigma = 0.000017, epsilon = 0.001104
 c36bf                                  6      0.0000       0.00000       A     3.39752e-01     4.50838e-01    ;  uncertainty sigma = 0.000045, epsilon = 0.001063
 c37bf                                  6      0.0000       0.00000       A     3.39760e-01     4.50289e-01    ;  uncertainty sigma = 0.000031, epsilon = 0.000708
 cl38bf                                17      0.0000       0.00000       A     3.46677e-01     1.10543e+00    ;  uncertainty sigma = 0.000020, epsilon = 0.001322
 f39bf                                  9      0.0000       0.00000       A     3.03347e-01     3.48613e-01    ;  uncertainty sigma = 0.000031, epsilon = 0.001874
 f40bf                                  9      0.0000       0.00000       A     3.03453e-01     3.48209e-01    ;  uncertainty sigma = 0.000041, epsilon = 0.002505
 h41bf                                  1      0.0000       0.00000       A     2.62579e-01     6.69590e-02    ;  uncertainty sigma = 0.000009, epsilon = 0.000443
 h42bf                                  1      0.0000       0.00000       A     2.53623e-01     6.70308e-02    ;  uncertainty sigma = 0.000068, epsilon = 0.000562
 h43bf                                  1      0.0000       0.00000       A     1.10717e-01     3.90827e-02    ;  uncertainty sigma = 0.000124, epsilon = 0.002380
 h44bf                                  1      0.0000       0.00000       A     2.42234e-01     8.69301e-02    ;  uncertainty sigma = 0.000073, epsilon = 0.001078
 h45bf                                  1      0.0000       0.00000       A     2.42234e-01     8.69301e-02    ;  uncertainty sigma = 0.000073, epsilon = 0.001078
 h46bf                                  1      0.0000       0.00000       A     2.42256e-01     8.68712e-02    ;  uncertainty sigma = 0.000054, epsilon = 0.000742
 h47bf                                  1      0.0000       0.00000       A     2.42256e-01     8.68712e-02    ;  uncertainty sigma = 0.000054, epsilon = 0.000742
 h48bf                                  1      0.0000       0.00000       A     1.88892e-01     8.79018e-02    ;  uncertainty sigma = 0.000675, epsilon = 0.002116
 h49bf                                  1      0.0000       0.00000       A     1.88892e-01     8.79018e-02    ;  uncertainty sigma = 0.000675, epsilon = 0.002116
 h50bf                                  1      0.0000       0.00000       A     2.42256e-01     8.68712e-02    ;  uncertainty sigma = 0.000054, epsilon = 0.000742
 h51bf                                  1      0.0000       0.00000       A     2.42256e-01     8.68712e-02    ;  uncertainty sigma = 0.000054, epsilon = 0.000742
 h52bf                                  1      0.0000       0.00000       A     2.60051e-01     8.66631e-02    ;  uncertainty sigma = 0.000008, epsilon = 0.001058
 h53bf                                  1      0.0000       0.00000       A     2.60051e-01     8.66631e-02    ;  uncertainty sigma = 0.000008, epsilon = 0.001058
 h54bf                                  1      0.0000       0.00000       A     2.60051e-01     8.66631e-02    ;  uncertainty sigma = 0.000008, epsilon = 0.001058
 h55bf                                  1      0.0000       0.00000       A     2.60051e-01     8.66631e-02    ;  uncertainty sigma = 0.000008, epsilon = 0.001058
 h56bf                                  1      0.0000       0.00000       A     2.62567e-01     6.70643e-02    ;  uncertainty sigma = 0.000014, epsilon = 0.000525
 h57bf                                  1      0.0000       0.00000       A     2.62559e-01     6.70662e-02    ;  uncertainty sigma = 0.000013, epsilon = 0.000302
 h58bf                                  1      0.0000       0.00000       A     2.62559e-01     6.70662e-02    ;  uncertainty sigma = 0.000013, epsilon = 0.000302
 h59bf                                  1      0.0000       0.00000       A     2.62580e-01     6.69365e-02    ;  uncertainty sigma = 0.000006, epsilon = 0.000504
 h60bf                                  1      0.0000       0.00000       A     2.59981e-01     8.69645e-02    ;  uncertainty sigma = 0.000021, epsilon = 0.000707
 h61bf                                  1      0.0000       0.00000       A     2.59981e-01     8.69645e-02    ;  uncertainty sigma = 0.000021, epsilon = 0.000707
 h62bf                                  1      0.0000       0.00000       A     2.42224e-01     8.64288e-02    ;  uncertainty sigma = 0.000076, epsilon = 0.001445
 h63bf                                  1      0.0000       0.00000       A     1.88740e-01     8.59742e-02    ;  uncertainty sigma = 0.000146, epsilon = 0.001318
 h64bf                                  1      0.0000       0.00000       A     1.88740e-01     8.59742e-02    ;  uncertainty sigma = 0.000146, epsilon = 0.001318
 h65bf                                  1      0.0000       0.00000       A     1.88743e-01     8.53836e-02    ;  uncertainty sigma = 0.000048, epsilon = 0.000360
 h66bf                                  1      0.0000       0.00000       A     1.88743e-01     8.53836e-02    ;  uncertainty sigma = 0.000048, epsilon = 0.000360
 h67bf                                  1      0.0000       0.00000       A     2.59996e-01     8.64834e-02    ;  uncertainty sigma = 0.000020, epsilon = 0.000411
 h68bf                                  1      0.0000       0.00000       A     2.59996e-01     8.64834e-02    ;  uncertainty sigma = 0.000020, epsilon = 0.000411
 h69bf                                  1      0.0000       0.00000       A     2.60017e-01     8.67763e-02    ;  uncertainty sigma = 0.000029, epsilon = 0.000562
 h70bf                                  1      0.0000       0.00000       A     2.60017e-01     8.67763e-02    ;  uncertainty sigma = 0.000029, epsilon = 0.000562
 h71bf                                  1      0.0000       0.00000       A     2.62556e-01     6.69104e-02    ;  uncertainty sigma = 0.000012, epsilon = 0.000642
 h72bf                                  1      0.0000       0.00000       A     1.10717e-01     3.90825e-02    ;  uncertainty sigma = 0.000124, epsilon = 0.002380
 h73bf                                  1      0.0000       0.00000       A     1.10684e-01     4.10175e-02    ;  uncertainty sigma = 0.000227, epsilon = 0.004708

[ moleculetype ]
;name             nrexcl
 MOL                   3

[ atoms ]
;       nr            type      resi   res      atom      cgnr      charge          mass ; qtot
         1            c0bf         1   UNL        c0         1    -0.39996       12.0110 ; qtot   -0.400
         2            n1bf         1   UNL        n1         2    -0.74679       14.0070 ; qtot   -1.147
         3            o2bf         1   UNL        o2         3    -0.41359       15.9990 ; qtot   -1.560
         4            c3bf         1   UNL        c3         4     0.46726       12.0110 ; qtot   -1.093
         5            n4bf         1   UNL        n4         5    -0.82134       14.0070 ; qtot   -1.914
         6            c5bf         1   UNL        c5         6     0.93489       12.0110 ; qtot   -0.980
         7            n6bf         1   UNL        n6         7    -0.64258       14.0070 ; qtot   -1.622
         8            c7bf         1   UNL        c7         8     0.73686       12.0110 ; qtot   -0.885
         9            n8bf         1   UNL        n8         9    -0.77286       14.0070 ; qtot   -1.658
        10            c9bf         1   UNL        c9        10     0.45987       12.0110 ; qtot   -1.198
        11           n10bf         1   UNL       n10        11    -0.80074       14.0070 ; qtot   -1.999
        12           c11bf         1   UNL       c11        12     0.44225       12.0110 ; qtot   -1.557
        13           n12bf         1   UNL       n12        13    -0.73400       14.0070 ; qtot   -2.291
        14           c13bf         1   UNL       c13        14    -0.02799       12.0110 ; qtot   -2.319
        15           c14bf         1   UNL       c14        15    -0.11721       12.0110 ; qtot   -2.436
        16           c15bf         1   UNL       c15        16     0.14867       12.0110 ; qtot   -2.287
        17           c16bf         1   UNL       c16        17     0.19300       12.0110 ; qtot   -2.094
        18           c17bf         1   UNL       c17        18     0.14438       12.0110 ; qtot   -1.950
        19           c18bf         1   UNL       c18        19     0.14438       12.0110 ; qtot   -1.805
        20           c19bf         1   UNL       c19        20     0.19300       12.0110 ; qtot   -1.612
        21           c20bf         1   UNL       c20        21    -0.09656       12.0110 ; qtot   -1.709
        22           c21bf         1   UNL       c21        22    -0.09656       12.0110 ; qtot   -1.806
        23           c22bf         1   UNL       c22        23    -0.09568       12.0110 ; qtot   -1.901
        24           c23bf         1   UNL       c23        24    -0.13030       12.0110 ; qtot   -2.032
        25           c24bf         1   UNL       c24        25    -0.10488       12.0110 ; qtot   -2.136
        26           c25bf         1   UNL       c25        26    -0.03643       12.0110 ; qtot   -2.173
        27           c26bf         1   UNL       c26        27     0.00939       12.0110 ; qtot   -2.164
        28           c27bf         1   UNL       c27        28    -0.11209       12.0110 ; qtot   -2.276
        29           c28bf         1   UNL       c28        29    -0.12154       12.0110 ; qtot   -2.397
        30           c29bf         1   UNL       c29        30    -0.12127       12.0110 ; qtot   -2.518
        31           c30bf         1   UNL       c30        31     0.05182       12.0110 ; qtot   -2.467
        32           c31bf         1   UNL       c31        32     0.17096       12.0110 ; qtot   -2.296
        33           c32bf         1   UNL       c32        33    -0.12387       12.0110 ; qtot   -2.420
        34           c33bf         1   UNL       c33        34     0.16356       12.0110 ; qtot   -2.256
        35           c34bf         1   UNL       c34        35     0.11235       12.0110 ; qtot   -2.144
        36           c35bf         1   UNL       c35        36     0.14334       12.0110 ; qtot   -2.000
        37           c36bf         1   UNL       c36        37    -0.09536       12.0110 ; qtot   -2.096
        38           c37bf         1   UNL       c37        38    -0.09273       12.0110 ; qtot   -2.188
        39          cl38bf         1   UNL      cl38        39    -0.11639       35.4530 ; qtot   -2.305
        40           f39bf         1   UNL       f39        40    -0.10872       18.9980 ; qtot   -2.413
        41           f40bf         1   UNL       f40        41    -0.22526       18.9980 ; qtot   -2.639
        42           h41bf         1   UNL       h41        42     0.13599        1.0080 ; qtot   -2.503
        43           h42bf         1   UNL       h42        43     0.03476        1.0080 ; qtot   -2.468
        44           h43bf         1   UNL       h43        44     0.46548        1.0080 ; qtot   -2.002
        45           h44bf         1   UNL       h44        45     0.08997        1.0080 ; qtot   -1.913
        46           h45bf         1   UNL       h45        46     0.08997        1.0080 ; qtot   -1.823
        47           h46bf         1   UNL       h46        47     0.09669        1.0080 ; qtot   -1.726
        48           h47bf         1   UNL       h47        48     0.09669        1.0080 ; qtot   -1.629
        49           h48bf         1   UNL       h48        49     0.12687        1.0080 ; qtot   -1.502
        50           h49bf         1   UNL       h49        50     0.12687        1.0080 ; qtot   -1.375
        51           h50bf         1   UNL       h50        51     0.09669        1.0080 ; qtot   -1.279
        52           h51bf         1   UNL       h51        52     0.09669        1.0080 ; qtot   -1.182
        53           h52bf         1   UNL       h52        53     0.09820        1.0080 ; qtot   -1.084
        54           h53bf         1   UNL       h53        54     0.09820        1.0080 ; qtot   -0.986
        55           h54bf         1   UNL       h54        55     0.09820        1.0080 ; qtot   -0.887
        56           h55bf         1   UNL       h55        56     0.09820        1.0080 ; qtot   -0.789
        57           h56bf         1   UNL       h56        57     0.14327        1.0080 ; qtot   -0.646
        58           h57bf         1   UNL       h57        58     0.13399        1.0080 ; qtot   -0.512
        59           h58bf         1   UNL       h58        59     0.13564        1.0080 ; qtot   -0.376
        60           h59bf         1   UNL       h59        60     0.13798        1.0080 ; qtot   -0.238
        61           h60bf         1   UNL       h60        61     0.11159        1.0080 ; qtot   -0.127
        62           h61bf         1   UNL       h61        62     0.11159        1.0080 ; qtot   -0.015
        63           h62bf         1   UNL       h62        63     0.11302        1.0080 ; qtot    0.098
        64           h63bf         1   UNL       h63        64     0.12148        1.0080 ; qtot    0.219
        65           h64bf         1   UNL       h64        65     0.12148        1.0080 ; qtot    0.341
        66           h65bf         1   UNL       h65        66     0.10586        1.0080 ; qtot    0.447
        67           h66bf         1   UNL       h66        67     0.10586        1.0080 ; qtot    0.553
        68           h67bf         1   UNL       h67        68     0.09445        1.0080 ; qtot    0.647
        69           h68bf         1   UNL       h68        69     0.09445        1.0080 ; qtot    0.741
        70           h69bf         1   UNL       h69        70     0.09419        1.0080 ; qtot    0.836
        71           h70bf         1   UNL       h70        71     0.09419        1.0080 ; qtot    0.930
        72           h71bf         1   UNL       h71        72     0.14995        1.0080 ; qtot    1.080
        73           h72bf         1   UNL       h72        73     0.46548        1.0080 ; qtot    1.545
        74           h73bf         1   UNL       h73        74     0.45478        1.0080 ; qtot    2.000

[ bonds ]
;       ai        aj funct               r               k
         1         4     1        0.143058   479159.473926    ;  uncertainty r = 0.000213, k = 20.086598
         1         8     1        0.143984   362341.550391    ;  uncertainty r = 0.000299, k = 18.047099
         1        10     1        0.141861   374247.359375    ;  uncertainty r = 0.000081, k = 28.162045
         2         4     1        0.136183   419347.273535    ;  uncertainty r = 0.000143, k = 20.747265
         2         6     1        0.132546   399493.881982    ;  uncertainty r = 0.000085, k = 18.177902
         3         6     1        0.135693   306710.898438    ;  uncertainty r = 0.000236, k = 12.061293
         3        16     1        0.141542   257736.570654    ;  uncertainty r = 0.000296, k = 22.038382
         4        14     1        0.141304   367171.818018    ;  uncertainty r = 0.000141, k = 29.969434
         5         6     1        0.136972   410517.894580    ;  uncertainty r = 0.000209, k = 11.526559
         5         8     1        0.134153   486855.132910    ;  uncertainty r = 0.000475, k = 52.549853
         7        10     1        0.131713   379661.226562    ;  uncertainty r = 0.000132, k = 17.207570
         7        12     1        0.135517   366390.356934    ;  uncertainty r = 0.000325, k = 23.548998
         8         9     1        0.141100   334049.037988    ;  uncertainty r = 0.000263, k = 22.684712
         9        17     1        0.146717   282616.354834    ;  uncertainty r = 0.000141, k = 29.596475
         9        20     1        0.146717   282616.354834    ;  uncertainty r = 0.000141, k = 29.596462
        10        43     1        0.108816   333872.934082    ;  uncertainty r = 0.000028, k = 3.959743
        11        18     1        0.152813   214684.834814    ;  uncertainty r = 0.000144, k = 10.532020
        11        19     1        0.152813   214684.834814    ;  uncertainty r = 0.000144, k = 10.532020
        11        44     1        0.102746   394210.356201    ;  uncertainty r = 0.000084, k = 22.499247
        11        73     1        0.102746   394210.356201    ;  uncertainty r = 0.000084, k = 22.499247
        12        14     1        0.138425   345267.183691    ;  uncertainty r = 0.000196, k = 24.075630
        12        15     1        0.149240   302420.127783    ;  uncertainty r = 0.000119, k = 13.907835
        13        32     1        0.155440   185493.863062    ;  uncertainty r = 0.000371, k = 62.521951
        13        35     1        0.150479   223238.617285    ;  uncertainty r = 0.000141, k = 22.747977
        13        36     1        0.151322   221067.375635    ;  uncertainty r = 0.000178, k = 34.761623
        13        74     1        0.102591   390815.912549    ;  uncertainty r = 0.000170, k = 7.831106
        14        40     1        0.134136   335912.940527    ;  uncertainty r = 0.000035, k = 8.814630
        15        23     1        0.138420   336729.898193    ;  uncertainty r = 0.000196, k = 13.424402
        15        27     1        0.143375   295574.216113    ;  uncertainty r = 0.000231, k = 20.498451
        16        32     1        0.152478   192129.732007    ;  uncertainty r = 0.000154, k = 16.020373
        16        45     1        0.109399   312302.631592    ;  uncertainty r = 0.000057, k = 3.260221
        16        46     1        0.109399   312302.631592    ;  uncertainty r = 0.000057, k = 3.260242
        17        18     1        0.153389   209363.769482    ;  uncertainty r = 0.000246, k = 15.699766
        17        47     1        0.109512   306916.880762    ;  uncertainty r = 0.000054, k = 2.592156
        17        48     1        0.109512   306916.880762    ;  uncertainty r = 0.000054, k = 2.592156
        18        22     1        0.154170   203666.746826    ;  uncertainty r = 0.000096, k = 14.555225
        18        49     1        0.109104   316017.412744    ;  uncertainty r = 0.000091, k = 5.591594
        19        20     1        0.153389   209363.769482    ;  uncertainty r = 0.000246, k = 15.699766
        19        21     1        0.154170   203666.746826    ;  uncertainty r = 0.000096, k = 14.555225
        19        50     1        0.109104   316017.412744    ;  uncertainty r = 0.000091, k = 5.591594
        20        51     1        0.109512   306916.880762    ;  uncertainty r = 0.000054, k = 2.592156
        20        52     1        0.109512   306916.880762    ;  uncertainty r = 0.000054, k = 2.592167
        21        22     1        0.155765   216858.119434    ;  uncertainty r = 0.000150, k = 17.193911
        21        53     1        0.109186   310069.411377    ;  uncertainty r = 0.000038, k = 1.121843
        21        54     1        0.109186   310069.411377    ;  uncertainty r = 0.000038, k = 1.121843
        22        55     1        0.109186   310069.411377    ;  uncertainty r = 0.000038, k = 1.121843
        22        56     1        0.109186   310069.411377    ;  uncertainty r = 0.000038, k = 1.121843
        23        24     1        0.141088   371074.016016    ;  uncertainty r = 0.000163, k = 3.862260
        23        57     1        0.108724   332837.251074    ;  uncertainty r = 0.000014, k = 1.009438
        24        25     1        0.137412   380430.812891    ;  uncertainty r = 0.000056, k = 8.448684
        24        42     1        0.108791   333523.637500    ;  uncertainty r = 0.000008, k = 2.014372
        25        26     1        0.141971   353974.112207    ;  uncertainty r = 0.000049, k = 7.459042
        25        58     1        0.108817   334293.581348    ;  uncertainty r = 0.000026, k = 1.823750
        26        27     1        0.144223   311193.044189    ;  uncertainty r = 0.000123, k = 13.512772
        26        28     1        0.141991   353560.819629    ;  uncertainty r = 0.000053, k = 7.898607
        27        31     1        0.142953   309013.758350    ;  uncertainty r = 0.000127, k = 16.985527
        28        29     1        0.137490   376763.479687    ;  uncertainty r = 0.000060, k = 4.497852
        28        59     1        0.108808   334332.985107    ;  uncertainty r = 0.000028, k = 1.823562
        29        30     1        0.140901   369149.692676    ;  uncertainty r = 0.000070, k = 2.225162
        29        60     1        0.108744   334458.219092    ;  uncertainty r = 0.000009, k = 1.622501
        30        31     1        0.138198   339080.767871    ;  uncertainty r = 0.000106, k = 9.630350
        30        72     1        0.108688   335527.100342    ;  uncertainty r = 0.000024, k = 0.593680
        31        39     1        0.176192   185660.837451    ;  uncertainty r = 0.000182, k = 14.017477
        32        33     1        0.153836   201658.687305    ;  uncertainty r = 0.000119, k = 8.424143
        32        38     1        0.153842   200312.958252    ;  uncertainty r = 0.000116, k = 10.676445
        33        34     1        0.153418   216575.883301    ;  uncertainty r = 0.000134, k = 9.734911
        33        61     1        0.109225   309557.903076    ;  uncertainty r = 0.000049, k = 4.501173
        33        62     1        0.109225   309557.903076    ;  uncertainty r = 0.000049, k = 4.501173
        34        35     1        0.153110   224274.989795    ;  uncertainty r = 0.000237, k = 3.888646
        34        41     1        0.140470   290049.620020    ;  uncertainty r = 0.000244, k = 19.162413
        34        63     1        0.109153   312055.125928    ;  uncertainty r = 0.000039, k = 2.967546
        35        64     1        0.109010   315620.974658    ;  uncertainty r = 0.000068, k = 3.930498
        35        65     1        0.109010   315620.974658    ;  uncertainty r = 0.000068, k = 3.930498
        36        37     1        0.154091   226495.569141    ;  uncertainty r = 0.000118, k = 6.078971
        36        66     1        0.109032   312903.826221    ;  uncertainty r = 0.000044, k = 4.538202
        36        67     1        0.109032   312903.826221    ;  uncertainty r = 0.000044, k = 4.538202
        37        38     1        0.154653   221886.810400    ;  uncertainty r = 0.000111, k = 11.305459
        37        68     1        0.109199   311658.815527    ;  uncertainty r = 0.000012, k = 2.085787
        37        69     1        0.109199   311658.815527    ;  uncertainty r = 0.000012, k = 2.085787
        38        70     1        0.109263   307990.154395    ;  uncertainty r = 0.000017, k = 2.560164
        38        71     1        0.109263   307990.154395    ;  uncertainty r = 0.000017, k = 2.560155

[ angles ]
;       ai        aj        ak funct           theta             cth
         1         4         2     1      122.576538      576.901879    ;  uncertainty theta = 0.002506, k = 0.103868
         1         4        14     1      114.839798      381.591321    ;  uncertainty theta = 0.008818, k = 0.403082
         1         8         5     1      123.146286      524.777479    ;  uncertainty theta = 0.003526, k = 0.330096
         1         8         9     1      120.769066      459.953984    ;  uncertainty theta = 0.006455, k = 0.393069
         1        10         7     1      124.382797      691.062526    ;  uncertainty theta = 0.004438, k = 0.247934
         1        10        43     1      118.381180      255.102523    ;  uncertainty theta = 0.007173, k = 0.190890
         2         4        14     1      120.804161      449.350530    ;  uncertainty theta = 0.006269, k = 0.071889
         2         6         3     1      116.936478      557.966049    ;  uncertainty theta = 0.012083, k = 0.197543
         2         6         5     1      129.563202      744.255367    ;  uncertainty theta = 0.002879, k = 0.093993
         3         6         5     1      115.775780      567.111015    ;  uncertainty theta = 0.011292, k = 0.094909
         3        16        32     1      106.536636      550.831363    ;  uncertainty theta = 0.008312, k = 0.092146
         3        16        45     1      106.871071      434.187105    ;  uncertainty theta = 0.003828, k = 0.111649
         3        16        46     1      106.871071      434.187105    ;  uncertainty theta = 0.003828, k = 0.111649
         4         1         8     1      119.338547      424.615477    ;  uncertainty theta = 0.012644, k = 0.218913
         4         1        10     1      120.668381      440.674584    ;  uncertainty theta = 0.002170, k = 0.503060
         4         2         6     1      111.948120      429.046166    ;  uncertainty theta = 0.012217, k = 0.143361
         4        14        12     1      122.792442      420.522549    ;  uncertainty theta = 0.004181, k = 0.191845
         4        14        40     1      115.885117      442.474184    ;  uncertainty theta = 0.005877, k = 0.364746
         5         8         9     1      122.671585      669.625272    ;  uncertainty theta = 0.004829, k = 0.216895
         6         3        16     1      108.560631      499.385931    ;  uncertainty theta = 0.004991, k = 0.167344
         6         5         8     1      121.180313      407.919251    ;  uncertainty theta = 0.012509, k = 0.258354
         7        10        43     1      116.993912      319.306248    ;  uncertainty theta = 0.004711, k = 0.159599
         7        12        14     1      122.741783      511.116881    ;  uncertainty theta = 0.004214, k = 0.169575
         7        12        15     1      119.639099      462.976237    ;  uncertainty theta = 0.007289, k = 0.178475
         8         1        10     1      123.652573      370.829600    ;  uncertainty theta = 0.010827, k = 0.419830
         8         9        17     1      110.984398      422.188111    ;  uncertainty theta = 0.004181, k = 0.144764
         8         9        20     1      110.984398      422.188111    ;  uncertainty theta = 0.004181, k = 0.144764
         9        17        18     1      110.133949      649.655188    ;  uncertainty theta = 0.001985, k = 0.133737
         9        17        47     1      108.568321      453.936420    ;  uncertainty theta = 0.004489, k = 0.158239
         9        17        48     1      108.568321      453.936420    ;  uncertainty theta = 0.004489, k = 0.158239
         9        20        19     1      110.133949      649.655188    ;  uncertainty theta = 0.001985, k = 0.133737
         9        20        51     1      108.568321      453.936420    ;  uncertainty theta = 0.004489, k = 0.158239
         9        20        52     1      108.568321      453.936420    ;  uncertainty theta = 0.004489, k = 0.158239
        10         7        12     1      119.411583      415.443505    ;  uncertainty theta = 0.003094, k = 0.334569
        11        18        17     1      107.106102      724.692026    ;  uncertainty theta = 0.009614, k = 0.194545
        11        18        22     1      104.244408      885.384478    ;  uncertainty theta = 0.008129, k = 0.207714
        11        18        49     1      107.116600      462.413527    ;  uncertainty theta = 0.004311, k = 0.213725
        11        19        20     1      107.106102      724.692026    ;  uncertainty theta = 0.009614, k = 0.194545
        11        19        21     1      104.244400      885.384478    ;  uncertainty theta = 0.008129, k = 0.207714
        11        19        50     1      107.116600      462.413527    ;  uncertainty theta = 0.004311, k = 0.213725
        12        14        40     1      117.190918      468.890345    ;  uncertainty theta = 0.005797, k = 0.238024
        12        15        23     1      118.390549      415.211979    ;  uncertainty theta = 0.012460, k = 0.326601
        12        15        27     1      118.205368      345.302259    ;  uncertainty theta = 0.009804, k = 0.241860
        13        32        16     1      106.313026      577.207111    ;  uncertainty theta = 0.013531, k = 0.484071
        13        32        33     1      105.478836      800.614746    ;  uncertainty theta = 0.009707, k = 0.226440
        13        32        38     1      105.830856      804.791213    ;  uncertainty theta = 0.009842, k = 0.234651
        13        35        34     1      106.743797      762.018533    ;  uncertainty theta = 0.010616, k = 0.072688
        13        35        64     1      107.183151      466.739354    ;  uncertainty theta = 0.005270, k = 0.156070
        13        35        65     1      107.183151      466.739354    ;  uncertainty theta = 0.005270, k = 0.156070
        13        36        37     1      107.158607      807.735067    ;  uncertainty theta = 0.008544, k = 0.118370
        13        36        66     1      106.329147      464.789883    ;  uncertainty theta = 0.004972, k = 0.167651
        13        36        67     1      106.329147      464.789883    ;  uncertainty theta = 0.004972, k = 0.167651
        14        12        15     1      119.928879      342.349914    ;  uncertainty theta = 0.008940, k = 0.229317
        15        23        24     1      122.213211      513.868025    ;  uncertainty theta = 0.006518, k = 0.155630
        15        23        57     1      118.504128      270.596414    ;  uncertainty theta = 0.005378, k = 0.148915
        15        27        26     1      122.342392      431.386386    ;  uncertainty theta = 0.005727, k = 0.225251
        15        27        31     1      119.933022      430.819877    ;  uncertainty theta = 0.005790, k = 0.359730
        16        32        33     1      109.787682      504.430851    ;  uncertainty theta = 0.006816, k = 0.290304
        16        32        38     1      110.577492      496.461644    ;  uncertainty theta = 0.008668, k = 0.182764
        17         9        20     1      113.145386      423.689501    ;  uncertainty theta = 0.008189, k = 0.281148
        17        18        22     1      112.961143      535.549191    ;  uncertainty theta = 0.001825, k = 0.221357
        17        18        49     1      110.097534      391.839395    ;  uncertainty theta = 0.006671, k = 0.265089
        18        11        19     1      103.811913      816.372228    ;  uncertainty theta = 0.015300, k = 0.296682
        18        11        44     1      110.536942      414.249901    ;  uncertainty theta = 0.015659, k = 0.317278
        18        11        73     1      110.536942      414.249901    ;  uncertainty theta = 0.015659, k = 0.317278
        18        17        47     1      108.657677      423.347815    ;  uncertainty theta = 0.003396, k = 0.148176
        18        17        48     1      108.657677      423.347815    ;  uncertainty theta = 0.003396, k = 0.148176
        18        22        21     1      106.024353      704.148060    ;  uncertainty theta = 0.006529, k = 0.081670
        18        22        55     1      108.154015      411.973012    ;  uncertainty theta = 0.004144, k = 0.083638
        18        22        56     1      108.154015      411.973012    ;  uncertainty theta = 0.004144, k = 0.083638
        19        11        44     1      110.536942      414.249901    ;  uncertainty theta = 0.015659, k = 0.317278
        19        11        73     1      110.536942      414.249901    ;  uncertainty theta = 0.015659, k = 0.317278
        19        20        51     1      108.657677      423.347815    ;  uncertainty theta = 0.003396, k = 0.148176
        19        20        52     1      108.657677      423.347815    ;  uncertainty theta = 0.003396, k = 0.148176
        19        21        22     1      106.024353      704.148060    ;  uncertainty theta = 0.006529, k = 0.081670
        19        21        53     1      108.154015      411.973012    ;  uncertainty theta = 0.004144, k = 0.083638
        19        21        54     1      108.154015      411.973012    ;  uncertainty theta = 0.004144, k = 0.083638
        20        19        21     1      112.961143      535.549255    ;  uncertainty theta = 0.001825, k = 0.221357
        20        19        50     1      110.097534      391.839395    ;  uncertainty theta = 0.006671, k = 0.265089
        21        19        50     1      111.749313      382.110299    ;  uncertainty theta = 0.005995, k = 0.096527
        21        22        55     1      110.275002      402.480996    ;  uncertainty theta = 0.003380, k = 0.146043
        21        22        56     1      110.275002      402.480996    ;  uncertainty theta = 0.003380, k = 0.146043
        22        18        49     1      111.749313      382.110299    ;  uncertainty theta = 0.005995, k = 0.096527
        22        21        53     1      110.275002      402.480996    ;  uncertainty theta = 0.003380, k = 0.146043
        22        21        54     1      110.275002      402.480996    ;  uncertainty theta = 0.003380, k = 0.146043
        23        15        27     1      124.608971      447.000094    ;  uncertainty theta = 0.003559, k = 0.150760
        23        24        25     1      117.902245      508.642718    ;  uncertainty theta = 0.005384, k = 0.119147
        23        24        42     1      120.122269      285.911625    ;  uncertainty theta = 0.000512, k = 0.050412
        24        23        57     1      120.891968      296.892838    ;  uncertainty theta = 0.002820, k = 0.077121
        24        25        26     1      119.552452      526.145214    ;  uncertainty theta = 0.005662, k = 0.118053
        24        25        58     1      121.378922      288.887209    ;  uncertainty theta = 0.002792, k = 0.035594
        25        24        42     1      120.241211      291.316969    ;  uncertainty theta = 0.001463, k = 0.038180
        25        26        27     1      120.692810      444.981162    ;  uncertainty theta = 0.003869, k = 0.058494
        25        26        28     1      120.903214      483.694398    ;  uncertainty theta = 0.002581, k = 0.284930
        26        25        58     1      118.777817      275.351903    ;  uncertainty theta = 0.002784, k = 0.082112
        26        27        31     1      119.623856      431.277439    ;  uncertainty theta = 0.008310, k = 0.171516
        26        28        29     1      120.015457      532.756389    ;  uncertainty theta = 0.005259, k = 0.102068
        26        28        59     1      118.734756      275.041212    ;  uncertainty theta = 0.002676, k = 0.089026
        27        26        28     1      120.866051      445.424039    ;  uncertainty theta = 0.003889, k = 0.068542
        27        31        30     1      125.181152      433.776596    ;  uncertainty theta = 0.003487, k = 0.140556
        27        31        39     1      118.127747      413.448003    ;  uncertainty theta = 0.006660, k = 0.356587
        28        29        30     1      118.330124      513.322521    ;  uncertainty theta = 0.002785, k = 0.050462
        28        29        60     1      120.179626      287.188576    ;  uncertainty theta = 0.001363, k = 0.036925
        29        28        59     1      121.351768      289.147368    ;  uncertainty theta = 0.002432, k = 0.027640
        29        30        31     1      120.879456      496.183801    ;  uncertainty theta = 0.005098, k = 0.193152
        29        30        72     1      121.365891      286.291170    ;  uncertainty theta = 0.001987, k = 0.073688
        30        29        60     1      119.758194      285.606616    ;  uncertainty theta = 0.001095, k = 0.037009
        30        31        39     1      118.613304      467.819733    ;  uncertainty theta = 0.003504, k = 0.143973
        31        30        72     1      119.312576      283.990021    ;  uncertainty theta = 0.002700, k = 0.083410
        32        13        35     1      109.551758      666.060802    ;  uncertainty theta = 0.012138, k = 0.251631
        32        13        36     1      109.533287      672.975549    ;  uncertainty theta = 0.011177, k = 0.203335
        32        13        74     1      107.358116      426.286179    ;  uncertainty theta = 0.006315, k = 0.165270
        32        16        45     1      109.179382      392.426398    ;  uncertainty theta = 0.002737, k = 0.174360
        32        16        46     1      109.179382      392.426398    ;  uncertainty theta = 0.002737, k = 0.174360
        32        33        34     1      107.478836      678.632657    ;  uncertainty theta = 0.005988, k = 0.090075
        32        33        61     1      107.981346      383.992129    ;  uncertainty theta = 0.002981, k = 0.128153
        32        33        62     1      107.981346      383.992129    ;  uncertainty theta = 0.002981, k = 0.128153
        32        38        37     1      106.895546      691.908570    ;  uncertainty theta = 0.002804, k = 0.130854
        32        38        70     1      107.385544      384.578780    ;  uncertainty theta = 0.002948, k = 0.089690
        32        38        71     1      107.385544      384.578780    ;  uncertainty theta = 0.002948, k = 0.089690
        33        32        38     1      114.012100      535.162974    ;  uncertainty theta = 0.008207, k = 0.314414
        33        34        35     1      107.903954      728.610887    ;  uncertainty theta = 0.005631, k = 0.144773
        33        34        41     1      112.217163      663.999766    ;  uncertainty theta = 0.004822, k = 0.207483
        33        34        63     1      111.480957      392.955526    ;  uncertainty theta = 0.001862, k = 0.125322
        34        33        61     1      108.231163      411.350672    ;  uncertainty theta = 0.002452, k = 0.050492
        34        33        62     1      108.231163      411.350672    ;  uncertainty theta = 0.002452, k = 0.050492
        34        35        64     1      110.560501      397.994700    ;  uncertainty theta = 0.001618, k = 0.080862
        34        35        65     1      110.560501      397.994700    ;  uncertainty theta = 0.001618, k = 0.080862
        35        13        36     1      113.620323      542.203012    ;  uncertainty theta = 0.004313, k = 0.415995
        35        13        74     1      107.583168      424.366809    ;  uncertainty theta = 0.003876, k = 0.157938
        35        34        41     1      110.685326      656.729351    ;  uncertainty theta = 0.007482, k = 0.092610
        35        34        63     1      110.630043      389.554111    ;  uncertainty theta = 0.005126, k = 0.188180
        36        13        74     1      107.859543      429.250143    ;  uncertainty theta = 0.004149, k = 0.175082
        36        37        38     1      106.225952      738.837605    ;  uncertainty theta = 0.006589, k = 0.212736
        36        37        68     1      108.810410      420.814725    ;  uncertainty theta = 0.001037, k = 0.099473
        36        37        69     1      108.810410      420.814725    ;  uncertainty theta = 0.001037, k = 0.099473
        37        36        66     1      111.713844      406.497473    ;  uncertainty theta = 0.002306, k = 0.030583
        37        36        67     1      111.713844      406.497473    ;  uncertainty theta = 0.002306, k = 0.030583
        37        38        70     1      109.892822      419.193885    ;  uncertainty theta = 0.001887, k = 0.088813
        37        38        71     1      109.892822      419.193885    ;  uncertainty theta = 0.001887, k = 0.088813
        38        37        68     1      109.782631      416.660604    ;  uncertainty theta = 0.002668, k = 0.125704
        38        37        69     1      109.782631      416.660604    ;  uncertainty theta = 0.002668, k = 0.125704
        41        34        63     1      108.218422      460.481645    ;  uncertainty theta = 0.004012, k = 0.152472
        44        11        73     1      107.747574      350.201458    ;  uncertainty theta = 0.021723, k = 0.473762
        45        16        46     1      108.175621      328.123350    ;  uncertainty theta = 0.001602, k = 0.062972
        47        17        48     1      105.897926      325.661285    ;  uncertainty theta = 0.002949, k = 0.142469
        51        20        52     1      105.897926      325.661285    ;  uncertainty theta = 0.002949, k = 0.142469
        53        21        54     1      104.910583      313.577093    ;  uncertainty theta = 0.003222, k = 0.124326
        55        22        56     1      104.910583      313.577093    ;  uncertainty theta = 0.003222, k = 0.124326
        61        33        62     1      106.239235      310.954655    ;  uncertainty theta = 0.003084, k = 0.044097
        64        35        65     1      108.400620      316.091030    ;  uncertainty theta = 0.004273, k = 0.128302
        66        36        67     1      107.501404      319.034246    ;  uncertainty theta = 0.003296, k = 0.090988
        68        37        69     1      105.080666      317.747622    ;  uncertainty theta = 0.002226, k = 0.118787
        70        38        71     1      105.563980      314.652876    ;  uncertainty theta = 0.002290, k = 0.108688

[ dihedrals ] ; propers for gromacs 4.5 or higher, use funct 9
;       ai        aj        ak        al funct           phase               k        pn
         1         4         2         6     9        0.000000       -0.296257         1    ;  uncertainty k = 1.273553
         1         4         2         6     9      180.000000       12.863482         2    ;  uncertainty k = 0.536008
         1         4         2         6     9        0.000000        0.623273         3    ;  uncertainty k = 0.326993
         1         4         2         6     9      180.000000        1.147725         4    ;  uncertainty k = 0.355045
         1         4        14        12     9        0.000000       -0.694588         1    ;  uncertainty k = 0.632369
         1         4        14        12     9      180.000000        3.599638         2    ;  uncertainty k = 1.210614
         1         4        14        12     9        0.000000        0.269076         3    ;  uncertainty k = 0.305740
         1         4        14        12     9      180.000000        1.227925         4    ;  uncertainty k = 0.377804
         1         4        14        40     9        0.000000        0.340284         1    ;  uncertainty k = 0.591106
         1         4        14        40     9      180.000000        8.063869         2    ;  uncertainty k = 0.670641
         1         4        14        40     9        0.000000        1.392226         3    ;  uncertainty k = 0.150377
         1         4        14        40     9      180.000000        1.486947         4    ;  uncertainty k = 0.229055
         1         8         5         6     9        0.000000       -0.781881         1    ;  uncertainty k = 1.422060
         1         8         5         6     9      180.000000       12.984261         2    ;  uncertainty k = 0.677102
         1         8         5         6     9        0.000000        0.656450         3    ;  uncertainty k = 0.998368
         1         8         5         6     9      180.000000        1.732429         4    ;  uncertainty k = 0.821786
         1         8         9        17     9        0.000000       -1.427466         1    ;  uncertainty k = 1.188999
         1         8         9        17     9      180.000000        9.343136         2    ;  uncertainty k = 0.264294
         1         8         9        17     9        0.000000        0.295999         3    ;  uncertainty k = 0.386319
         1         8         9        17     9      180.000000        0.358373         4    ;  uncertainty k = 0.207630
         1         8         9        20     9        0.000000       -1.427466         1    ;  uncertainty k = 1.188999
         1         8         9        20     9      180.000000        9.343136         2    ;  uncertainty k = 0.264294
         1         8         9        20     9        0.000000        0.295999         3    ;  uncertainty k = 0.386319
         1         8         9        20     9      180.000000        0.358373         4    ;  uncertainty k = 0.207630
         1        10         7        12     9        0.000000       -0.296438         1    ;  uncertainty k = 0.546197
         1        10         7        12     9      180.000000       16.796102         2    ;  uncertainty k = 0.466163
         1        10         7        12     9        0.000000        1.092861         3    ;  uncertainty k = 0.778606
         1        10         7        12     9      180.000000        1.747315         4    ;  uncertainty k = 0.326483
         2         4         1         8     9        0.000000        0.000207         1    ;  uncertainty k = 0.507370
         2         4         1         8     9      180.000000        7.305636         2    ;  uncertainty k = 0.988463
         2         4         1         8     9        0.000000        0.353488         3    ;  uncertainty k = 0.303746
         2         4         1         8     9      180.000000        1.556066         4    ;  uncertainty k = 0.321521
         2         4         1        10     9        0.000000       -0.068163         1    ;  uncertainty k = 0.420137
         2         4         1        10     9      180.000000        7.612629         2    ;  uncertainty k = 0.906697
         2         4         1        10     9        0.000000        0.215897         3    ;  uncertainty k = 0.350361
         2         4         1        10     9      180.000000        1.518026         4    ;  uncertainty k = 0.342744
         2         4        14        12     9        0.000000       -0.192708         1    ;  uncertainty k = 0.167934
         2         4        14        12     9      180.000000        6.344453         2    ;  uncertainty k = 0.641745
         2         4        14        12     9        0.000000        0.385982         3    ;  uncertainty k = 0.152500
         2         4        14        12     9      180.000000        1.221787         4    ;  uncertainty k = 0.342659
         2         4        14        40     9        0.000000        0.100797         1    ;  uncertainty k = 0.687483
         2         4        14        40     9      180.000000       11.806109         2    ;  uncertainty k = 0.663449
         2         4        14        40     9        0.000000        1.112948         3    ;  uncertainty k = 0.345661
         2         4        14        40     9      180.000000        1.142502         4    ;  uncertainty k = 0.465411
         2         6         3        16     9        0.000000        2.587720         1    ;  uncertainty k = 1.861086
         2         6         3        16     9      180.000000        9.635143         2    ;  uncertainty k = 0.503979
         2         6         3        16     9        0.000000        0.048090         3    ;  uncertainty k = 0.150965
         2         6         3        16     9      180.000000       -0.190525         4    ;  uncertainty k = 0.213028
         2         6         5         8     9        0.000000       -0.488652         1    ;  uncertainty k = 1.057490
         2         6         5         8     9      180.000000        8.899800         2    ;  uncertainty k = 0.865025
         2         6         5         8     9        0.000000        1.151301         3    ;  uncertainty k = 0.231591
         2         6         5         8     9      180.000000        0.505791         4    ;  uncertainty k = 0.486052
         3         6         2         4     9        0.000000        0.033778         1    ;  uncertainty k = 1.301232
         3         6         2         4     9      180.000000       14.452717         2    ;  uncertainty k = 0.375347
         3         6         2         4     9        0.000000        2.579123         3    ;  uncertainty k = 0.322795
         3         6         2         4     9      180.000000        1.437478         4    ;  uncertainty k = 0.277198
         3         6         5         8     9        0.000000        0.338738         1    ;  uncertainty k = 1.906641
         3         6         5         8     9      180.000000       10.107912         2    ;  uncertainty k = 0.413421
         3         6         5         8     9        0.000000        2.022862         3    ;  uncertainty k = 0.211584
         3         6         5         8     9      180.000000        0.951306         4    ;  uncertainty k = 0.118728
         3        16        32        13     9        0.000000        1.648820         1    ;  uncertainty k = 1.739602
         3        16        32        13     9      180.000000       -5.109102         2    ;  uncertainty k = 0.802289
         3        16        32        13     9        0.000000        1.105428         3    ;  uncertainty k = 0.303574
         3        16        32        13     9      180.000000       -0.088958         4    ;  uncertainty k = 0.178163
         3        16        32        33     9        0.000000        0.044084         1    ;  uncertainty k = 0.646701
         3        16        32        33     9      180.000000       -0.278590         2    ;  uncertainty k = 0.943499
         3        16        32        33     9        0.000000        1.196532         3    ;  uncertainty k = 0.324769
         3        16        32        33     9      180.000000       -0.120059         4    ;  uncertainty k = 0.135335
         3        16        32        38     9        0.000000       -0.126859         1    ;  uncertainty k = 0.637012
         3        16        32        38     9      180.000000       -0.197512         2    ;  uncertainty k = 0.897261
         3        16        32        38     9        0.000000        1.220267         3    ;  uncertainty k = 0.313254
         3        16        32        38     9      180.000000       -0.086043         4    ;  uncertainty k = 0.118852
         4         1         8         5     9        0.000000       -0.429574         1    ;  uncertainty k = 0.938080
         4         1         8         5     9      180.000000        6.590626         2    ;  uncertainty k = 1.137113
         4         1         8         5     9        0.000000       -0.371204         3    ;  uncertainty k = 0.551517
         4         1         8         5     9      180.000000        0.842106         4    ;  uncertainty k = 0.376691
         4         1         8         9     9        0.000000       -1.028303         1    ;  uncertainty k = 1.278218
         4         1         8         9     9      180.000000        7.036852         2    ;  uncertainty k = 0.885804
         4         1         8         9     9        0.000000        0.121802         3    ;  uncertainty k = 0.339705
         4         1         8         9     9      180.000000        0.876785         4    ;  uncertainty k = 0.328972
         4         1        10         7     9        0.000000        0.028984         1    ;  uncertainty k = 0.404259
         4         1        10         7     9      180.000000       11.577144         2    ;  uncertainty k = 0.516140
         4         1        10         7     9        0.000000       -0.632873         3    ;  uncertainty k = 0.691560
         4         1        10         7     9      180.000000        0.789131         4    ;  uncertainty k = 0.328946
         4         1        10        43     9        0.000000       -0.496305         1    ;  uncertainty k = 0.578653
         4         1        10        43     9      180.000000        5.926200         2    ;  uncertainty k = 0.458741
         4         1        10        43     9        0.000000        0.700476         3    ;  uncertainty k = 0.220056
         4         1        10        43     9      180.000000        0.761876         4    ;  uncertainty k = 0.281358
         4         2         6         5     9        0.000000       -0.196981         1    ;  uncertainty k = 1.034246
         4         2         6         5     9      180.000000       11.783906         2    ;  uncertainty k = 0.754363
         4         2         6         5     9        0.000000        1.700934         3    ;  uncertainty k = 0.531109
         4         2         6         5     9      180.000000        1.152777         4    ;  uncertainty k = 0.244703
         4        14        12         7     9        0.000000       -0.248669         1    ;  uncertainty k = 0.326383
         4        14        12         7     9      180.000000        7.342387         2    ;  uncertainty k = 0.657228
         4        14        12         7     9        0.000000        0.458029         3    ;  uncertainty k = 0.582403
         4        14        12         7     9      180.000000        1.338710         4    ;  uncertainty k = 0.322556
         4        14        12        15     9        0.000000       -0.070626         1    ;  uncertainty k = 0.230941
         4        14        12        15     9      180.000000        5.717351         2    ;  uncertainty k = 0.575895
         4        14        12        15     9        0.000000        0.878878         3    ;  uncertainty k = 0.073944
         4        14        12        15     9      180.000000        1.367180         4    ;  uncertainty k = 0.114987
         5         6         3        16     9        0.000000        5.577612         1    ;  uncertainty k = 1.517024
         5         6         3        16     9      180.000000        9.614249         2    ;  uncertainty k = 0.104637
         5         6         3        16     9        0.000000        0.238222         3    ;  uncertainty k = 0.197833
         5         6         3        16     9      180.000000       -0.124547         4    ;  uncertainty k = 0.269647
         5         8         1        10     9        0.000000        1.009064         1    ;  uncertainty k = 0.800231
         5         8         1        10     9      180.000000        5.504402         2    ;  uncertainty k = 1.802661
         5         8         1        10     9        0.000000       -0.030465         3    ;  uncertainty k = 0.469702
         5         8         1        10     9      180.000000        0.748295         4    ;  uncertainty k = 0.490363
         5         8         9        17     9        0.000000        8.637731         1    ;  uncertainty k = 1.424692
         5         8         9        17     9      180.000000       12.771763         2    ;  uncertainty k = 0.293856
         5         8         9        17     9        0.000000        0.441311         3    ;  uncertainty k = 0.155128
         5         8         9        17     9      180.000000        0.169356         4    ;  uncertainty k = 0.328120
         5         8         9        20     9        0.000000        8.637731         1    ;  uncertainty k = 1.424692
         5         8         9        20     9      180.000000       12.771763         2    ;  uncertainty k = 0.293856
         5         8         9        20     9        0.000000        0.441311         3    ;  uncertainty k = 0.155128
         5         8         9        20     9      180.000000        0.169356         4    ;  uncertainty k = 0.328120
         6         2         4        14     9        0.000000       -0.225806         1    ;  uncertainty k = 1.156549
         6         2         4        14     9      180.000000       12.828964         2    ;  uncertainty k = 0.314461
         6         2         4        14     9        0.000000        1.828930         3    ;  uncertainty k = 0.743538
         6         2         4        14     9      180.000000        1.090077         4    ;  uncertainty k = 0.478207
         6         3        16        32     9        0.000000       -7.510759         1    ;  uncertainty k = 1.475998
         6         3        16        32     9      180.000000        2.709102         2    ;  uncertainty k = 0.765413
         6         3        16        32     9        0.000000       -0.781039         3    ;  uncertainty k = 0.343085
         6         3        16        32     9      180.000000        0.934031         4    ;  uncertainty k = 0.415992
         6         3        16        45     9        0.000000        3.153671         1    ;  uncertainty k = 1.578014
         6         3        16        45     9      180.000000        1.364681         2    ;  uncertainty k = 0.591178
         6         3        16        45     9        0.000000       -0.131180         3    ;  uncertainty k = 0.310201
         6         3        16        45     9      180.000000        0.395920         4    ;  uncertainty k = 0.121665
         6         3        16        46     9        0.000000        3.153671         1    ;  uncertainty k = 1.578014
         6         3        16        46     9      180.000000        1.364681         2    ;  uncertainty k = 0.591178
         6         3        16        46     9        0.000000       -0.131180         3    ;  uncertainty k = 0.310201
         6         3        16        46     9      180.000000        0.395920         4    ;  uncertainty k = 0.121665
         6         5         8         9     9        0.000000        0.434878         1    ;  uncertainty k = 1.165997
         6         5         8         9     9      180.000000       18.095739         2    ;  uncertainty k = 0.788100
         6         5         8         9     9        0.000000        2.581721         3    ;  uncertainty k = 0.811252
         6         5         8         9     9      180.000000        1.672242         4    ;  uncertainty k = 0.700518
         7        10         1         8     9        0.000000        0.131191         1    ;  uncertainty k = 0.453084
         7        10         1         8     9      180.000000        8.728136         2    ;  uncertainty k = 0.939957
         7        10         1         8     9        0.000000        0.374746         3    ;  uncertainty k = 0.391114
         7        10         1         8     9      180.000000        1.133644         4    ;  uncertainty k = 0.308019
         7        12        14        40     9        0.000000        0.191759         1    ;  uncertainty k = 0.534045
         7        12        14        40     9      180.000000       12.342941         2    ;  uncertainty k = 0.628034
         7        12        14        40     9        0.000000        1.313613         3    ;  uncertainty k = 0.216142
         7        12        14        40     9      180.000000        1.435943         4    ;  uncertainty k = 0.356743
         7        12        15        23     9        0.000000        1.591869         1    ;  uncertainty k = 1.719018
         7        12        15        23     9      180.000000        7.129245         2    ;  uncertainty k = 0.270738
         7        12        15        23     9        0.000000        0.255991         3    ;  uncertainty k = 0.337723
         7        12        15        23     9      180.000000        0.635181         4    ;  uncertainty k = 0.167631
         7        12        15        27     9        0.000000       -0.726372         1    ;  uncertainty k = 0.856928
         7        12        15        27     9      180.000000        7.295701         2    ;  uncertainty k = 0.168137
         7        12        15        27     9        0.000000        0.958806         3    ;  uncertainty k = 0.374665
         7        12        15        27     9      180.000000        0.578158         4    ;  uncertainty k = 0.111040
         8         1         4        14     9        0.000000       -0.327887         1    ;  uncertainty k = 0.808821
         8         1         4        14     9      180.000000        5.827308         2    ;  uncertainty k = 0.668686
         8         1         4        14     9        0.000000        0.176632         3    ;  uncertainty k = 0.380608
         8         1         4        14     9      180.000000        1.389660         4    ;  uncertainty k = 0.287900
         8         1        10        43     9        0.000000       -0.819287         1    ;  uncertainty k = 1.518052
         8         1        10        43     9      180.000000        5.548156         2    ;  uncertainty k = 0.577000
         8         1        10        43     9        0.000000        0.953351         3    ;  uncertainty k = 0.254807
         8         1        10        43     9      180.000000        0.672274         4    ;  uncertainty k = 0.246874
         8         9        17        18     9        0.000000       -0.458195         1    ;  uncertainty k = 1.681825
         8         9        17        18     9      180.000000       -1.874762         2    ;  uncertainty k = 0.739856
         8         9        17        18     9        0.000000       -0.040748         3    ;  uncertainty k = 0.186193
         8         9        17        18     9      180.000000        0.284566         4    ;  uncertainty k = 0.036558
         8         9        17        47     9        0.000000       -0.358961         1    ;  uncertainty k = 0.549202
         8         9        17        47     9      180.000000       -0.676027         2    ;  uncertainty k = 0.423916
         8         9        17        47     9        0.000000        0.014841         3    ;  uncertainty k = 0.121211
         8         9        17        47     9      180.000000        0.198073         4    ;  uncertainty k = 0.095184
         8         9        17        48     9        0.000000       -0.358961         1    ;  uncertainty k = 0.549202
         8         9        17        48     9      180.000000       -0.676027         2    ;  uncertainty k = 0.423916
         8         9        17        48     9        0.000000        0.014841         3    ;  uncertainty k = 0.121211
         8         9        17        48     9      180.000000        0.198073         4    ;  uncertainty k = 0.095184
         8         9        20        19     9        0.000000       -0.458195         1    ;  uncertainty k = 1.681825
         8         9        20        19     9      180.000000       -1.874762         2    ;  uncertainty k = 0.739856
         8         9        20        19     9        0.000000       -0.040748         3    ;  uncertainty k = 0.186193
         8         9        20        19     9      180.000000        0.284566         4    ;  uncertainty k = 0.036558
         8         9        20        51     9        0.000000       -0.358961         1    ;  uncertainty k = 0.549202
         8         9        20        51     9      180.000000       -0.676027         2    ;  uncertainty k = 0.423916
         8         9        20        51     9        0.000000        0.014841         3    ;  uncertainty k = 0.121211
         8         9        20        51     9      180.000000        0.198073         4    ;  uncertainty k = 0.095184
         8         9        20        52     9        0.000000       -0.358961         1    ;  uncertainty k = 0.549202
         8         9        20        52     9      180.000000       -0.676027         2    ;  uncertainty k = 0.423916
         8         9        20        52     9        0.000000        0.014841         3    ;  uncertainty k = 0.121211
         8         9        20        52     9      180.000000        0.198073         4    ;  uncertainty k = 0.095184
         9         8         1        10     9        0.000000       -0.425890         1    ;  uncertainty k = 0.687520
         9         8         1        10     9      180.000000        6.477950         2    ;  uncertainty k = 1.028437
         9         8         1        10     9        0.000000        0.193694         3    ;  uncertainty k = 0.577517
         9         8         1        10     9      180.000000        0.829904         4    ;  uncertainty k = 0.425004
         9        17        18        11     9        0.000000        9.107743         1    ;  uncertainty k = 1.082844
         9        17        18        11     9      180.000000       -3.282809         2    ;  uncertainty k = 1.314094
         9        17        18        11     9        0.000000        2.160516         3    ;  uncertainty k = 0.186385
         9        17        18        11     9      180.000000       -0.493621         4    ;  uncertainty k = 0.354842
         9        17        18        22     9        0.000000        8.403191         1    ;  uncertainty k = 2.185287
         9        17        18        22     9      180.000000        2.355906         2    ;  uncertainty k = 1.415442
         9        17        18        22     9        0.000000        1.695368         3    ;  uncertainty k = 0.321915
         9        17        18        22     9      180.000000       -0.398746         4    ;  uncertainty k = 0.237742
         9        17        18        49     9        0.000000        1.706369         1    ;  uncertainty k = 0.425655
         9        17        18        49     9      180.000000       -2.100813         2    ;  uncertainty k = 2.274752
         9        17        18        49     9        0.000000        0.528673         3    ;  uncertainty k = 0.426932
         9        17        18        49     9      180.000000        0.298925         4    ;  uncertainty k = 0.509447
         9        20        19        11     9        0.000000        9.107743         1    ;  uncertainty k = 1.082844
         9        20        19        11     9      180.000000       -3.282809         2    ;  uncertainty k = 1.314094
         9        20        19        11     9        0.000000        2.160516         3    ;  uncertainty k = 0.186385
         9        20        19        11     9      180.000000       -0.493621         4    ;  uncertainty k = 0.354842
         9        20        19        21     9        0.000000        8.403191         1    ;  uncertainty k = 2.185287
         9        20        19        21     9      180.000000        2.355906         2    ;  uncertainty k = 1.415442
         9        20        19        21     9        0.000000        1.695368         3    ;  uncertainty k = 0.321915
         9        20        19        21     9      180.000000       -0.398746         4    ;  uncertainty k = 0.237742
         9        20        19        50     9        0.000000        1.706369         1    ;  uncertainty k = 0.425655
         9        20        19        50     9      180.000000       -2.100813         2    ;  uncertainty k = 2.274752
         9        20        19        50     9        0.000000        0.528673         3    ;  uncertainty k = 0.426932
         9        20        19        50     9      180.000000        0.298925         4    ;  uncertainty k = 0.509447
        10         1         4        14     9        0.000000       -0.619432         1    ;  uncertainty k = 1.069074
        10         1         4        14     9      180.000000        5.358132         2    ;  uncertainty k = 1.318113
        10         1         4        14     9        0.000000        0.120214         3    ;  uncertainty k = 0.201184
        10         1         4        14     9      180.000000        1.478523         4    ;  uncertainty k = 0.304603
        10         7        12        14     9        0.000000        0.357308         1    ;  uncertainty k = 0.662942
        10         7        12        14     9      180.000000       11.000789         2    ;  uncertainty k = 0.434214
        10         7        12        14     9        0.000000        1.680897         3    ;  uncertainty k = 0.401565
        10         7        12        14     9      180.000000        1.265260         4    ;  uncertainty k = 0.071938
        10         7        12        15     9        0.000000        0.796812         1    ;  uncertainty k = 1.122112
        10         7        12        15     9      180.000000       13.881368         2    ;  uncertainty k = 0.358438
        10         7        12        15     9        0.000000        2.489671         3    ;  uncertainty k = 0.485889
        10         7        12        15     9      180.000000        1.484013         4    ;  uncertainty k = 0.461919
        11        18        17        47     9        0.000000       -1.226081         1    ;  uncertainty k = 2.151708
        11        18        17        47     9      180.000000       -0.881111         2    ;  uncertainty k = 0.372613
        11        18        17        47     9        0.000000        0.771595         3    ;  uncertainty k = 0.306670
        11        18        17        47     9      180.000000       -0.188527         4    ;  uncertainty k = 0.228071
        11        18        17        48     9        0.000000       -1.226081         1    ;  uncertainty k = 2.151708
        11        18        17        48     9      180.000000       -0.881111         2    ;  uncertainty k = 0.372613
        11        18        17        48     9        0.000000        0.771595         3    ;  uncertainty k = 0.306670
        11        18        17        48     9      180.000000       -0.188527         4    ;  uncertainty k = 0.228071
        11        18        22        21     9        0.000000        0.189331         1    ;  uncertainty k = 1.089252
        11        18        22        21     9      180.000000        0.699806         2    ;  uncertainty k = 0.973188
        11        18        22        21     9        0.000000        2.265726         3    ;  uncertainty k = 0.479934
        11        18        22        21     9      180.000000       -1.705008         4    ;  uncertainty k = 0.384237
        11        18        22        55     9        0.000000       -2.507565         1    ;  uncertainty k = 1.392526
        11        18        22        55     9      180.000000       -0.064910         2    ;  uncertainty k = 0.466805
        11        18        22        55     9        0.000000        1.243317         3    ;  uncertainty k = 0.217719
        11        18        22        55     9      180.000000       -0.274757         4    ;  uncertainty k = 0.163796
        11        18        22        56     9        0.000000       -2.507565         1    ;  uncertainty k = 1.392526
        11        18        22        56     9      180.000000       -0.064910         2    ;  uncertainty k = 0.466805
        11        18        22        56     9        0.000000        1.243317         3    ;  uncertainty k = 0.217719
        11        18        22        56     9      180.000000       -0.274757         4    ;  uncertainty k = 0.163796
        11        19        20        51     9        0.000000       -1.226081         1    ;  uncertainty k = 2.151708
        11        19        20        51     9      180.000000       -0.881111         2    ;  uncertainty k = 0.372613
        11        19        20        51     9        0.000000        0.771595         3    ;  uncertainty k = 0.306670
        11        19        20        51     9      180.000000       -0.188527         4    ;  uncertainty k = 0.228071
        11        19        20        52     9        0.000000       -1.226081         1    ;  uncertainty k = 2.151708
        11        19        20        52     9      180.000000       -0.881111         2    ;  uncertainty k = 0.372613
        11        19        20        52     9        0.000000        0.771595         3    ;  uncertainty k = 0.306670
        11        19        20        52     9      180.000000       -0.188527         4    ;  uncertainty k = 0.228071
        11        19        21        22     9        0.000000        0.189331         1    ;  uncertainty k = 1.089252
        11        19        21        22     9      180.000000        0.699806         2    ;  uncertainty k = 0.973188
        11        19        21        22     9        0.000000        2.265726         3    ;  uncertainty k = 0.479934
        11        19        21        22     9      180.000000       -1.705008         4    ;  uncertainty k = 0.384237
        11        19        21        53     9        0.000000       -2.507565         1    ;  uncertainty k = 1.392526
        11        19        21        53     9      180.000000       -0.064910         2    ;  uncertainty k = 0.466805
        11        19        21        53     9        0.000000        1.243317         3    ;  uncertainty k = 0.217719
        11        19        21        53     9      180.000000       -0.274757         4    ;  uncertainty k = 0.163796
        11        19        21        54     9        0.000000       -2.507565         1    ;  uncertainty k = 1.392526
        11        19        21        54     9      180.000000       -0.064910         2    ;  uncertainty k = 0.466805
        11        19        21        54     9        0.000000        1.243317         3    ;  uncertainty k = 0.217719
        11        19        21        54     9      180.000000       -0.274757         4    ;  uncertainty k = 0.163796
        12         7        10        43     9        0.000000        0.112902         1    ;  uncertainty k = 0.849213
        12         7        10        43     9      180.000000       17.212269         2    ;  uncertainty k = 0.646514
        12         7        10        43     9        0.000000        2.053653         3    ;  uncertainty k = 0.338074
        12         7        10        43     9      180.000000        1.594091         4    ;  uncertainty k = 0.351910
        12        15        23        24     9        0.000000        0.062072         1    ;  uncertainty k = 0.374807
        12        15        23        24     9      180.000000       11.511152         2    ;  uncertainty k = 0.479728
        12        15        23        24     9        0.000000        1.214400         3    ;  uncertainty k = 0.211389
        12        15        23        24     9      180.000000        1.769588         4    ;  uncertainty k = 0.404807
        12        15        23        57     9        0.000000       -0.022084         1    ;  uncertainty k = 0.404078
        12        15        23        57     9      180.000000        9.012382         2    ;  uncertainty k = 0.311512
        12        15        23        57     9        0.000000        0.982873         3    ;  uncertainty k = 0.197479
        12        15        23        57     9      180.000000        1.505001         4    ;  uncertainty k = 0.338318
        12        15        27        26     9        0.000000        0.095884         1    ;  uncertainty k = 0.863438
        12        15        27        26     9      180.000000        5.761775         2    ;  uncertainty k = 0.727931
        12        15        27        26     9        0.000000        1.290798         3    ;  uncertainty k = 0.459729
        12        15        27        26     9      180.000000        1.322577         4    ;  uncertainty k = 0.187048
        12        15        27        31     9        0.000000       -0.140248         1    ;  uncertainty k = 0.956549
        12        15        27        31     9      180.000000        5.749423         2    ;  uncertainty k = 0.806769
        12        15        27        31     9        0.000000        1.610486         3    ;  uncertainty k = 0.662797
        12        15        27        31     9      180.000000        1.039932         4    ;  uncertainty k = 0.460538
        13        32        16        45     9        0.000000       -0.024288         1    ;  uncertainty k = 0.736587
        13        32        16        45     9      180.000000       -1.149259         2    ;  uncertainty k = 0.605140
        13        32        16        45     9        0.000000        0.504039         3    ;  uncertainty k = 0.134525
        13        32        16        45     9      180.000000       -0.291529         4    ;  uncertainty k = 0.196831
        13        32        16        46     9        0.000000       -0.024288         1    ;  uncertainty k = 0.736587
        13        32        16        46     9      180.000000       -1.149259         2    ;  uncertainty k = 0.605140
        13        32        16        46     9        0.000000        0.504039         3    ;  uncertainty k = 0.134525
        13        32        16        46     9      180.000000       -0.291529         4    ;  uncertainty k = 0.196831
        13        32        33        34     9        0.000000       -0.868339         1    ;  uncertainty k = 2.503341
        13        32        33        34     9      180.000000        1.975563         2    ;  uncertainty k = 1.597596
        13        32        33        34     9        0.000000        0.507320         3    ;  uncertainty k = 0.444471
        13        32        33        34     9      180.000000       -0.690372         4    ;  uncertainty k = 0.125489
        13        32        33        61     9        0.000000       -0.601059         1    ;  uncertainty k = 0.927986
        13        32        33        61     9      180.000000       -0.842918         2    ;  uncertainty k = 0.283818
        13        32        33        61     9        0.000000        0.422561         3    ;  uncertainty k = 0.203674
        13        32        33        61     9      180.000000       -0.186494         4    ;  uncertainty k = 0.107250
        13        32        33        62     9        0.000000       -0.601059         1    ;  uncertainty k = 0.927986
        13        32        33        62     9      180.000000       -0.842918         2    ;  uncertainty k = 0.283818
        13        32        33        62     9        0.000000        0.422561         3    ;  uncertainty k = 0.203674
        13        32        33        62     9      180.000000       -0.186494         4    ;  uncertainty k = 0.107250
        13        32        38        37     9        0.000000       -0.956783         1    ;  uncertainty k = 1.651069
        13        32        38        37     9      180.000000        3.144220         2    ;  uncertainty k = 1.634745
        13        32        38        37     9        0.000000        0.769518         3    ;  uncertainty k = 0.398272
        13        32        38        37     9      180.000000       -1.078081         4    ;  uncertainty k = 0.389535
        13        32        38        70     9        0.000000       -0.514942         1    ;  uncertainty k = 0.734917
        13        32        38        70     9      180.000000       -1.001290         2    ;  uncertainty k = 0.281105
        13        32        38        70     9        0.000000        0.546898         3    ;  uncertainty k = 0.247640
        13        32        38        70     9      180.000000       -0.203949         4    ;  uncertainty k = 0.107426
        13        32        38        71     9        0.000000       -0.514942         1    ;  uncertainty k = 0.734917
        13        32        38        71     9      180.000000       -1.001290         2    ;  uncertainty k = 0.281105
        13        32        38        71     9        0.000000        0.546898         3    ;  uncertainty k = 0.247640
        13        32        38        71     9      180.000000       -0.203949         4    ;  uncertainty k = 0.107426
        13        35        34        33     9        0.000000        0.117107         1    ;  uncertainty k = 1.311784
        13        35        34        33     9      180.000000        1.890904         2    ;  uncertainty k = 0.759609
        13        35        34        33     9        0.000000        0.547352         3    ;  uncertainty k = 0.329867
        13        35        34        33     9      180.000000       -0.888948         4    ;  uncertainty k = 0.358730
        13        35        34        41     9        0.000000       -3.783754         1    ;  uncertainty k = 3.127350
        13        35        34        41     9      180.000000       -1.601321         2    ;  uncertainty k = 1.458449
        13        35        34        41     9        0.000000        1.613212         3    ;  uncertainty k = 0.456793
        13        35        34        41     9      180.000000        0.006887         4    ;  uncertainty k = 0.346925
        13        35        34        63     9        0.000000       -0.643241         1    ;  uncertainty k = 1.396753
        13        35        34        63     9      180.000000        0.258265         2    ;  uncertainty k = 0.627785
        13        35        34        63     9        0.000000        0.490579         3    ;  uncertainty k = 0.153076
        13        35        34        63     9      180.000000       -0.147007         4    ;  uncertainty k = 0.207965
        13        36        37        38     9        0.000000       -1.367572         1    ;  uncertainty k = 1.068056
        13        36        37        38     9      180.000000        1.920951         2    ;  uncertainty k = 1.215792
        13        36        37        38     9        0.000000        0.940848         3    ;  uncertainty k = 0.412612
        13        36        37        38     9      180.000000       -1.583983         4    ;  uncertainty k = 0.404003
        13        36        37        68     9        0.000000       -0.629747         1    ;  uncertainty k = 1.198085
        13        36        37        68     9      180.000000       -1.044778         2    ;  uncertainty k = 0.678388
        13        36        37        68     9        0.000000        0.845981         3    ;  uncertainty k = 0.139447
        13        36        37        68     9      180.000000        0.067060         4    ;  uncertainty k = 0.156792
        13        36        37        69     9        0.000000       -0.629747         1    ;  uncertainty k = 1.198085
        13        36        37        69     9      180.000000       -1.044778         2    ;  uncertainty k = 0.678388
        13        36        37        69     9        0.000000        0.845981         3    ;  uncertainty k = 0.139447
        13        36        37        69     9      180.000000        0.067060         4    ;  uncertainty k = 0.156792
        14        12        15        23     9        0.000000        0.314697         1    ;  uncertainty k = 0.906421
        14        12        15        23     9      180.000000        5.701607         2    ;  uncertainty k = 0.553362
        14        12        15        23     9        0.000000        0.447751         3    ;  uncertainty k = 0.324099
        14        12        15        23     9      180.000000        0.566468         4    ;  uncertainty k = 0.186553
        14        12        15        27     9        0.000000       -0.365089         1    ;  uncertainty k = 1.334983
        14        12        15        27     9      180.000000        5.623010         2    ;  uncertainty k = 0.471145
        14        12        15        27     9        0.000000        1.053643         3    ;  uncertainty k = 0.510059
        14        12        15        27     9      180.000000        0.484610         4    ;  uncertainty k = 0.221967
        15        12        14        40     9        0.000000        0.198335         1    ;  uncertainty k = 0.251804
        15        12        14        40     9      180.000000       10.150939         2    ;  uncertainty k = 0.475324
        15        12        14        40     9        0.000000        1.313978         3    ;  uncertainty k = 0.155025
        15        12        14        40     9      180.000000        1.466775         4    ;  uncertainty k = 0.201526
        15        23        24        25     9        0.000000        0.059592         1    ;  uncertainty k = 0.465558
        15        23        24        25     9      180.000000       10.331884         2    ;  uncertainty k = 0.596039
        15        23        24        25     9        0.000000       -0.543531         3    ;  uncertainty k = 0.472586
        15        23        24        25     9      180.000000        1.003672         4    ;  uncertainty k = 0.219130
        15        23        24        42     9        0.000000        0.308880         1    ;  uncertainty k = 0.396443
        15        23        24        42     9      180.000000        6.634414         2    ;  uncertainty k = 0.482215
        15        23        24        42     9        0.000000        1.246175         3    ;  uncertainty k = 0.217442
        15        23        24        42     9      180.000000        1.602640         4    ;  uncertainty k = 0.102084
        15        27        26        25     9        0.000000       -0.238943         1    ;  uncertainty k = 0.449619
        15        27        26        25     9      180.000000        5.316450         2    ;  uncertainty k = 0.485823
        15        27        26        25     9        0.000000        0.767892         3    ;  uncertainty k = 0.218840
        15        27        26        25     9      180.000000        1.490068         4    ;  uncertainty k = 0.203216
        15        27        26        28     9        0.000000       -0.225360         1    ;  uncertainty k = 0.465519
        15        27        26        28     9      180.000000        5.301069         2    ;  uncertainty k = 0.491642
        15        27        26        28     9        0.000000        0.779713         3    ;  uncertainty k = 0.222958
        15        27        26        28     9      180.000000        1.493545         4    ;  uncertainty k = 0.198827
        15        27        31        30     9        0.000000        0.008220         1    ;  uncertainty k = 0.929188
        15        27        31        30     9      180.000000        4.857488         2    ;  uncertainty k = 0.378356
        15        27        31        30     9        0.000000        0.889616         3    ;  uncertainty k = 0.556651
        15        27        31        30     9      180.000000        1.148038         4    ;  uncertainty k = 0.316647
        15        27        31        39     9        0.000000       -0.166454         1    ;  uncertainty k = 0.576478
        15        27        31        39     9      180.000000        6.015651         2    ;  uncertainty k = 1.149785
        15        27        31        39     9        0.000000        1.231572         3    ;  uncertainty k = 0.380211
        15        27        31        39     9      180.000000        0.926935         4    ;  uncertainty k = 0.324880
        16        32        13        35     9        0.000000       -0.639178         1    ;  uncertainty k = 0.643538
        16        32        13        35     9      180.000000        0.472526         2    ;  uncertainty k = 0.328157
        16        32        13        35     9        0.000000        1.114089         3    ;  uncertainty k = 0.174942
        16        32        13        35     9      180.000000       -0.010613         4    ;  uncertainty k = 0.102410
        16        32        13        36     9        0.000000       -0.626805         1    ;  uncertainty k = 0.723132
        16        32        13        36     9      180.000000        0.698358         2    ;  uncertainty k = 0.445688
        16        32        13        36     9        0.000000        1.131548         3    ;  uncertainty k = 0.227513
        16        32        13        36     9      180.000000       -0.026928         4    ;  uncertainty k = 0.112057
        16        32        13        74     9        0.000000        2.999725         1    ;  uncertainty k = 1.649944
        16        32        13        74     9      180.000000       -1.176997         2    ;  uncertainty k = 0.939507
        16        32        13        74     9        0.000000        0.486169         3    ;  uncertainty k = 0.195304
        16        32        13        74     9      180.000000       -0.155976         4    ;  uncertainty k = 0.125202
        16        32        33        34     9        0.000000       -2.471278         1    ;  uncertainty k = 1.115432
        16        32        33        34     9      180.000000        0.908620         2    ;  uncertainty k = 0.807660
        16        32        33        34     9        0.000000        0.632752         3    ;  uncertainty k = 0.289710
        16        32        33        34     9      180.000000        0.013391         4    ;  uncertainty k = 0.239089
        16        32        33        61     9        0.000000        0.156883         1    ;  uncertainty k = 0.272250
        16        32        33        61     9      180.000000       -0.444333         2    ;  uncertainty k = 0.437555
        16        32        33        61     9        0.000000        0.690313         3    ;  uncertainty k = 0.195683
        16        32        33        61     9      180.000000       -0.107119         4    ;  uncertainty k = 0.112618
        16        32        33        62     9        0.000000        0.156883         1    ;  uncertainty k = 0.272250
        16        32        33        62     9      180.000000       -0.444333         2    ;  uncertainty k = 0.437555
        16        32        33        62     9        0.000000        0.690313         3    ;  uncertainty k = 0.195683
        16        32        33        62     9      180.000000       -0.107119         4    ;  uncertainty k = 0.112618
        16        32        38        37     9        0.000000       -3.104895         1    ;  uncertainty k = 0.997264
        16        32        38        37     9      180.000000        1.323646         2    ;  uncertainty k = 0.670841
        16        32        38        37     9        0.000000        0.846280         3    ;  uncertainty k = 0.204351
        16        32        38        37     9      180.000000       -0.029244         4    ;  uncertainty k = 0.290839
        16        32        38        70     9        0.000000        0.149810         1    ;  uncertainty k = 0.280995
        16        32        38        70     9      180.000000       -0.432167         2    ;  uncertainty k = 0.397421
        16        32        38        70     9        0.000000        0.713168         3    ;  uncertainty k = 0.204525
        16        32        38        70     9      180.000000       -0.126043         4    ;  uncertainty k = 0.138125
        16        32        38        71     9        0.000000        0.149810         1    ;  uncertainty k = 0.280995
        16        32        38        71     9      180.000000       -0.432167         2    ;  uncertainty k = 0.397421
        16        32        38        71     9        0.000000        0.713168         3    ;  uncertainty k = 0.204525
        16        32        38        71     9      180.000000       -0.126043         4    ;  uncertainty k = 0.138125
        17         9        20        19     9        0.000000        0.996296         1    ;  uncertainty k = 3.091746
        17         9        20        19     9      180.000000       -3.882568         2    ;  uncertainty k = 0.920126
        17         9        20        19     9        0.000000        0.631843         3    ;  uncertainty k = 0.319690
        17         9        20        19     9      180.000000       -0.069009         4    ;  uncertainty k = 0.224471
        17         9        20        51     9        0.000000       -4.262002         1    ;  uncertainty k = 1.361313
        17         9        20        51     9      180.000000        0.464518         2    ;  uncertainty k = 0.710044
        17         9        20        51     9        0.000000        0.955170         3    ;  uncertainty k = 0.043456
        17         9        20        51     9      180.000000       -0.070179         4    ;  uncertainty k = 0.112495
        17         9        20        52     9        0.000000       -4.262002         1    ;  uncertainty k = 1.361313
        17         9        20        52     9      180.000000        0.464518         2    ;  uncertainty k = 0.710044
        17         9        20        52     9        0.000000        0.955170         3    ;  uncertainty k = 0.043456
        17         9        20        52     9      180.000000       -0.070179         4    ;  uncertainty k = 0.112495
        17        18        11        19     9        0.000000        2.332974         1    ;  uncertainty k = 3.433745
        17        18        11        19     9      180.000000       -0.969466         2    ;  uncertainty k = 2.647801
        17        18        11        19     9        0.000000        0.669799         3    ;  uncertainty k = 0.434210
        17        18        11        19     9      180.000000       -0.707708         4    ;  uncertainty k = 0.580677
        17        18        11        44     9        0.000000        1.449081         1    ;  uncertainty k = 1.710019
        17        18        11        44     9      180.000000       -0.149483         2    ;  uncertainty k = 1.068319
        17        18        11        44     9        0.000000        0.745969         3    ;  uncertainty k = 0.389032
        17        18        11        44     9      180.000000        0.030759         4    ;  uncertainty k = 0.168263
        17        18        11        73     9        0.000000        1.449081         1    ;  uncertainty k = 1.710019
        17        18        11        73     9      180.000000       -0.149483         2    ;  uncertainty k = 1.068319
        17        18        11        73     9        0.000000        0.745969         3    ;  uncertainty k = 0.389032
        17        18        11        73     9      180.000000        0.030759         4    ;  uncertainty k = 0.168263
        17        18        22        21     9        0.000000        1.425983         1    ;  uncertainty k = 2.348979
        17        18        22        21     9      180.000000        1.085251         2    ;  uncertainty k = 1.083519
        17        18        22        21     9        0.000000        1.042528         3    ;  uncertainty k = 0.388855
        17        18        22        21     9      180.000000       -0.396419         4    ;  uncertainty k = 0.415101
        17        18        22        55     9        0.000000       -0.935670         1    ;  uncertainty k = 0.319567
        17        18        22        55     9      180.000000       -0.073400         2    ;  uncertainty k = 0.323152
        17        18        22        55     9        0.000000        0.584904         3    ;  uncertainty k = 0.288153
        17        18        22        55     9      180.000000       -0.098097         4    ;  uncertainty k = 0.050566
        17        18        22        56     9        0.000000       -0.935670         1    ;  uncertainty k = 0.319567
        17        18        22        56     9      180.000000       -0.073400         2    ;  uncertainty k = 0.323152
        17        18        22        56     9        0.000000        0.584904         3    ;  uncertainty k = 0.288153
        17        18        22        56     9      180.000000       -0.098097         4    ;  uncertainty k = 0.050566
        18        11        19        20     9        0.000000        2.332974         1    ;  uncertainty k = 3.433745
        18        11        19        20     9      180.000000       -0.969466         2    ;  uncertainty k = 2.647801
        18        11        19        20     9        0.000000        0.669799         3    ;  uncertainty k = 0.434210
        18        11        19        20     9      180.000000       -0.707708         4    ;  uncertainty k = 0.580677
        18        11        19        21     9        0.000000       -2.863884         1    ;  uncertainty k = 0.953340
        18        11        19        21     9      180.000000        5.881051         2    ;  uncertainty k = 1.496646
        18        11        19        21     9        0.000000        0.959501         3    ;  uncertainty k = 0.308106
        18        11        19        21     9      180.000000       -1.578218         4    ;  uncertainty k = 0.785949
        18        11        19        50     9        0.000000       -2.464294         1    ;  uncertainty k = 3.480424
        18        11        19        50     9      180.000000       -1.153887         2    ;  uncertainty k = 0.886333
        18        11        19        50     9        0.000000        0.163905         3    ;  uncertainty k = 0.495815
        18        11        19        50     9      180.000000       -0.156421         4    ;  uncertainty k = 0.288580
        18        17         9        20     9        0.000000        0.996296         1    ;  uncertainty k = 3.091746
        18        17         9        20     9      180.000000       -3.882568         2    ;  uncertainty k = 0.920126
        18        17         9        20     9        0.000000        0.631843         3    ;  uncertainty k = 0.319690
        18        17         9        20     9      180.000000       -0.069009         4    ;  uncertainty k = 0.224471
        18        22        21        19     9        0.000000       -2.135289         1    ;  uncertainty k = 3.339583
        18        22        21        19     9      180.000000        7.371280         2    ;  uncertainty k = 1.668222
        18        22        21        19     9        0.000000        0.556705         3    ;  uncertainty k = 0.529878
        18        22        21        19     9      180.000000       -1.870357         4    ;  uncertainty k = 0.587896
        18        22        21        53     9        0.000000       -1.534651         1    ;  uncertainty k = 0.857224
        18        22        21        53     9      180.000000        0.015553         2    ;  uncertainty k = 0.276003
        18        22        21        53     9        0.000000        0.812494         3    ;  uncertainty k = 0.034992
        18        22        21        53     9      180.000000        0.159229         4    ;  uncertainty k = 0.085386
        18        22        21        54     9        0.000000       -1.534651         1    ;  uncertainty k = 0.857224
        18        22        21        54     9      180.000000        0.015553         2    ;  uncertainty k = 0.276003
        18        22        21        54     9        0.000000        0.812494         3    ;  uncertainty k = 0.034992
        18        22        21        54     9      180.000000        0.159229         4    ;  uncertainty k = 0.085386
        19        11        18        22     9        0.000000       -2.863884         1    ;  uncertainty k = 0.953340
        19        11        18        22     9      180.000000        5.881051         2    ;  uncertainty k = 1.496646
        19        11        18        22     9        0.000000        0.959501         3    ;  uncertainty k = 0.308106
        19        11        18        22     9      180.000000       -1.578218         4    ;  uncertainty k = 0.785949
        19        11        18        49     9        0.000000       -2.464294         1    ;  uncertainty k = 3.480424
        19        11        18        49     9      180.000000       -1.153887         2    ;  uncertainty k = 0.886333
        19        11        18        49     9        0.000000        0.163905         3    ;  uncertainty k = 0.495815
        19        11        18        49     9      180.000000       -0.156421         4    ;  uncertainty k = 0.288580
        19        21        22        55     9        0.000000       -1.534651         1    ;  uncertainty k = 0.857224
        19        21        22        55     9      180.000000        0.015553         2    ;  uncertainty k = 0.276003
        19        21        22        55     9        0.000000        0.812494         3    ;  uncertainty k = 0.034992
        19        21        22        55     9      180.000000        0.159229         4    ;  uncertainty k = 0.085386
        19        21        22        56     9        0.000000       -1.534651         1    ;  uncertainty k = 0.857224
        19        21        22        56     9      180.000000        0.015553         2    ;  uncertainty k = 0.276003
        19        21        22        56     9        0.000000        0.812494         3    ;  uncertainty k = 0.034992
        19        21        22        56     9      180.000000        0.159229         4    ;  uncertainty k = 0.085386
        20         9        17        47     9        0.000000       -4.262002         1    ;  uncertainty k = 1.361313
        20         9        17        47     9      180.000000        0.464518         2    ;  uncertainty k = 0.710044
        20         9        17        47     9        0.000000        0.955170         3    ;  uncertainty k = 0.043456
        20         9        17        47     9      180.000000       -0.070179         4    ;  uncertainty k = 0.112495
        20         9        17        48     9        0.000000       -4.262002         1    ;  uncertainty k = 1.361313
        20         9        17        48     9      180.000000        0.464518         2    ;  uncertainty k = 0.710044
        20         9        17        48     9        0.000000        0.955170         3    ;  uncertainty k = 0.043456
        20         9        17        48     9      180.000000       -0.070179         4    ;  uncertainty k = 0.112495
        20        19        11        44     9        0.000000        1.449081         1    ;  uncertainty k = 1.710019
        20        19        11        44     9      180.000000       -0.149483         2    ;  uncertainty k = 1.068319
        20        19        11        44     9        0.000000        0.745969         3    ;  uncertainty k = 0.389032
        20        19        11        44     9      180.000000        0.030759         4    ;  uncertainty k = 0.168263
        20        19        11        73     9        0.000000        1.449081         1    ;  uncertainty k = 1.710019
        20        19        11        73     9      180.000000       -0.149483         2    ;  uncertainty k = 1.068319
        20        19        11        73     9        0.000000        0.745969         3    ;  uncertainty k = 0.389032
        20        19        11        73     9      180.000000        0.030759         4    ;  uncertainty k = 0.168263
        20        19        21        22     9        0.000000        1.425983         1    ;  uncertainty k = 2.348979
        20        19        21        22     9      180.000000        1.085251         2    ;  uncertainty k = 1.083519
        20        19        21        22     9        0.000000        1.042528         3    ;  uncertainty k = 0.388855
        20        19        21        22     9      180.000000       -0.396419         4    ;  uncertainty k = 0.415101
        20        19        21        53     9        0.000000       -0.935670         1    ;  uncertainty k = 0.319567
        20        19        21        53     9      180.000000       -0.073400         2    ;  uncertainty k = 0.323152
        20        19        21        53     9        0.000000        0.584904         3    ;  uncertainty k = 0.288153
        20        19        21        53     9      180.000000       -0.098097         4    ;  uncertainty k = 0.050566
        20        19        21        54     9        0.000000       -0.935670         1    ;  uncertainty k = 0.319567
        20        19        21        54     9      180.000000       -0.073400         2    ;  uncertainty k = 0.323152
        20        19        21        54     9        0.000000        0.584904         3    ;  uncertainty k = 0.288153
        20        19        21        54     9      180.000000       -0.098097         4    ;  uncertainty k = 0.050566
        21        19        11        44     9        0.000000       -1.262213         1    ;  uncertainty k = 1.005152
        21        19        11        44     9      180.000000        2.725544         2    ;  uncertainty k = 0.732836
        21        19        11        44     9        0.000000        0.844379         3    ;  uncertainty k = 0.439475
        21        19        11        44     9      180.000000       -0.092959         4    ;  uncertainty k = 0.177019
        21        19        11        73     9        0.000000       -1.262213         1    ;  uncertainty k = 1.005152
        21        19        11        73     9      180.000000        2.725544         2    ;  uncertainty k = 0.732836
        21        19        11        73     9        0.000000        0.844379         3    ;  uncertainty k = 0.439475
        21        19        11        73     9      180.000000       -0.092959         4    ;  uncertainty k = 0.177019
        21        19        20        51     9        0.000000       -1.591268         1    ;  uncertainty k = 0.965378
        21        19        20        51     9      180.000000        0.142374         2    ;  uncertainty k = 0.299069
        21        19        20        51     9        0.000000        0.343526         3    ;  uncertainty k = 0.196374
        21        19        20        51     9      180.000000       -0.030757         4    ;  uncertainty k = 0.039234
        21        19        20        52     9        0.000000       -1.591268         1    ;  uncertainty k = 0.965378
        21        19        20        52     9      180.000000        0.142374         2    ;  uncertainty k = 0.299069
        21        19        20        52     9        0.000000        0.343526         3    ;  uncertainty k = 0.196374
        21        19        20        52     9      180.000000       -0.030757         4    ;  uncertainty k = 0.039234
        21        22        18        49     9        0.000000       -0.957159         1    ;  uncertainty k = 1.390041
        21        22        18        49     9      180.000000        0.911072         2    ;  uncertainty k = 0.870353
        21        22        18        49     9        0.000000        0.472911         3    ;  uncertainty k = 0.357988
        21        22        18        49     9      180.000000       -0.015053         4    ;  uncertainty k = 0.294989
        22        18        11        44     9        0.000000       -1.262213         1    ;  uncertainty k = 1.005152
        22        18        11        44     9      180.000000        2.725544         2    ;  uncertainty k = 0.732836
        22        18        11        44     9        0.000000        0.844379         3    ;  uncertainty k = 0.439475
        22        18        11        44     9      180.000000       -0.092959         4    ;  uncertainty k = 0.177019
        22        18        11        73     9        0.000000       -1.262213         1    ;  uncertainty k = 1.005152
        22        18        11        73     9      180.000000        2.725544         2    ;  uncertainty k = 0.732836
        22        18        11        73     9        0.000000        0.844379         3    ;  uncertainty k = 0.439475
        22        18        11        73     9      180.000000       -0.092959         4    ;  uncertainty k = 0.177019
        22        18        17        47     9        0.000000       -1.591268         1    ;  uncertainty k = 0.965378
        22        18        17        47     9      180.000000        0.142374         2    ;  uncertainty k = 0.299069
        22        18        17        47     9        0.000000        0.343526         3    ;  uncertainty k = 0.196374
        22        18        17        47     9      180.000000       -0.030757         4    ;  uncertainty k = 0.039234
        22        18        17        48     9        0.000000       -1.591268         1    ;  uncertainty k = 0.965378
        22        18        17        48     9      180.000000        0.142374         2    ;  uncertainty k = 0.299069
        22        18        17        48     9        0.000000        0.343526         3    ;  uncertainty k = 0.196374
        22        18        17        48     9      180.000000       -0.030757         4    ;  uncertainty k = 0.039234
        22        21        19        50     9        0.000000       -0.957159         1    ;  uncertainty k = 1.390041
        22        21        19        50     9      180.000000        0.911072         2    ;  uncertainty k = 0.870353
        22        21        19        50     9        0.000000        0.472911         3    ;  uncertainty k = 0.357988
        22        21        19        50     9      180.000000       -0.015053         4    ;  uncertainty k = 0.294989
        23        15        27        26     9        0.000000       -0.037869         1    ;  uncertainty k = 0.735123
        23        15        27        26     9      180.000000        6.368013         2    ;  uncertainty k = 0.598131
        23        15        27        26     9        0.000000        0.316485         3    ;  uncertainty k = 0.508025
        23        15        27        26     9      180.000000        1.087366         4    ;  uncertainty k = 0.227667
        23        15        27        31     9        0.000000        0.526651         1    ;  uncertainty k = 1.003883
        23        15        27        31     9      180.000000        5.946182         2    ;  uncertainty k = 0.549638
        23        15        27        31     9        0.000000        0.881011         3    ;  uncertainty k = 0.651939
        23        15        27        31     9      180.000000        0.953845         4    ;  uncertainty k = 0.362604
        23        24        25        26     9        0.000000        0.068645         1    ;  uncertainty k = 0.376578
        23        24        25        26     9      180.000000       15.899345         2    ;  uncertainty k = 0.178586
        23        24        25        26     9        0.000000       -0.498041         3    ;  uncertainty k = 0.490393
        23        24        25        26     9      180.000000        0.764036         4    ;  uncertainty k = 0.141966
        23        24        25        58     9        0.000000        0.187127         1    ;  uncertainty k = 0.225315
        23        24        25        58     9      180.000000        9.253211         2    ;  uncertainty k = 0.425291
        23        24        25        58     9        0.000000        1.436772         3    ;  uncertainty k = 0.319677
        23        24        25        58     9      180.000000        1.844407         4    ;  uncertainty k = 0.257008
        24        23        15        27     9        0.000000       -0.079392         1    ;  uncertainty k = 0.587094
        24        23        15        27     9      180.000000       12.825734         2    ;  uncertainty k = 0.611165
        24        23        15        27     9        0.000000        0.723163         3    ;  uncertainty k = 0.471052
        24        23        15        27     9      180.000000        1.214753         4    ;  uncertainty k = 0.527722
        24        25        26        27     9        0.000000        0.126533         1    ;  uncertainty k = 0.239009
        24        25        26        27     9      180.000000        9.541420         2    ;  uncertainty k = 0.529339
        24        25        26        27     9        0.000000       -0.001873         3    ;  uncertainty k = 0.185332
        24        25        26        27     9      180.000000        1.266099         4    ;  uncertainty k = 0.135879
        24        25        26        28     9        0.000000       -0.177788         1    ;  uncertainty k = 0.300346
        24        25        26        28     9      180.000000        9.718704         2    ;  uncertainty k = 0.418753
        24        25        26        28     9        0.000000        0.460597         3    ;  uncertainty k = 0.306961
        24        25        26        28     9      180.000000        1.417944         4    ;  uncertainty k = 0.145926
        25        24        23        57     9        0.000000        0.018937         1    ;  uncertainty k = 0.297840
        25        24        23        57     9      180.000000        6.754314         2    ;  uncertainty k = 0.390362
        25        24        23        57     9        0.000000        1.230091         3    ;  uncertainty k = 0.219290
        25        24        23        57     9      180.000000        1.623683         4    ;  uncertainty k = 0.152465
        25        26        27        31     9        0.000000       -0.358979         1    ;  uncertainty k = 0.386404
        25        26        27        31     9      180.000000        5.599497         2    ;  uncertainty k = 0.527404
        25        26        27        31     9        0.000000        0.671723         3    ;  uncertainty k = 0.490256
        25        26        27        31     9      180.000000        1.460840         4    ;  uncertainty k = 0.227372
        25        26        28        29     9        0.000000       -0.191700         1    ;  uncertainty k = 0.378766
        25        26        28        29     9      180.000000        9.600351         2    ;  uncertainty k = 0.456213
        25        26        28        29     9        0.000000        0.434048         3    ;  uncertainty k = 0.384075
        25        26        28        29     9      180.000000        1.432396         4    ;  uncertainty k = 0.124340
        25        26        28        59     9        0.000000       -0.068264         1    ;  uncertainty k = 0.262141
        25        26        28        59     9      180.000000        6.947176         2    ;  uncertainty k = 0.431817
        25        26        28        59     9        0.000000        1.120631         3    ;  uncertainty k = 0.256145
        25        26        28        59     9      180.000000        1.255886         4    ;  uncertainty k = 0.062876
        26        25        24        42     9        0.000000        0.334149         1    ;  uncertainty k = 0.343953
        26        25        24        42     9      180.000000       10.128075         2    ;  uncertainty k = 0.262995
        26        25        24        42     9        0.000000        1.508493         3    ;  uncertainty k = 0.325743
        26        25        24        42     9      180.000000        1.741905         4    ;  uncertainty k = 0.171862
        26        27        31        30     9        0.000000        0.009233         1    ;  uncertainty k = 1.143659
        26        27        31        30     9      180.000000        5.624888         2    ;  uncertainty k = 0.310453
        26        27        31        30     9        0.000000        0.328085         3    ;  uncertainty k = 0.304791
        26        27        31        30     9      180.000000        1.125986         4    ;  uncertainty k = 0.267815
        26        27        31        39     9        0.000000        0.254728         1    ;  uncertainty k = 0.443451
        26        27        31        39     9      180.000000        6.627400         2    ;  uncertainty k = 0.741972
        26        27        31        39     9        0.000000        1.385188         3    ;  uncertainty k = 0.215234
        26        27        31        39     9      180.000000        1.010223         4    ;  uncertainty k = 0.127116
        26        28        29        30     9        0.000000        0.100493         1    ;  uncertainty k = 0.280243
        26        28        29        30     9      180.000000       16.203365         2    ;  uncertainty k = 0.206097
        26        28        29        30     9        0.000000       -0.465690         3    ;  uncertainty k = 0.305368
        26        28        29        30     9      180.000000        0.765459         4    ;  uncertainty k = 0.180877
        26        28        29        60     9        0.000000        0.376671         1    ;  uncertainty k = 0.309347
        26        28        29        60     9      180.000000       10.144096         2    ;  uncertainty k = 0.267101
        26        28        29        60     9        0.000000        1.539023         3    ;  uncertainty k = 0.303180
        26        28        29        60     9      180.000000        1.748925         4    ;  uncertainty k = 0.199127
        27        15        23        57     9        0.000000        0.156304         1    ;  uncertainty k = 0.425867
        27        15        23        57     9      180.000000        9.775176         2    ;  uncertainty k = 0.551522
        27        15        23        57     9        0.000000        1.359065         3    ;  uncertainty k = 0.224875
        27        15        23        57     9      180.000000        1.627742         4    ;  uncertainty k = 0.359074
        27        26        25        58     9        0.000000        0.080263         1    ;  uncertainty k = 0.403422
        27        26        25        58     9      180.000000        6.398256         2    ;  uncertainty k = 0.497692
        27        26        25        58     9        0.000000        1.161028         3    ;  uncertainty k = 0.282894
        27        26        25        58     9      180.000000        1.305735         4    ;  uncertainty k = 0.236571
        27        26        28        29     9        0.000000        0.050974         1    ;  uncertainty k = 0.213336
        27        26        28        29     9      180.000000        9.479099         2    ;  uncertainty k = 0.553301
        27        26        28        29     9        0.000000        0.015725         3    ;  uncertainty k = 0.200620
        27        26        28        29     9      180.000000        1.251238         4    ;  uncertainty k = 0.129064
        27        26        28        59     9        0.000000        0.095583         1    ;  uncertainty k = 0.405947
        27        26        28        59     9      180.000000        6.361868         2    ;  uncertainty k = 0.481907
        27        26        28        59     9        0.000000        1.163690         3    ;  uncertainty k = 0.279576
        27        26        28        59     9      180.000000        1.307736         4    ;  uncertainty k = 0.236113
        27        31        30        29     9        0.000000        0.094891         1    ;  uncertainty k = 0.403080
        27        31        30        29     9      180.000000       10.730016         2    ;  uncertainty k = 0.579178
        27        31        30        29     9        0.000000        0.634060         3    ;  uncertainty k = 0.373054
        27        31        30        29     9      180.000000        1.353675         4    ;  uncertainty k = 0.311900
        27        31        30        72     9        0.000000        0.363830         1    ;  uncertainty k = 0.406007
        27        31        30        72     9      180.000000        7.973985         2    ;  uncertainty k = 0.426263
        27        31        30        72     9        0.000000        1.451479         3    ;  uncertainty k = 0.218710
        27        31        30        72     9      180.000000        1.696668         4    ;  uncertainty k = 0.285684
        28        26        25        58     9        0.000000       -0.059674         1    ;  uncertainty k = 0.224370
        28        26        25        58     9      180.000000        6.957164         2    ;  uncertainty k = 0.408490
        28        26        25        58     9        0.000000        1.126654         3    ;  uncertainty k = 0.252215
        28        26        25        58     9      180.000000        1.256005         4    ;  uncertainty k = 0.066927
        28        26        27        31     9        0.000000       -0.358284         1    ;  uncertainty k = 0.419053
        28        26        27        31     9      180.000000        5.577207         2    ;  uncertainty k = 0.537393
        28        26        27        31     9        0.000000        0.683498         3    ;  uncertainty k = 0.489951
        28        26        27        31     9      180.000000        1.463095         4    ;  uncertainty k = 0.227854
        28        29        30        31     9        0.000000       -0.087766         1    ;  uncertainty k = 0.229116
        28        29        30        31     9      180.000000       11.275092         2    ;  uncertainty k = 0.481007
        28        29        30        31     9        0.000000       -0.715454         3    ;  uncertainty k = 0.654433
        28        29        30        31     9      180.000000        0.867992         4    ;  uncertainty k = 0.200443
        28        29        30        72     9        0.000000        0.041731         1    ;  uncertainty k = 0.427454
        28        29        30        72     9      180.000000        6.864288         2    ;  uncertainty k = 0.539745
        28        29        30        72     9        0.000000        1.311968         3    ;  uncertainty k = 0.311643
        28        29        30        72     9      180.000000        1.556696         4    ;  uncertainty k = 0.160276
        29        30        31        39     9        0.000000        0.013342         1    ;  uncertainty k = 0.343424
        29        30        31        39     9      180.000000       11.972202         2    ;  uncertainty k = 0.539915
        29        30        31        39     9        0.000000        1.417304         3    ;  uncertainty k = 0.247313
        29        30        31        39     9      180.000000        1.681673         4    ;  uncertainty k = 0.307678
        30        29        28        59     9        0.000000        0.131408         1    ;  uncertainty k = 0.094048
        30        29        28        59     9      180.000000        9.596418         2    ;  uncertainty k = 0.449514
        30        29        28        59     9        0.000000        1.440661         3    ;  uncertainty k = 0.374395
        30        29        28        59     9      180.000000        1.874298         4    ;  uncertainty k = 0.252514
        31        30        29        60     9        0.000000        0.068949         1    ;  uncertainty k = 0.418782
        31        30        29        60     9      180.000000        6.852282         2    ;  uncertainty k = 0.390725
        31        30        29        60     9        0.000000        1.504143         3    ;  uncertainty k = 0.267197
        31        30        29        60     9      180.000000        1.589524         4    ;  uncertainty k = 0.144451
        32        13        35        34     9        0.000000       -1.195631         1    ;  uncertainty k = 2.066799
        32        13        35        34     9      180.000000        2.132754         2    ;  uncertainty k = 2.134026
        32        13        35        34     9        0.000000        0.539887         3    ;  uncertainty k = 0.184632
        32        13        35        34     9      180.000000       -0.584180         4    ;  uncertainty k = 0.195142
        32        13        35        64     9        0.000000        0.411534         1    ;  uncertainty k = 0.297414
        32        13        35        64     9      180.000000       -0.322366         2    ;  uncertainty k = 0.554299
        32        13        35        64     9        0.000000        0.572894         3    ;  uncertainty k = 0.114023
        32        13        35        64     9      180.000000        0.089412         4    ;  uncertainty k = 0.120513
        32        13        35        65     9        0.000000        0.411534         1    ;  uncertainty k = 0.297414
        32        13        35        65     9      180.000000       -0.322366         2    ;  uncertainty k = 0.554299
        32        13        35        65     9        0.000000        0.572894         3    ;  uncertainty k = 0.114023
        32        13        35        65     9      180.000000        0.089412         4    ;  uncertainty k = 0.120513
        32        13        36        37     9        0.000000       -3.324505         1    ;  uncertainty k = 2.046848
        32        13        36        37     9      180.000000        3.921835         2    ;  uncertainty k = 2.395800
        32        13        36        37     9        0.000000        0.760440         3    ;  uncertainty k = 0.265909
        32        13        36        37     9      180.000000       -0.866054         4    ;  uncertainty k = 0.253926
        32        13        36        66     9        0.000000        0.627919         1    ;  uncertainty k = 0.344784
        32        13        36        66     9      180.000000       -0.523048         2    ;  uncertainty k = 0.655984
        32        13        36        66     9        0.000000        0.559069         3    ;  uncertainty k = 0.117734
        32        13        36        66     9      180.000000        0.113462         4    ;  uncertainty k = 0.133169
        32        13        36        67     9        0.000000        0.627919         1    ;  uncertainty k = 0.344784
        32        13        36        67     9      180.000000       -0.523048         2    ;  uncertainty k = 0.655984
        32        13        36        67     9        0.000000        0.559069         3    ;  uncertainty k = 0.117734
        32        13        36        67     9      180.000000        0.113462         4    ;  uncertainty k = 0.133169
        32        33        34        35     9        0.000000       -1.368642         1    ;  uncertainty k = 1.142051
        32        33        34        35     9      180.000000        3.837818         2    ;  uncertainty k = 1.334522
        32        33        34        35     9        0.000000        0.208044         3    ;  uncertainty k = 0.436054
        32        33        34        35     9      180.000000       -1.164148         4    ;  uncertainty k = 0.214891
        32        33        34        41     9        0.000000       -2.359342         1    ;  uncertainty k = 1.453478
        32        33        34        41     9      180.000000       -0.525068         2    ;  uncertainty k = 0.954490
        32        33        34        41     9        0.000000        0.969919         3    ;  uncertainty k = 0.259228
        32        33        34        41     9      180.000000        0.199583         4    ;  uncertainty k = 0.129406
        32        33        34        63     9        0.000000       -0.468934         1    ;  uncertainty k = 0.241299
        32        33        34        63     9      180.000000        0.583055         2    ;  uncertainty k = 0.468769
        32        33        34        63     9        0.000000        0.357769         3    ;  uncertainty k = 0.237704
        32        33        34        63     9      180.000000       -0.102254         4    ;  uncertainty k = 0.047155
        32        38        37        36     9        0.000000       -0.998877         1    ;  uncertainty k = 0.846504
        32        38        37        36     9      180.000000        4.241090         2    ;  uncertainty k = 1.841506
        32        38        37        36     9        0.000000        0.322704         3    ;  uncertainty k = 0.356794
        32        38        37        36     9      180.000000       -1.638901         4    ;  uncertainty k = 0.577723
        32        38        37        68     9        0.000000       -0.580146         1    ;  uncertainty k = 0.436494
        32        38        37        68     9      180.000000       -0.638570         2    ;  uncertainty k = 0.285140
        32        38        37        68     9        0.000000        0.540445         3    ;  uncertainty k = 0.139964
        32        38        37        68     9      180.000000        0.121223         4    ;  uncertainty k = 0.095489
        32        38        37        69     9        0.000000       -0.580146         1    ;  uncertainty k = 0.436494
        32        38        37        69     9      180.000000       -0.638570         2    ;  uncertainty k = 0.285140
        32        38        37        69     9        0.000000        0.540445         3    ;  uncertainty k = 0.139964
        32        38        37        69     9      180.000000        0.121223         4    ;  uncertainty k = 0.095489
        33        32        13        35     9        0.000000       -2.395663         1    ;  uncertainty k = 1.524704
        33        32        13        35     9      180.000000        0.302722         2    ;  uncertainty k = 1.023424
        33        32        13        35     9        0.000000        1.519274         3    ;  uncertainty k = 0.356773
        33        32        13        35     9      180.000000       -0.103660         4    ;  uncertainty k = 0.279154
        33        32        13        36     9        0.000000       -2.523383         1    ;  uncertainty k = 1.338521
        33        32        13        36     9      180.000000        0.395082         2    ;  uncertainty k = 0.939889
        33        32        13        36     9        0.000000        1.534443         3    ;  uncertainty k = 0.318764
        33        32        13        36     9      180.000000       -0.118144         4    ;  uncertainty k = 0.253492
        33        32        13        74     9        0.000000        1.750261         1    ;  uncertainty k = 0.866113
        33        32        13        74     9      180.000000        0.104748         2    ;  uncertainty k = 0.278568
        33        32        13        74     9        0.000000        0.422846         3    ;  uncertainty k = 0.268763
        33        32        13        74     9      180.000000       -0.108626         4    ;  uncertainty k = 0.173580
        33        32        16        45     9        0.000000       -1.344375         1    ;  uncertainty k = 0.487676
        33        32        16        45     9      180.000000        0.124134         2    ;  uncertainty k = 0.172032
        33        32        16        45     9        0.000000        0.348188         3    ;  uncertainty k = 0.154494
        33        32        16        45     9      180.000000       -0.189504         4    ;  uncertainty k = 0.054597
        33        32        16        46     9        0.000000       -1.344375         1    ;  uncertainty k = 0.487676
        33        32        16        46     9      180.000000        0.124134         2    ;  uncertainty k = 0.172032
        33        32        16        46     9        0.000000        0.348188         3    ;  uncertainty k = 0.154494
        33        32        16        46     9      180.000000       -0.189504         4    ;  uncertainty k = 0.054597
        33        32        38        37     9        0.000000       -3.093941         1    ;  uncertainty k = 0.887633
        33        32        38        37     9      180.000000        1.658632         2    ;  uncertainty k = 0.404874
        33        32        38        37     9        0.000000        1.004480         3    ;  uncertainty k = 0.124356
        33        32        38        37     9      180.000000       -0.045683         4    ;  uncertainty k = 0.218287
        33        32        38        70     9        0.000000       -0.657099         1    ;  uncertainty k = 0.264135
        33        32        38        70     9      180.000000       -0.118516         2    ;  uncertainty k = 0.278253
        33        32        38        70     9        0.000000        0.643050         3    ;  uncertainty k = 0.239235
        33        32        38        70     9      180.000000        0.003887         4    ;  uncertainty k = 0.083291
        33        32        38        71     9        0.000000       -0.657099         1    ;  uncertainty k = 0.264135
        33        32        38        71     9      180.000000       -0.118516         2    ;  uncertainty k = 0.278253
        33        32        38        71     9        0.000000        0.643050         3    ;  uncertainty k = 0.239235
        33        32        38        71     9      180.000000        0.003887         4    ;  uncertainty k = 0.083291
        33        34        35        64     9        0.000000       -1.160856         1    ;  uncertainty k = 0.551031
        33        34        35        64     9      180.000000       -0.159421         2    ;  uncertainty k = 0.154425
        33        34        35        64     9        0.000000        0.290565         3    ;  uncertainty k = 0.161159
        33        34        35        64     9      180.000000        0.023554         4    ;  uncertainty k = 0.085688
        33        34        35        65     9        0.000000       -1.160856         1    ;  uncertainty k = 0.551031
        33        34        35        65     9      180.000000       -0.159421         2    ;  uncertainty k = 0.154425
        33        34        35        65     9        0.000000        0.290565         3    ;  uncertainty k = 0.161159
        33        34        35        65     9      180.000000        0.023554         4    ;  uncertainty k = 0.085688
        34        33        32        38     9        0.000000       -2.738758         1    ;  uncertainty k = 0.849017
        34        33        32        38     9      180.000000        0.828297         2    ;  uncertainty k = 0.485746
        34        33        32        38     9        0.000000        0.639755         3    ;  uncertainty k = 0.153197
        34        33        32        38     9      180.000000       -0.053471         4    ;  uncertainty k = 0.163570
        34        35        13        36     9        0.000000       -1.899600         1    ;  uncertainty k = 0.460369
        34        35        13        36     9      180.000000       -0.354065         2    ;  uncertainty k = 0.704830
        34        35        13        36     9        0.000000        1.129099         3    ;  uncertainty k = 0.298646
        34        35        13        36     9      180.000000       -0.076611         4    ;  uncertainty k = 0.232941
        34        35        13        74     9        0.000000        1.978203         1    ;  uncertainty k = 1.666874
        34        35        13        74     9      180.000000       -1.271299         2    ;  uncertainty k = 0.522278
        34        35        13        74     9        0.000000        0.588759         3    ;  uncertainty k = 0.273375
        34        35        13        74     9      180.000000        0.019119         4    ;  uncertainty k = 0.172144
        35        13        32        38     9        0.000000       -2.580495         1    ;  uncertainty k = 1.608499
        35        13        32        38     9      180.000000        0.298985         2    ;  uncertainty k = 1.231663
        35        13        32        38     9        0.000000        1.513489         3    ;  uncertainty k = 0.348048
        35        13        32        38     9      180.000000       -0.150708         4    ;  uncertainty k = 0.361386
        35        13        36        37     9        0.000000       -3.064349         1    ;  uncertainty k = 0.690274
        35        13        36        37     9      180.000000        0.593983         2    ;  uncertainty k = 0.871916
        35        13        36        37     9        0.000000        1.471688         3    ;  uncertainty k = 0.329536
        35        13        36        37     9      180.000000       -0.049578         4    ;  uncertainty k = 0.224774
        35        13        36        66     9        0.000000        0.122147         1    ;  uncertainty k = 0.337927
        35        13        36        66     9      180.000000       -0.533425         2    ;  uncertainty k = 0.374997
        35        13        36        66     9        0.000000        1.071767         3    ;  uncertainty k = 0.267585
        35        13        36        66     9      180.000000        0.024694         4    ;  uncertainty k = 0.078256
        35        13        36        67     9        0.000000        0.122147         1    ;  uncertainty k = 0.337927
        35        13        36        67     9      180.000000       -0.533425         2    ;  uncertainty k = 0.374997
        35        13        36        67     9        0.000000        1.071767         3    ;  uncertainty k = 0.267585
        35        13        36        67     9      180.000000        0.024694         4    ;  uncertainty k = 0.078256
        35        34        33        61     9        0.000000       -1.288712         1    ;  uncertainty k = 0.737068
        35        34        33        61     9      180.000000        0.099805         2    ;  uncertainty k = 0.161910
        35        34        33        61     9        0.000000        0.502226         3    ;  uncertainty k = 0.163406
        35        34        33        61     9      180.000000        0.116336         4    ;  uncertainty k = 0.056889
        35        34        33        62     9        0.000000       -1.288712         1    ;  uncertainty k = 0.737068
        35        34        33        62     9      180.000000        0.099805         2    ;  uncertainty k = 0.161910
        35        34        33        62     9        0.000000        0.502226         3    ;  uncertainty k = 0.163406
        35        34        33        62     9      180.000000        0.116336         4    ;  uncertainty k = 0.056889
        36        13        32        38     9        0.000000       -2.904349         1    ;  uncertainty k = 1.168020
        36        13        32        38     9      180.000000        0.314865         2    ;  uncertainty k = 1.137654
        36        13        32        38     9        0.000000        1.538343         3    ;  uncertainty k = 0.335719
        36        13        32        38     9      180.000000       -0.164713         4    ;  uncertainty k = 0.323609
        36        13        35        64     9        0.000000       -0.221573         1    ;  uncertainty k = 0.366295
        36        13        35        64     9      180.000000       -0.325655         2    ;  uncertainty k = 0.290333
        36        13        35        64     9        0.000000        0.987233         3    ;  uncertainty k = 0.254192
        36        13        35        64     9      180.000000        0.005287         4    ;  uncertainty k = 0.051103
        36        13        35        65     9        0.000000       -0.221573         1    ;  uncertainty k = 0.366295
        36        13        35        65     9      180.000000       -0.325655         2    ;  uncertainty k = 0.290333
        36        13        35        65     9        0.000000        0.987233         3    ;  uncertainty k = 0.254192
        36        13        35        65     9      180.000000        0.005287         4    ;  uncertainty k = 0.051103
        36        37        38        70     9        0.000000       -1.708880         1    ;  uncertainty k = 0.515654
        36        37        38        70     9      180.000000        0.019179         2    ;  uncertainty k = 0.079205
        36        37        38        70     9        0.000000        0.831176         3    ;  uncertainty k = 0.073769
        36        37        38        70     9      180.000000        0.171490         4    ;  uncertainty k = 0.040914
        36        37        38        71     9        0.000000       -1.708880         1    ;  uncertainty k = 0.515654
        36        37        38        71     9      180.000000        0.019179         2    ;  uncertainty k = 0.079205
        36        37        38        71     9        0.000000        0.831176         3    ;  uncertainty k = 0.073769
        36        37        38        71     9      180.000000        0.171490         4    ;  uncertainty k = 0.040914
        37        36        13        74     9        0.000000        2.252897         1    ;  uncertainty k = 1.235177
        37        36        13        74     9      180.000000       -0.618196         2    ;  uncertainty k = 0.862018
        37        36        13        74     9        0.000000        0.664194         3    ;  uncertainty k = 0.225898
        37        36        13        74     9      180.000000        0.080725         4    ;  uncertainty k = 0.182553
        38        32        13        74     9        0.000000        1.890107         1    ;  uncertainty k = 1.269200
        38        32        13        74     9      180.000000        0.211733         2    ;  uncertainty k = 0.418481
        38        32        13        74     9        0.000000        0.476288         3    ;  uncertainty k = 0.314515
        38        32        13        74     9      180.000000       -0.117315         4    ;  uncertainty k = 0.183861
        38        32        16        45     9        0.000000       -1.364128         1    ;  uncertainty k = 0.503835
        38        32        16        45     9      180.000000        0.102087         2    ;  uncertainty k = 0.186925
        38        32        16        45     9        0.000000        0.334655         3    ;  uncertainty k = 0.122377
        38        32        16        45     9      180.000000       -0.170263         4    ;  uncertainty k = 0.050608
        38        32        16        46     9        0.000000       -1.364128         1    ;  uncertainty k = 0.503835
        38        32        16        46     9      180.000000        0.102087         2    ;  uncertainty k = 0.186925
        38        32        16        46     9        0.000000        0.334655         3    ;  uncertainty k = 0.122377
        38        32        16        46     9      180.000000       -0.170263         4    ;  uncertainty k = 0.050608
        38        32        33        61     9        0.000000       -0.740047         1    ;  uncertainty k = 0.410287
        38        32        33        61     9      180.000000       -0.024654         2    ;  uncertainty k = 0.241363
        38        32        33        61     9        0.000000        0.630498         3    ;  uncertainty k = 0.202161
        38        32        33        61     9      180.000000        0.022235         4    ;  uncertainty k = 0.076468
        38        32        33        62     9        0.000000       -0.740047         1    ;  uncertainty k = 0.410287
        38        32        33        62     9      180.000000       -0.024654         2    ;  uncertainty k = 0.241363
        38        32        33        62     9        0.000000        0.630498         3    ;  uncertainty k = 0.202161
        38        32        33        62     9      180.000000        0.022235         4    ;  uncertainty k = 0.076468
        38        37        36        66     9        0.000000       -1.505040         1    ;  uncertainty k = 0.251547
        38        37        36        66     9      180.000000       -0.124273         2    ;  uncertainty k = 0.412484
        38        37        36        66     9        0.000000        0.633101         3    ;  uncertainty k = 0.120487
        38        37        36        66     9      180.000000        0.076744         4    ;  uncertainty k = 0.164472
        38        37        36        67     9        0.000000       -1.505040         1    ;  uncertainty k = 0.251547
        38        37        36        67     9      180.000000       -0.124273         2    ;  uncertainty k = 0.412484
        38        37        36        67     9        0.000000        0.633101         3    ;  uncertainty k = 0.120487
        38        37        36        67     9      180.000000        0.076744         4    ;  uncertainty k = 0.164472
        39        31        30        72     9        0.000000       -0.173492         1    ;  uncertainty k = 0.461173
        39        31        30        72     9      180.000000        9.388094         2    ;  uncertainty k = 0.451083
        39        31        30        72     9        0.000000        0.887202         3    ;  uncertainty k = 0.201645
        39        31        30        72     9      180.000000        1.218855         4    ;  uncertainty k = 0.408130
        41        34        33        61     9        0.000000        0.348097         1    ;  uncertainty k = 0.447176
        41        34        33        61     9      180.000000       -0.851337         2    ;  uncertainty k = 0.311957
        41        34        33        61     9        0.000000        1.204142         3    ;  uncertainty k = 0.144007
        41        34        33        61     9      180.000000        0.096041         4    ;  uncertainty k = 0.101433
        41        34        33        62     9        0.000000        0.348097         1    ;  uncertainty k = 0.447176
        41        34        33        62     9      180.000000       -0.851337         2    ;  uncertainty k = 0.311957
        41        34        33        62     9        0.000000        1.204142         3    ;  uncertainty k = 0.144007
        41        34        33        62     9      180.000000        0.096041         4    ;  uncertainty k = 0.101433
        41        34        35        64     9        0.000000        0.439589         1    ;  uncertainty k = 0.629587
        41        34        35        64     9      180.000000       -1.005087         2    ;  uncertainty k = 0.173890
        41        34        35        64     9        0.000000        1.027237         3    ;  uncertainty k = 0.285939
        41        34        35        64     9      180.000000        0.049461         4    ;  uncertainty k = 0.064409
        41        34        35        65     9        0.000000        0.439589         1    ;  uncertainty k = 0.629587
        41        34        35        65     9      180.000000       -1.005087         2    ;  uncertainty k = 0.173890
        41        34        35        65     9        0.000000        1.027237         3    ;  uncertainty k = 0.285939
        41        34        35        65     9      180.000000        0.049461         4    ;  uncertainty k = 0.064409
        42        24        23        57     9        0.000000       -0.125373         1    ;  uncertainty k = 0.186767
        42        24        23        57     9      180.000000        7.325167         2    ;  uncertainty k = 0.387426
        42        24        23        57     9        0.000000       -0.408943         3    ;  uncertainty k = 0.333507
        42        24        23        57     9      180.000000        0.165228         4    ;  uncertainty k = 0.148714
        42        24        25        58     9        0.000000        0.009466         1    ;  uncertainty k = 0.143163
        42        24        25        58     9      180.000000        8.861651         2    ;  uncertainty k = 0.266133
        42        24        25        58     9        0.000000       -0.265239         3    ;  uncertainty k = 0.248793
        42        24        25        58     9      180.000000        0.226348         4    ;  uncertainty k = 0.230636
        44        11        18        49     9        0.000000       -1.423010         1    ;  uncertainty k = 0.616460
        44        11        18        49     9      180.000000        1.515703         2    ;  uncertainty k = 1.087822
        44        11        18        49     9        0.000000        0.256622         3    ;  uncertainty k = 0.208318
        44        11        18        49     9      180.000000       -0.095640         4    ;  uncertainty k = 0.130121
        44        11        19        50     9        0.000000       -1.423010         1    ;  uncertainty k = 0.616460
        44        11        19        50     9      180.000000        1.515703         2    ;  uncertainty k = 1.087822
        44        11        19        50     9        0.000000        0.256622         3    ;  uncertainty k = 0.208318
        44        11        19        50     9      180.000000       -0.095640         4    ;  uncertainty k = 0.130121
        47        17        18        49     9        0.000000       -0.439454         1    ;  uncertainty k = 0.906270
        47        17        18        49     9      180.000000        0.487195         2    ;  uncertainty k = 0.479541
        47        17        18        49     9        0.000000        0.253527         3    ;  uncertainty k = 0.175912
        47        17        18        49     9      180.000000       -0.139844         4    ;  uncertainty k = 0.167927
        48        17        18        49     9        0.000000       -0.439454         1    ;  uncertainty k = 0.906270
        48        17        18        49     9      180.000000        0.487195         2    ;  uncertainty k = 0.479541
        48        17        18        49     9        0.000000        0.253527         3    ;  uncertainty k = 0.175912
        48        17        18        49     9      180.000000       -0.139844         4    ;  uncertainty k = 0.167927
        49        18        11        73     9        0.000000       -1.423010         1    ;  uncertainty k = 0.616460
        49        18        11        73     9      180.000000        1.515703         2    ;  uncertainty k = 1.087822
        49        18        11        73     9        0.000000        0.256622         3    ;  uncertainty k = 0.208318
        49        18        11        73     9      180.000000       -0.095640         4    ;  uncertainty k = 0.130121
        49        18        22        55     9        0.000000        1.228961         1    ;  uncertainty k = 0.553312
        49        18        22        55     9      180.000000       -0.001863         2    ;  uncertainty k = 0.239275
        49        18        22        55     9        0.000000        0.353228         3    ;  uncertainty k = 0.286862
        49        18        22        55     9      180.000000        0.045306         4    ;  uncertainty k = 0.112735
        49        18        22        56     9        0.000000        1.228961         1    ;  uncertainty k = 0.553312
        49        18        22        56     9      180.000000       -0.001863         2    ;  uncertainty k = 0.239275
        49        18        22        56     9        0.000000        0.353228         3    ;  uncertainty k = 0.286862
        49        18        22        56     9      180.000000        0.045306         4    ;  uncertainty k = 0.112735
        50        19        11        73     9        0.000000       -1.423010         1    ;  uncertainty k = 0.616460
        50        19        11        73     9      180.000000        1.515703         2    ;  uncertainty k = 1.087822
        50        19        11        73     9        0.000000        0.256622         3    ;  uncertainty k = 0.208318
        50        19        11        73     9      180.000000       -0.095640         4    ;  uncertainty k = 0.130121
        50        19        20        51     9        0.000000       -0.439454         1    ;  uncertainty k = 0.906270
        50        19        20        51     9      180.000000        0.487195         2    ;  uncertainty k = 0.479541
        50        19        20        51     9        0.000000        0.253527         3    ;  uncertainty k = 0.175912
        50        19        20        51     9      180.000000       -0.139844         4    ;  uncertainty k = 0.167927
        50        19        20        52     9        0.000000       -0.439454         1    ;  uncertainty k = 0.906270
        50        19        20        52     9      180.000000        0.487195         2    ;  uncertainty k = 0.479541
        50        19        20        52     9        0.000000        0.253527         3    ;  uncertainty k = 0.175912
        50        19        20        52     9      180.000000       -0.139844         4    ;  uncertainty k = 0.167927
        50        19        21        53     9        0.000000        1.228961         1    ;  uncertainty k = 0.553312
        50        19        21        53     9      180.000000       -0.001863         2    ;  uncertainty k = 0.239275
        50        19        21        53     9        0.000000        0.353228         3    ;  uncertainty k = 0.286862
        50        19        21        53     9      180.000000        0.045306         4    ;  uncertainty k = 0.112735
        50        19        21        54     9        0.000000        1.228961         1    ;  uncertainty k = 0.553312
        50        19        21        54     9      180.000000       -0.001863         2    ;  uncertainty k = 0.239275
        50        19        21        54     9        0.000000        0.353228         3    ;  uncertainty k = 0.286862
        50        19        21        54     9      180.000000        0.045306         4    ;  uncertainty k = 0.112735
        53        21        22        55     9        0.000000        1.361375         1    ;  uncertainty k = 0.592307
        53        21        22        55     9      180.000000       -0.075431         2    ;  uncertainty k = 0.471152
        53        21        22        55     9        0.000000        1.070581         3    ;  uncertainty k = 0.228523
        53        21        22        55     9      180.000000        0.077192         4    ;  uncertainty k = 0.031932
        53        21        22        56     9        0.000000        1.361375         1    ;  uncertainty k = 0.592307
        53        21        22        56     9      180.000000       -0.075431         2    ;  uncertainty k = 0.471152
        53        21        22        56     9        0.000000        1.070581         3    ;  uncertainty k = 0.228523
        53        21        22        56     9      180.000000        0.077192         4    ;  uncertainty k = 0.031932
        54        21        22        55     9        0.000000        1.361375         1    ;  uncertainty k = 0.592307
        54        21        22        55     9      180.000000       -0.075431         2    ;  uncertainty k = 0.471152
        54        21        22        55     9        0.000000        1.070581         3    ;  uncertainty k = 0.228523
        54        21        22        55     9      180.000000        0.077192         4    ;  uncertainty k = 0.031932
        54        21        22        56     9        0.000000        1.361375         1    ;  uncertainty k = 0.592307
        54        21        22        56     9      180.000000       -0.075431         2    ;  uncertainty k = 0.471152
        54        21        22        56     9        0.000000        1.070581         3    ;  uncertainty k = 0.228523
        54        21        22        56     9      180.000000        0.077192         4    ;  uncertainty k = 0.031932
        59        28        29        60     9        0.000000        0.099881         1    ;  uncertainty k = 0.135127
        59        28        29        60     9      180.000000        8.843153         2    ;  uncertainty k = 0.367062
        59        28        29        60     9        0.000000       -0.252905         3    ;  uncertainty k = 0.242238
        59        28        29        60     9      180.000000        0.222505         4    ;  uncertainty k = 0.213799
        60        29        30        72     9        0.000000       -0.042784         1    ;  uncertainty k = 0.229985
        60        29        30        72     9      180.000000        7.242182         2    ;  uncertainty k = 0.435658
        60        29        30        72     9        0.000000       -0.328526         3    ;  uncertainty k = 0.260058
        60        29        30        72     9      180.000000        0.134322         4    ;  uncertainty k = 0.152635
        61        33        34        63     9        0.000000        0.658717         1    ;  uncertainty k = 0.774984
        61        33        34        63     9      180.000000       -0.273207         2    ;  uncertainty k = 0.164962
        61        33        34        63     9        0.000000        0.711463         3    ;  uncertainty k = 0.107578
        61        33        34        63     9      180.000000        0.126313         4    ;  uncertainty k = 0.070131
        62        33        34        63     9        0.000000        0.658717         1    ;  uncertainty k = 0.774984
        62        33        34        63     9      180.000000       -0.273207         2    ;  uncertainty k = 0.164962
        62        33        34        63     9        0.000000        0.711463         3    ;  uncertainty k = 0.107578
        62        33        34        63     9      180.000000        0.126313         4    ;  uncertainty k = 0.070131
        63        34        35        64     9        0.000000        0.100408         1    ;  uncertainty k = 0.231069
        63        34        35        64     9      180.000000       -0.495488         2    ;  uncertainty k = 0.217883
        63        34        35        64     9        0.000000        0.589146         3    ;  uncertainty k = 0.139819
        63        34        35        64     9      180.000000        0.148881         4    ;  uncertainty k = 0.094939
        63        34        35        65     9        0.000000        0.100408         1    ;  uncertainty k = 0.231069
        63        34        35        65     9      180.000000       -0.495488         2    ;  uncertainty k = 0.217883
        63        34        35        65     9        0.000000        0.589146         3    ;  uncertainty k = 0.139819
        63        34        35        65     9      180.000000        0.148881         4    ;  uncertainty k = 0.094939
        64        35        13        74     9        0.000000        0.456024         1    ;  uncertainty k = 0.547609
        64        35        13        74     9      180.000000       -0.689750         2    ;  uncertainty k = 0.168360
        64        35        13        74     9        0.000000        0.413910         3    ;  uncertainty k = 0.150476
        64        35        13        74     9      180.000000        0.128154         4    ;  uncertainty k = 0.042437
        65        35        13        74     9        0.000000        0.456024         1    ;  uncertainty k = 0.547609
        65        35        13        74     9      180.000000       -0.689750         2    ;  uncertainty k = 0.168360
        65        35        13        74     9        0.000000        0.413910         3    ;  uncertainty k = 0.150476
        65        35        13        74     9      180.000000        0.128154         4    ;  uncertainty k = 0.042437
        66        36        13        74     9        0.000000        0.454366         1    ;  uncertainty k = 0.372926
        66        36        13        74     9      180.000000       -0.609749         2    ;  uncertainty k = 0.186274
        66        36        13        74     9        0.000000        0.461123         3    ;  uncertainty k = 0.126286
        66        36        13        74     9      180.000000        0.133248         4    ;  uncertainty k = 0.070372
        66        36        37        68     9        0.000000        0.687508         1    ;  uncertainty k = 0.278541
        66        36        37        68     9      180.000000       -0.200380         2    ;  uncertainty k = 0.335904
        66        36        37        68     9        0.000000        0.639698         3    ;  uncertainty k = 0.146670
        66        36        37        68     9      180.000000        0.083502         4    ;  uncertainty k = 0.078470
        66        36        37        69     9        0.000000        0.687508         1    ;  uncertainty k = 0.278541
        66        36        37        69     9      180.000000       -0.200380         2    ;  uncertainty k = 0.335904
        66        36        37        69     9        0.000000        0.639698         3    ;  uncertainty k = 0.146670
        66        36        37        69     9      180.000000        0.083502         4    ;  uncertainty k = 0.078470
        67        36        13        74     9        0.000000        0.454366         1    ;  uncertainty k = 0.372926
        67        36        13        74     9      180.000000       -0.609749         2    ;  uncertainty k = 0.186274
        67        36        13        74     9        0.000000        0.461123         3    ;  uncertainty k = 0.126286
        67        36        13        74     9      180.000000        0.133248         4    ;  uncertainty k = 0.070372
        67        36        37        68     9        0.000000        0.687508         1    ;  uncertainty k = 0.278541
        67        36        37        68     9      180.000000       -0.200380         2    ;  uncertainty k = 0.335904
        67        36        37        68     9        0.000000        0.639698         3    ;  uncertainty k = 0.146670
        67        36        37        68     9      180.000000        0.083502         4    ;  uncertainty k = 0.078470
        67        36        37        69     9        0.000000        0.687508         1    ;  uncertainty k = 0.278541
        67        36        37        69     9      180.000000       -0.200380         2    ;  uncertainty k = 0.335904
        67        36        37        69     9        0.000000        0.639698         3    ;  uncertainty k = 0.146670
        67        36        37        69     9      180.000000        0.083502         4    ;  uncertainty k = 0.078470
        68        37        38        70     9        0.000000        1.247081         1    ;  uncertainty k = 0.383884
        68        37        38        70     9      180.000000       -0.045480         2    ;  uncertainty k = 0.119907
        68        37        38        70     9        0.000000        0.748786         3    ;  uncertainty k = 0.078538
        68        37        38        70     9      180.000000        0.077516         4    ;  uncertainty k = 0.057380
        68        37        38        71     9        0.000000        1.247081         1    ;  uncertainty k = 0.383884
        68        37        38        71     9      180.000000       -0.045480         2    ;  uncertainty k = 0.119907
        68        37        38        71     9        0.000000        0.748786         3    ;  uncertainty k = 0.078538
        68        37        38        71     9      180.000000        0.077516         4    ;  uncertainty k = 0.057380
        69        37        38        70     9        0.000000        1.247081         1    ;  uncertainty k = 0.383884
        69        37        38        70     9      180.000000       -0.045480         2    ;  uncertainty k = 0.119907
        69        37        38        70     9        0.000000        0.748786         3    ;  uncertainty k = 0.078538
        69        37        38        70     9      180.000000        0.077516         4    ;  uncertainty k = 0.057380
        69        37        38        71     9        0.000000        1.247081         1    ;  uncertainty k = 0.383884
        69        37        38        71     9      180.000000       -0.045480         2    ;  uncertainty k = 0.119907
        69        37        38        71     9        0.000000        0.748786         3    ;  uncertainty k = 0.078538
        69        37        38        71     9      180.000000        0.077516         4    ;  uncertainty k = 0.057380

[ dihedrals ] ; impropers
;       ai        aj        ak        al funct           phase               k        pn
         1         4         8        10     4      180.000000        6.148938         2    ;  uncertainty k = 0.251367
         1         8        10         4     4      180.000000        6.148938         2    ;  uncertainty k = 0.251367
         1        10         4         8     4      180.000000        6.148938         2    ;  uncertainty k = 0.251367
         4         1         2        14     4      180.000000       18.928695         2    ;  uncertainty k = 0.136217
         4         2        14         1     4      180.000000       18.928695         2    ;  uncertainty k = 0.136217
         4        14         1         2     4      180.000000       18.928695         2    ;  uncertainty k = 0.136217
         6         2         3         5     4      180.000000       41.196882         2    ;  uncertainty k = 0.078549
         6         3         5         2     4      180.000000       41.196882         2    ;  uncertainty k = 0.078549
         6         5         2         3     4      180.000000       41.196882         2    ;  uncertainty k = 0.078549
         8         1         5         9     4      180.000000       34.127777         2    ;  uncertainty k = 0.152435
         8         5         9         1     4      180.000000       34.127777         2    ;  uncertainty k = 0.152435
         8         9         1         5     4      180.000000       34.127777         2    ;  uncertainty k = 0.152435
        10         1         7        43     4      180.000000       14.739565         2    ;  uncertainty k = 0.105740
        10         7        43         1     4      180.000000       14.739565         2    ;  uncertainty k = 0.105740
        10        43         1         7     4      180.000000       14.739565         2    ;  uncertainty k = 0.105740
        12         7        14        15     4      180.000000       22.332152         2    ;  uncertainty k = 0.035711
        12        14        15         7     4      180.000000       22.332152         2    ;  uncertainty k = 0.035711
        12        15         7        14     4      180.000000       22.332152         2    ;  uncertainty k = 0.035711
        14         4        12        40     4      180.000000       13.298037         2    ;  uncertainty k = 0.188341
        14        12        40         4     4      180.000000       13.298037         2    ;  uncertainty k = 0.188341
        14        40         4        12     4      180.000000       13.298037         2    ;  uncertainty k = 0.188341
        15        12        23        27     4      180.000000       14.770230         2    ;  uncertainty k = 0.224493
        15        23        27        12     4      180.000000       14.770230         2    ;  uncertainty k = 0.224493
        15        27        12        23     4      180.000000       14.770230         2    ;  uncertainty k = 0.224493
        23        15        24        57     4      180.000000        4.067087         2    ;  uncertainty k = 0.296969
        23        24        57        15     4      180.000000        4.067087         2    ;  uncertainty k = 0.296969
        23        57        15        24     4      180.000000        4.067087         2    ;  uncertainty k = 0.296969
        24        23        25        42     4      180.000000        3.791285         2    ;  uncertainty k = 0.150360
        24        25        42        23     4      180.000000        3.791285         2    ;  uncertainty k = 0.150360
        24        42        23        25     4      180.000000        3.791285         2    ;  uncertainty k = 0.150360
        25        24        26        58     4      180.000000        4.113683         2    ;  uncertainty k = 0.148892
        25        26        58        24     4      180.000000        4.113683         2    ;  uncertainty k = 0.148892
        25        58        24        26     4      180.000000        4.113683         2    ;  uncertainty k = 0.148892
        26        25        27        28     4      180.000000       10.223904         2    ;  uncertainty k = 0.356306
        26        27        28        25     4      180.000000       10.223904         2    ;  uncertainty k = 0.356306
        26        28        25        27     4      180.000000       10.223904         2    ;  uncertainty k = 0.356306
        27        15        26        31     4      180.000000       14.145536         2    ;  uncertainty k = 0.173183
        27        26        31        15     4      180.000000       14.145536         2    ;  uncertainty k = 0.173183
        27        31        15        26     4      180.000000       14.145536         2    ;  uncertainty k = 0.173183
        28        26        29        59     4      180.000000        3.712634         2    ;  uncertainty k = 0.154089
        28        29        59        26     4      180.000000        3.712634         2    ;  uncertainty k = 0.154089
        28        59        26        29     4      180.000000        3.712634         2    ;  uncertainty k = 0.154089
        29        28        30        60     4      180.000000        4.166121         2    ;  uncertainty k = 0.072413
        29        30        60        28     4      180.000000        4.166121         2    ;  uncertainty k = 0.072413
        29        60        28        30     4      180.000000        4.166121         2    ;  uncertainty k = 0.072413
        30        29        31        72     4      180.000000        3.338631         2    ;  uncertainty k = 0.339097
        30        31        72        29     4      180.000000        3.338631         2    ;  uncertainty k = 0.339097
        30        72        29        31     4      180.000000        3.338631         2    ;  uncertainty k = 0.339097
        31        27        30        39     4      180.000000       15.264935         2    ;  uncertainty k = 0.148278
        31        30        39        27     4      180.000000       15.264935         2    ;  uncertainty k = 0.148278
        31        39        27        30     4      180.000000       15.264935         2    ;  uncertainty k = 0.148278

[ pairs ]
;       ai        aj funct
         1         6     1
         1        12     1
         1        17     1
         1        20     1
         1        40     1
         2         8     1
         2        10     1
         2        12     1
         2        16     1
         2        40     1
         3         4     1
         3         8     1
         3        13     1
         3        33     1
         3        38     1
         4         5     1
         4         7     1
         4         9     1
         4        15     1
         4        43     1
         5        10     1
         5        16     1
         5        17     1
         5        20     1
         6         9     1
         6        14     1
         6        32     1
         6        45     1
         6        46     1
         7         8     1
         7        23     1
         7        27     1
         7        40     1
         8        14     1
         8        18     1
         8        19     1
         8        43     1
         8        47     1
         8        48     1
         8        51     1
         8        52     1
         9        10     1
         9        11     1
         9        21     1
         9        22     1
         9        49     1
         9        50     1
        10        14     1
        10        15     1
        11        47     1
        11        48     1
        11        51     1
        11        52     1
        11        53     1
        11        54     1
        11        55     1
        11        56     1
        12        24     1
        12        26     1
        12        31     1
        12        43     1
        12        57     1
        13        41     1
        13        45     1
        13        46     1
        13        61     1
        13        62     1
        13        63     1
        13        68     1
        13        69     1
        13        70     1
        13        71     1
        14        23     1
        14        27     1
        15        25     1
        15        28     1
        15        30     1
        15        39     1
        15        40     1
        15        42     1
        16        34     1
        16        35     1
        16        36     1
        16        37     1
        16        61     1
        16        62     1
        16        70     1
        16        71     1
        16        74     1
        17        19     1
        17        21     1
        17        44     1
        17        51     1
        17        52     1
        17        55     1
        17        56     1
        17        73     1
        18        20     1
        18        50     1
        18        53     1
        18        54     1
        19        49     1
        19        55     1
        19        56     1
        20        22     1
        20        44     1
        20        47     1
        20        48     1
        20        53     1
        20        54     1
        20        73     1
        21        44     1
        21        49     1
        21        51     1
        21        52     1
        21        73     1
        22        44     1
        22        47     1
        22        48     1
        22        50     1
        22        73     1
        23        26     1
        23        31     1
        23        58     1
        24        27     1
        24        28     1
        25        29     1
        25        31     1
        25        57     1
        25        59     1
        26        30     1
        26        39     1
        26        42     1
        26        60     1
        27        29     1
        27        57     1
        27        58     1
        27        59     1
        27        72     1
        28        31     1
        28        58     1
        28        72     1
        29        39     1
        30        59     1
        31        60     1
        32        41     1
        32        63     1
        32        64     1
        32        65     1
        32        66     1
        32        67     1
        32        68     1
        32        69     1
        33        36     1
        33        37     1
        33        45     1
        33        46     1
        33        64     1
        33        65     1
        33        70     1
        33        71     1
        33        74     1
        34        36     1
        34        38     1
        34        74     1
        35        37     1
        35        38     1
        35        61     1
        35        62     1
        35        66     1
        35        67     1
        36        64     1
        36        65     1
        36        70     1
        36        71     1
        37        74     1
        38        45     1
        38        46     1
        38        61     1
        38        62     1
        38        66     1
        38        67     1
        38        74     1
        39        72     1
        41        61     1
        41        62     1
        41        64     1
        41        65     1
        42        57     1
        42        58     1
        44        49     1
        44        50     1
        47        49     1
        48        49     1
        49        55     1
        49        56     1
        49        73     1
        50        51     1
        50        52     1
        50        53     1
        50        54     1
        50        73     1
        53        55     1
        53        56     1
        54        55     1
        54        56     1
        59        60     1
        60        72     1
        61        63     1
        62        63     1
        63        64     1
        63        65     1
        64        74     1
        65        74     1
        66        68     1
        66        69     1
        66        74     1
        67        68     1
        67        69     1
        67        74     1
        68        70     1
        68        71     1
        69        70     1
        69        71     1
