; ITP file created by ByteFF-joint-25, 2026-01-07 07:36:48.390559

[ atomtypes ]
;name           bonded.type        at.num        mass        charge   ptype           sigma         epsilon
 c0bf                                   6      0.0000       0.00000       A     3.31609e-01     4.13754e-01    ;  uncertainty sigma = 0.000037, epsilon = 0.001385
 n1bf                                   7      0.0000       0.00000       A     3.38379e-01     3.93387e-01    ;  uncertainty sigma = 0.000023, epsilon = 0.000836
 o2bf                                   8      0.0000       0.00000       A     3.15735e-01     3.04242e-01    ;  uncertainty sigma = 0.000042, epsilon = 0.004283
 c3bf                                   6      0.0000       0.00000       A     3.31558e-01     4.13054e-01    ;  uncertainty sigma = 0.000015, epsilon = 0.001911
 n4bf                                   7      0.0000       0.00000       A     3.38414e-01     3.93806e-01    ;  uncertainty sigma = 0.000029, epsilon = 0.000903
 c5bf                                   6      0.0000       0.00000       A     3.31540e-01     4.14420e-01    ;  uncertainty sigma = 0.000020, epsilon = 0.000938
 n6bf                                   7      0.0000       0.00000       A     3.38420e-01     3.93578e-01    ;  uncertainty sigma = 0.000016, epsilon = 0.000873
 c7bf                                   6      0.0000       0.00000       A     3.31572e-01     4.13781e-01    ;  uncertainty sigma = 0.000022, epsilon = 0.001282
 n8bf                                   7      0.0000       0.00000       A     3.19092e-01     8.99502e-01    ;  uncertainty sigma = 0.000028, epsilon = 0.008757
 c9bf                                   6      0.0000       0.00000       A     3.31514e-01     4.12984e-01    ;  uncertainty sigma = 0.000024, epsilon = 0.001071
 n10bf                                  7      0.0000       0.00000       A     2.67683e-01     7.09588e+00    ;  uncertainty sigma = 0.000108, epsilon = 0.014793
 c11bf                                  6      0.0000       0.00000       A     3.31556e-01     4.13362e-01    ;  uncertainty sigma = 0.000019, epsilon = 0.000987
 n12bf                                  7      0.0000       0.00000       A     2.50245e-01     1.62939e+01    ;  uncertainty sigma = 0.000424, epsilon = 0.016134
 c13bf                                  6      0.0000       0.00000       A     3.31553e-01     4.12771e-01    ;  uncertainty sigma = 0.000016, epsilon = 0.000462
 c14bf                                  6      0.0000       0.00000       A     3.31430e-01     4.12607e-01    ;  uncertainty sigma = 0.000039, epsilon = 0.001300
 c15bf                                  6      0.0000       0.00000       A     3.39584e-01     4.49813e-01    ;  uncertainty sigma = 0.000143, epsilon = 0.002678
 c16bf                                  6      0.0000       0.00000       A     3.39764e-01     4.51773e-01    ;  uncertainty sigma = 0.000031, epsilon = 0.001688
 c17bf                                  6      0.0000       0.00000       A     3.39827e-01     4.49600e-01    ;  uncertainty sigma = 0.000034, epsilon = 0.001832
 c18bf                                  6      0.0000       0.00000       A     3.39827e-01     4.49600e-01    ;  uncertainty sigma = 0.000034, epsilon = 0.001832
 c19bf                                  6      0.0000       0.00000       A     3.39764e-01     4.51773e-01    ;  uncertainty sigma = 0.000031, epsilon = 0.001688
 c20bf                                  6      0.0000       0.00000       A     3.39736e-01     4.50291e-01    ;  uncertainty sigma = 0.000017, epsilon = 0.001100
 c21bf                                  6      0.0000       0.00000       A     3.39736e-01     4.50291e-01    ;  uncertainty sigma = 0.000017, epsilon = 0.001100
 c22bf                                  6      0.0000       0.00000       A     3.31544e-01     4.13073e-01    ;  uncertainty sigma = 0.000013, epsilon = 0.001240
 c23bf                                  6      0.0000       0.00000       A     3.31533e-01     4.13232e-01    ;  uncertainty sigma = 0.000003, epsilon = 0.000669
 c24bf                                  6      0.0000       0.00000       A     3.31523e-01     4.13447e-01    ;  uncertainty sigma = 0.000005, epsilon = 0.000575
 c25bf                                  6      0.0000       0.00000       A     3.31499e-01     4.13202e-01    ;  uncertainty sigma = 0.000016, epsilon = 0.000860
 c26bf                                  6      0.0000       0.00000       A     3.31669e-01     4.13140e-01    ;  uncertainty sigma = 0.000089, epsilon = 0.002407
 c27bf                                  6      0.0000       0.00000       A     3.31522e-01     4.13442e-01    ;  uncertainty sigma = 0.000003, epsilon = 0.000597
 c28bf                                  6      0.0000       0.00000       A     3.31524e-01     4.13351e-01    ;  uncertainty sigma = 0.000001, epsilon = 0.000694
 c29bf                                  6      0.0000       0.00000       A     3.31534e-01     4.13157e-01    ;  uncertainty sigma = 0.000003, epsilon = 0.000518
 c30bf                                  6      0.0000       0.00000       A     3.31524e-01     4.13693e-01    ;  uncertainty sigma = 0.000021, epsilon = 0.001117
 c31bf                                  6      0.0000       0.00000       A     3.39763e-01     4.50589e-01    ;  uncertainty sigma = 0.000042, epsilon = 0.002989
 c32bf                                  6      0.0000       0.00000       A     3.39734e-01     4.50350e-01    ;  uncertainty sigma = 0.000023, epsilon = 0.000690
 c33bf                                  6      0.0000       0.00000       A     3.39771e-01     4.50431e-01    ;  uncertainty sigma = 0.000027, epsilon = 0.001259
 c34bf                                  6      0.0000       0.00000       A     3.39768e-01     4.50691e-01    ;  uncertainty sigma = 0.000031, epsilon = 0.001950
 c35bf                                  6      0.0000       0.00000       A     3.39768e-01     4.50691e-01    ;  uncertainty sigma = 0.000031, epsilon = 0.001950
 c36bf                                  6      0.0000       0.00000       A     3.39771e-01     4.50431e-01    ;  uncertainty sigma = 0.000027, epsilon = 0.001259
 c37bf                                  6      0.0000       0.00000       A     3.39734e-01     4.50350e-01    ;  uncertainty sigma = 0.000023, epsilon = 0.000690
 cl38bf                                17      0.0000       0.00000       A     3.46677e-01     1.10543e+00    ;  uncertainty sigma = 0.000020, epsilon = 0.001322
 f39bf                                  9      0.0000       0.00000       A     3.03347e-01     3.48613e-01    ;  uncertainty sigma = 0.000031, epsilon = 0.001874
 h40bf                                  1      0.0000       0.00000       A     2.62579e-01     6.69590e-02    ;  uncertainty sigma = 0.000009, epsilon = 0.000443
 h41bf                                  1      0.0000       0.00000       A     2.53623e-01     6.70308e-02    ;  uncertainty sigma = 0.000068, epsilon = 0.000562
 h42bf                                  1      0.0000       0.00000       A     1.10717e-01     3.90827e-02    ;  uncertainty sigma = 0.000124, epsilon = 0.002380
 h43bf                                  1      0.0000       0.00000       A     2.42210e-01     8.70951e-02    ;  uncertainty sigma = 0.000077, epsilon = 0.001107
 h44bf                                  1      0.0000       0.00000       A     2.42210e-01     8.70951e-02    ;  uncertainty sigma = 0.000077, epsilon = 0.001107
 h45bf                                  1      0.0000       0.00000       A     2.42256e-01     8.68712e-02    ;  uncertainty sigma = 0.000054, epsilon = 0.000742
 h46bf                                  1      0.0000       0.00000       A     2.42256e-01     8.68712e-02    ;  uncertainty sigma = 0.000054, epsilon = 0.000742
 h47bf                                  1      0.0000       0.00000       A     1.88892e-01     8.79018e-02    ;  uncertainty sigma = 0.000675, epsilon = 0.002116
 h48bf                                  1      0.0000       0.00000       A     1.88892e-01     8.79018e-02    ;  uncertainty sigma = 0.000675, epsilon = 0.002116
 h49bf                                  1      0.0000       0.00000       A     2.42256e-01     8.68712e-02    ;  uncertainty sigma = 0.000054, epsilon = 0.000742
 h50bf                                  1      0.0000       0.00000       A     2.42256e-01     8.68712e-02    ;  uncertainty sigma = 0.000054, epsilon = 0.000742
 h51bf                                  1      0.0000       0.00000       A     2.60051e-01     8.66631e-02    ;  uncertainty sigma = 0.000008, epsilon = 0.001058
 h52bf                                  1      0.0000       0.00000       A     2.60051e-01     8.66631e-02    ;  uncertainty sigma = 0.000008, epsilon = 0.001058
 h53bf                                  1      0.0000       0.00000       A     2.60051e-01     8.66631e-02    ;  uncertainty sigma = 0.000008, epsilon = 0.001058
 h54bf                                  1      0.0000       0.00000       A     2.60051e-01     8.66631e-02    ;  uncertainty sigma = 0.000008, epsilon = 0.001058
 h55bf                                  1      0.0000       0.00000       A     2.62567e-01     6.70643e-02    ;  uncertainty sigma = 0.000014, epsilon = 0.000525
 h56bf                                  1      0.0000       0.00000       A     2.62559e-01     6.70662e-02    ;  uncertainty sigma = 0.000013, epsilon = 0.000302
 h57bf                                  1      0.0000       0.00000       A     2.62559e-01     6.70662e-02    ;  uncertainty sigma = 0.000013, epsilon = 0.000302
 h58bf                                  1      0.0000       0.00000       A     2.62580e-01     6.69365e-02    ;  uncertainty sigma = 0.000006, epsilon = 0.000504
 h59bf                                  1      0.0000       0.00000       A     2.59995e-01     8.71231e-02    ;  uncertainty sigma = 0.000029, epsilon = 0.000488
 h60bf                                  1      0.0000       0.00000       A     2.59995e-01     8.71231e-02    ;  uncertainty sigma = 0.000029, epsilon = 0.000488
 h61bf                                  1      0.0000       0.00000       A     2.59998e-01     8.69183e-02    ;  uncertainty sigma = 0.000019, epsilon = 0.000669
 h62bf                                  1      0.0000       0.00000       A     1.88102e-01     8.67690e-02    ;  uncertainty sigma = 0.000645, epsilon = 0.002870
 h63bf                                  1      0.0000       0.00000       A     1.88102e-01     8.67690e-02    ;  uncertainty sigma = 0.000645, epsilon = 0.002870
 h64bf                                  1      0.0000       0.00000       A     1.88102e-01     8.67690e-02    ;  uncertainty sigma = 0.000645, epsilon = 0.002870
 h65bf                                  1      0.0000       0.00000       A     1.88102e-01     8.67690e-02    ;  uncertainty sigma = 0.000645, epsilon = 0.002870
 h66bf                                  1      0.0000       0.00000       A     2.59998e-01     8.69183e-02    ;  uncertainty sigma = 0.000019, epsilon = 0.000669
 h67bf                                  1      0.0000       0.00000       A     2.59998e-01     8.69183e-02    ;  uncertainty sigma = 0.000019, epsilon = 0.000669
 h68bf                                  1      0.0000       0.00000       A     2.59995e-01     8.71231e-02    ;  uncertainty sigma = 0.000029, epsilon = 0.000488
 h69bf                                  1      0.0000       0.00000       A     2.59995e-01     8.71231e-02    ;  uncertainty sigma = 0.000029, epsilon = 0.000488
 h70bf                                  1      0.0000       0.00000       A     1.10718e-01     3.90827e-02    ;  uncertainty sigma = 0.000124, epsilon = 0.002380
 h71bf                                  1      0.0000       0.00000       A     2.59998e-01     8.69183e-02    ;  uncertainty sigma = 0.000019, epsilon = 0.000669
 h72bf                                  1      0.0000       0.00000       A     2.62556e-01     6.69104e-02    ;  uncertainty sigma = 0.000012, epsilon = 0.000642
 o73bf                                  8      0.0000       0.00000       A     3.04868e-01     6.11121e-01    ;  uncertainty sigma = 0.000266, epsilon = 0.004042

[ moleculetype ]
;name             nrexcl
 MOL                   3

[ atoms ]
;       nr            type      resi   res      atom      cgnr      charge          mass ; qtot
         1            c0bf         1   UNL        c0         1    -0.39996       12.0110 ; qtot   -0.400
         2            n1bf         1   UNL        n1         2    -0.74679       14.0070 ; qtot   -1.147
         3            o2bf         1   UNL        o2         3    -0.41355       15.9990 ; qtot   -1.560
         4            c3bf         1   UNL        c3         4     0.46726       12.0110 ; qtot   -1.093
         5            n4bf         1   UNL        n4         5    -0.82134       14.0070 ; qtot   -1.914
         6            c5bf         1   UNL        c5         6     0.93573       12.0110 ; qtot   -0.979
         7            n6bf         1   UNL        n6         7    -0.64258       14.0070 ; qtot   -1.621
         8            c7bf         1   UNL        c7         8     0.73686       12.0110 ; qtot   -0.884
         9            n8bf         1   UNL        n8         9    -0.77286       14.0070 ; qtot   -1.657
        10            c9bf         1   UNL        c9        10     0.45987       12.0110 ; qtot   -1.197
        11           n10bf         1   UNL       n10        11    -0.80074       14.0070 ; qtot   -1.998
        12           c11bf         1   UNL       c11        12     0.44225       12.0110 ; qtot   -1.556
        13           n12bf         1   UNL       n12        13    -0.25321       14.0070 ; qtot   -1.809
        14           c13bf         1   UNL       c13        14    -0.02799       12.0110 ; qtot   -1.837
        15           c14bf         1   UNL       c14        15    -0.11721       12.0110 ; qtot   -1.954
        16           c15bf         1   UNL       c15        16     0.15421       12.0110 ; qtot   -1.800
        17           c16bf         1   UNL       c16        17     0.19300       12.0110 ; qtot   -1.607
        18           c17bf         1   UNL       c17        18     0.14438       12.0110 ; qtot   -1.463
        19           c18bf         1   UNL       c18        19     0.14438       12.0110 ; qtot   -1.318
        20           c19bf         1   UNL       c19        20     0.19300       12.0110 ; qtot   -1.125
        21           c20bf         1   UNL       c20        21    -0.09656       12.0110 ; qtot   -1.222
        22           c21bf         1   UNL       c21        22    -0.09656       12.0110 ; qtot   -1.318
        23           c22bf         1   UNL       c22        23    -0.09568       12.0110 ; qtot   -1.414
        24           c23bf         1   UNL       c23        24    -0.13030       12.0110 ; qtot   -1.544
        25           c24bf         1   UNL       c24        25    -0.10488       12.0110 ; qtot   -1.649
        26           c25bf         1   UNL       c25        26    -0.03643       12.0110 ; qtot   -1.686
        27           c26bf         1   UNL       c26        27     0.00939       12.0110 ; qtot   -1.676
        28           c27bf         1   UNL       c27        28    -0.11209       12.0110 ; qtot   -1.788
        29           c28bf         1   UNL       c28        29    -0.12154       12.0110 ; qtot   -1.910
        30           c29bf         1   UNL       c29        30    -0.12127       12.0110 ; qtot   -2.031
        31           c30bf         1   UNL       c30        31     0.05182       12.0110 ; qtot   -1.979
        32           c31bf         1   UNL       c31        32     0.14501       12.0110 ; qtot   -1.834
        33           c32bf         1   UNL       c32        33    -0.07842       12.0110 ; qtot   -1.913
        34           c33bf         1   UNL       c33        34    -0.08670       12.0110 ; qtot   -1.999
        35           c34bf         1   UNL       c34        35     0.13280       12.0110 ; qtot   -1.867
        36           c35bf         1   UNL       c35        36     0.13280       12.0110 ; qtot   -1.734
        37           c36bf         1   UNL       c36        37    -0.08670       12.0110 ; qtot   -1.821
        38           c37bf         1   UNL       c37        38    -0.07842       12.0110 ; qtot   -1.899
        39          cl38bf         1   UNL      cl38        39    -0.11639       35.4530 ; qtot   -2.015
        40           f39bf         1   UNL       f39        40    -0.10872       18.9980 ; qtot   -2.124
        41           h40bf         1   UNL       h40        41     0.13599        1.0080 ; qtot   -1.988
        42           h41bf         1   UNL       h41        42     0.03476        1.0080 ; qtot   -1.953
        43           h42bf         1   UNL       h42        43     0.46548        1.0080 ; qtot   -1.488
        44           h43bf         1   UNL       h43        44     0.07447        1.0080 ; qtot   -1.413
        45           h44bf         1   UNL       h44        45     0.07447        1.0080 ; qtot   -1.339
        46           h45bf         1   UNL       h45        46     0.09669        1.0080 ; qtot   -1.242
        47           h46bf         1   UNL       h46        47     0.09669        1.0080 ; qtot   -1.146
        48           h47bf         1   UNL       h47        48     0.12687        1.0080 ; qtot   -1.019
        49           h48bf         1   UNL       h48        49     0.12687        1.0080 ; qtot   -0.892
        50           h49bf         1   UNL       h49        50     0.09669        1.0080 ; qtot   -0.795
        51           h50bf         1   UNL       h50        51     0.09669        1.0080 ; qtot   -0.698
        52           h51bf         1   UNL       h51        52     0.09820        1.0080 ; qtot   -0.600
        53           h52bf         1   UNL       h52        53     0.09820        1.0080 ; qtot   -0.502
        54           h53bf         1   UNL       h53        54     0.09820        1.0080 ; qtot   -0.404
        55           h54bf         1   UNL       h54        55     0.09820        1.0080 ; qtot   -0.306
        56           h55bf         1   UNL       h55        56     0.14327        1.0080 ; qtot   -0.162
        57           h56bf         1   UNL       h56        57     0.13399        1.0080 ; qtot   -0.028
        58           h57bf         1   UNL       h57        58     0.13564        1.0080 ; qtot    0.107
        59           h58bf         1   UNL       h58        59     0.13798        1.0080 ; qtot    0.245
        60           h59bf         1   UNL       h59        60     0.06572        1.0080 ; qtot    0.311
        61           h60bf         1   UNL       h60        61     0.06572        1.0080 ; qtot    0.377
        62           h61bf         1   UNL       h61        62     0.05826        1.0080 ; qtot    0.435
        63           h62bf         1   UNL       h62        63     0.07754        1.0080 ; qtot    0.512
        64           h63bf         1   UNL       h63        64     0.07754        1.0080 ; qtot    0.590
        65           h64bf         1   UNL       h64        65     0.07754        1.0080 ; qtot    0.668
        66           h65bf         1   UNL       h65        66     0.07754        1.0080 ; qtot    0.745
        67           h66bf         1   UNL       h66        67     0.05826        1.0080 ; qtot    0.803
        68           h67bf         1   UNL       h67        68     0.05826        1.0080 ; qtot    0.862
        69           h68bf         1   UNL       h68        69     0.06572        1.0080 ; qtot    0.927
        70           h69bf         1   UNL       h69        70     0.06572        1.0080 ; qtot    0.993
        71           h70bf         1   UNL       h70        71     0.46548        1.0080 ; qtot    1.459
        72           h71bf         1   UNL       h71        72     0.05826        1.0080 ; qtot    1.517
        73           h72bf         1   UNL       h72        73     0.14995        1.0080 ; qtot    1.667
        74           o73bf         1   UNL       o73        74    -0.66673       15.9990 ; qtot    1.000

[ bonds ]
;       ai        aj funct               r               k
         1         4     1        0.143058   479159.473926    ;  uncertainty r = 0.000213, k = 20.086598
         1         8     1        0.143984   362341.550391    ;  uncertainty r = 0.000299, k = 18.047099
         1        10     1        0.141861   374247.359375    ;  uncertainty r = 0.000081, k = 28.162045
         2         4     1        0.136183   419347.273535    ;  uncertainty r = 0.000143, k = 20.747265
         2         6     1        0.132546   399493.881982    ;  uncertainty r = 0.000085, k = 18.177902
         3         6     1        0.134868   315036.379150    ;  uncertainty r = 0.000206, k = 5.817470
         3        16     1        0.142355   250536.586963    ;  uncertainty r = 0.000299, k = 15.090977
         4        14     1        0.141304   367171.818018    ;  uncertainty r = 0.000141, k = 29.969434
         5         6     1        0.136972   410517.894580    ;  uncertainty r = 0.000209, k = 11.526559
         5         8     1        0.134153   486855.132910    ;  uncertainty r = 0.000475, k = 52.549853
         7        10     1        0.131713   379661.226562    ;  uncertainty r = 0.000132, k = 17.207570
         7        12     1        0.135517   366390.356934    ;  uncertainty r = 0.000325, k = 23.548998
         8         9     1        0.141100   334049.037988    ;  uncertainty r = 0.000263, k = 22.684712
         9        17     1        0.146717   282616.354834    ;  uncertainty r = 0.000141, k = 29.596475
         9        20     1        0.146717   282616.354834    ;  uncertainty r = 0.000141, k = 29.596462
        10        42     1        0.108816   333872.934082    ;  uncertainty r = 0.000028, k = 3.959743
        11        18     1        0.152813   214684.834814    ;  uncertainty r = 0.000144, k = 10.532020
        11        19     1        0.152813   214684.834814    ;  uncertainty r = 0.000144, k = 10.532020
        11        43     1        0.102746   394210.356201    ;  uncertainty r = 0.000084, k = 22.499247
        11        71     1        0.102746   394210.356201    ;  uncertainty r = 0.000084, k = 22.499247
        12        14     1        0.138425   345267.183691    ;  uncertainty r = 0.000196, k = 24.075630
        12        15     1        0.149240   302420.127783    ;  uncertainty r = 0.000119, k = 13.907835
        13        32     1        0.156042   209821.956299    ;  uncertainty r = 0.000369, k = 81.227716
        13        35     1        0.152149   270203.302246    ;  uncertainty r = 0.000327, k = 39.210211
        13        36     1        0.152149   270203.302246    ;  uncertainty r = 0.000327, k = 39.210211
        13        74     1        0.135314   657424.228223    ;  uncertainty r = 0.000181, k = 23.760862
        14        40     1        0.134136   335912.940527    ;  uncertainty r = 0.000035, k = 8.814630
        15        23     1        0.138420   336729.898193    ;  uncertainty r = 0.000196, k = 13.424402
        15        27     1        0.143375   295574.216113    ;  uncertainty r = 0.000231, k = 20.498451
        16        32     1        0.151811   195883.648779    ;  uncertainty r = 0.000216, k = 21.872062
        16        44     1        0.109370   311028.636279    ;  uncertainty r = 0.000051, k = 4.074876
        16        45     1        0.109370   311028.636279    ;  uncertainty r = 0.000051, k = 4.074919
        17        18     1        0.153389   209363.769482    ;  uncertainty r = 0.000246, k = 15.699766
        17        46     1        0.109512   306916.880762    ;  uncertainty r = 0.000054, k = 2.592156
        17        47     1        0.109512   306916.880762    ;  uncertainty r = 0.000054, k = 2.592156
        18        22     1        0.154170   203666.746826    ;  uncertainty r = 0.000096, k = 14.555225
        18        48     1        0.109104   316017.412744    ;  uncertainty r = 0.000091, k = 5.591594
        19        20     1        0.153389   209363.769482    ;  uncertainty r = 0.000246, k = 15.699766
        19        21     1        0.154170   203666.746826    ;  uncertainty r = 0.000096, k = 14.555225
        19        49     1        0.109104   316017.412744    ;  uncertainty r = 0.000091, k = 5.591594
        20        50     1        0.109512   306916.880762    ;  uncertainty r = 0.000054, k = 2.592156
        20        51     1        0.109512   306916.880762    ;  uncertainty r = 0.000054, k = 2.592167
        21        22     1        0.155765   216858.119434    ;  uncertainty r = 0.000150, k = 17.193911
        21        52     1        0.109186   310069.411377    ;  uncertainty r = 0.000038, k = 1.121843
        21        53     1        0.109186   310069.411377    ;  uncertainty r = 0.000038, k = 1.121843
        22        54     1        0.109186   310069.411377    ;  uncertainty r = 0.000038, k = 1.121843
        22        55     1        0.109186   310069.411377    ;  uncertainty r = 0.000038, k = 1.121843
        23        24     1        0.141088   371074.016016    ;  uncertainty r = 0.000163, k = 3.862260
        23        56     1        0.108724   332837.251074    ;  uncertainty r = 0.000014, k = 1.009438
        24        25     1        0.137412   380430.812891    ;  uncertainty r = 0.000056, k = 8.448684
        24        41     1        0.108791   333523.637500    ;  uncertainty r = 0.000008, k = 2.014372
        25        26     1        0.141971   353974.112207    ;  uncertainty r = 0.000049, k = 7.459042
        25        57     1        0.108817   334293.581348    ;  uncertainty r = 0.000026, k = 1.823750
        26        27     1        0.144223   311193.044189    ;  uncertainty r = 0.000123, k = 13.512772
        26        28     1        0.141991   353560.819629    ;  uncertainty r = 0.000053, k = 7.898607
        27        31     1        0.142953   309013.758350    ;  uncertainty r = 0.000127, k = 16.985527
        28        29     1        0.137490   376763.479687    ;  uncertainty r = 0.000060, k = 4.497852
        28        58     1        0.108808   334332.985107    ;  uncertainty r = 0.000028, k = 1.823562
        29        30     1        0.140901   369149.692676    ;  uncertainty r = 0.000070, k = 2.225162
        29        59     1        0.108744   334458.219092    ;  uncertainty r = 0.000009, k = 1.622501
        30        31     1        0.138198   339080.767871    ;  uncertainty r = 0.000106, k = 9.630350
        30        73     1        0.108688   335527.100342    ;  uncertainty r = 0.000024, k = 0.593680
        31        39     1        0.176192   185660.837451    ;  uncertainty r = 0.000182, k = 14.017477
        32        33     1        0.153387   193254.999194    ;  uncertainty r = 0.000279, k = 19.164254
        32        38     1        0.153387   193254.999194    ;  uncertainty r = 0.000279, k = 19.164254
        33        34     1        0.154938   220169.031201    ;  uncertainty r = 0.000150, k = 10.817704
        33        60     1        0.109356   307406.810205    ;  uncertainty r = 0.000028, k = 1.333900
        33        61     1        0.109356   307406.810205    ;  uncertainty r = 0.000028, k = 1.333910
        34        35     1        0.153938   227730.084082    ;  uncertainty r = 0.000017, k = 9.565648
        34        62     1        0.109363   311190.592627    ;  uncertainty r = 0.000021, k = 2.376258
        34        72     1        0.109363   311190.592627    ;  uncertainty r = 0.000021, k = 2.376258
        35        63     1        0.109205   312639.874658    ;  uncertainty r = 0.000066, k = 3.894208
        35        64     1        0.109205   312639.874658    ;  uncertainty r = 0.000066, k = 3.894208
        36        37     1        0.153938   227730.135156    ;  uncertainty r = 0.000017, k = 9.565687
        36        65     1        0.109205   312639.874658    ;  uncertainty r = 0.000066, k = 3.894208
        36        66     1        0.109205   312639.874658    ;  uncertainty r = 0.000066, k = 3.894208
        37        38     1        0.154938   220169.031201    ;  uncertainty r = 0.000150, k = 10.817693
        37        67     1        0.109363   311190.618164    ;  uncertainty r = 0.000021, k = 2.376257
        37        68     1        0.109363   311190.618164    ;  uncertainty r = 0.000021, k = 2.376257
        38        69     1        0.109356   307406.810205    ;  uncertainty r = 0.000028, k = 1.333905
        38        70     1        0.109356   307406.810205    ;  uncertainty r = 0.000028, k = 1.333905

[ angles ]
;       ai        aj        ak funct           theta             cth
         1         4         2     1      122.576538      576.901879    ;  uncertainty theta = 0.002506, k = 0.103868
         1         4        14     1      114.839798      381.591321    ;  uncertainty theta = 0.008818, k = 0.403082
         1         8         5     1      123.146286      524.777479    ;  uncertainty theta = 0.003526, k = 0.330096
         1         8         9     1      120.769066      459.953984    ;  uncertainty theta = 0.006455, k = 0.393069
         1        10         7     1      124.382797      691.062526    ;  uncertainty theta = 0.004438, k = 0.247934
         1        10        42     1      118.381180      255.102523    ;  uncertainty theta = 0.007173, k = 0.190890
         2         4        14     1      120.804161      449.350530    ;  uncertainty theta = 0.006269, k = 0.071889
         2         6         3     1      117.119484      546.985475    ;  uncertainty theta = 0.010879, k = 0.204578
         2         6         5     1      129.563202      744.255367    ;  uncertainty theta = 0.002879, k = 0.093993
         3         6         5     1      115.946434      553.796732    ;  uncertainty theta = 0.010618, k = 0.058543
         3        16        32     1      106.148666      568.742070    ;  uncertainty theta = 0.010474, k = 0.195403
         3        16        44     1      106.735184      435.306077    ;  uncertainty theta = 0.004212, k = 0.096668
         3        16        45     1      106.735184      435.306077    ;  uncertainty theta = 0.004212, k = 0.096668
         4         1         8     1      119.338547      424.615477    ;  uncertainty theta = 0.012644, k = 0.218913
         4         1        10     1      120.668381      440.674584    ;  uncertainty theta = 0.002170, k = 0.503060
         4         2         6     1      111.948120      429.046166    ;  uncertainty theta = 0.012217, k = 0.143361
         4        14        12     1      122.792442      420.522549    ;  uncertainty theta = 0.004181, k = 0.191845
         4        14        40     1      115.885117      442.474184    ;  uncertainty theta = 0.005877, k = 0.364746
         5         8         9     1      122.671585      669.625272    ;  uncertainty theta = 0.004829, k = 0.216895
         6         3        16     1      108.768692      501.929682    ;  uncertainty theta = 0.003726, k = 0.165904
         6         5         8     1      121.180313      407.919251    ;  uncertainty theta = 0.012509, k = 0.258354
         7        10        42     1      116.993912      319.306248    ;  uncertainty theta = 0.004711, k = 0.159599
         7        12        14     1      122.741783      511.116881    ;  uncertainty theta = 0.004214, k = 0.169575
         7        12        15     1      119.639099      462.976237    ;  uncertainty theta = 0.007289, k = 0.178475
         8         1        10     1      123.652573      370.829600    ;  uncertainty theta = 0.010827, k = 0.419830
         8         9        17     1      110.984398      422.188111    ;  uncertainty theta = 0.004181, k = 0.144764
         8         9        20     1      110.984398      422.188111    ;  uncertainty theta = 0.004181, k = 0.144764
         9        17        18     1      110.133949      649.655188    ;  uncertainty theta = 0.001985, k = 0.133737
         9        17        46     1      108.568321      453.936420    ;  uncertainty theta = 0.004489, k = 0.158239
         9        17        47     1      108.568321      453.936420    ;  uncertainty theta = 0.004489, k = 0.158239
         9        20        19     1      110.133949      649.655188    ;  uncertainty theta = 0.001985, k = 0.133737
         9        20        50     1      108.568321      453.936420    ;  uncertainty theta = 0.004489, k = 0.158239
         9        20        51     1      108.568321      453.936420    ;  uncertainty theta = 0.004489, k = 0.158239
        10         7        12     1      119.411583      415.443505    ;  uncertainty theta = 0.003094, k = 0.334569
        11        18        17     1      107.106102      724.692026    ;  uncertainty theta = 0.009614, k = 0.194545
        11        18        22     1      104.244408      885.384478    ;  uncertainty theta = 0.008129, k = 0.207714
        11        18        48     1      107.116600      462.413527    ;  uncertainty theta = 0.004311, k = 0.213725
        11        19        20     1      107.106102      724.692026    ;  uncertainty theta = 0.009614, k = 0.194545
        11        19        21     1      104.244400      885.384478    ;  uncertainty theta = 0.008129, k = 0.207714
        11        19        49     1      107.116600      462.413527    ;  uncertainty theta = 0.004311, k = 0.213725
        12        14        40     1      117.190918      468.890345    ;  uncertainty theta = 0.005797, k = 0.238024
        12        15        23     1      118.390549      415.211979    ;  uncertainty theta = 0.012460, k = 0.326601
        12        15        27     1      118.205368      345.302259    ;  uncertainty theta = 0.009804, k = 0.241860
        13        32        16     1      105.613159      563.498983    ;  uncertainty theta = 0.007068, k = 0.295727
        13        32        33     1      104.925560      737.351282    ;  uncertainty theta = 0.006171, k = 0.254604
        13        32        38     1      104.925560      737.351282    ;  uncertainty theta = 0.006171, k = 0.254604
        13        35        34     1      105.793480      771.298719    ;  uncertainty theta = 0.007757, k = 0.188382
        13        35        63     1      106.492493      420.023649    ;  uncertainty theta = 0.003588, k = 0.129232
        13        35        64     1      106.492493      420.023649    ;  uncertainty theta = 0.003588, k = 0.129232
        13        36        37     1      105.793480      771.298719    ;  uncertainty theta = 0.007757, k = 0.188382
        13        36        65     1      106.492493      420.023649    ;  uncertainty theta = 0.003588, k = 0.129232
        13        36        66     1      106.492493      420.023649    ;  uncertainty theta = 0.003588, k = 0.129232
        14        12        15     1      119.928879      342.349914    ;  uncertainty theta = 0.008940, k = 0.229317
        15        23        24     1      122.213211      513.868025    ;  uncertainty theta = 0.006518, k = 0.155630
        15        23        56     1      118.504128      270.596414    ;  uncertainty theta = 0.005378, k = 0.148915
        15        27        26     1      122.342392      431.386386    ;  uncertainty theta = 0.005727, k = 0.225251
        15        27        31     1      119.933022      430.819877    ;  uncertainty theta = 0.005790, k = 0.359730
        16        32        33     1      109.642982      485.263462    ;  uncertainty theta = 0.003519, k = 0.152338
        16        32        38     1      109.642982      485.263462    ;  uncertainty theta = 0.003519, k = 0.152338
        17         9        20     1      113.145386      423.689501    ;  uncertainty theta = 0.008189, k = 0.281148
        17        18        22     1      112.961143      535.549191    ;  uncertainty theta = 0.001825, k = 0.221357
        17        18        48     1      110.097534      391.839395    ;  uncertainty theta = 0.006671, k = 0.265089
        18        11        19     1      103.811913      816.372228    ;  uncertainty theta = 0.015300, k = 0.296682
        18        11        43     1      110.536942      414.249901    ;  uncertainty theta = 0.015659, k = 0.317278
        18        11        71     1      110.536942      414.249901    ;  uncertainty theta = 0.015659, k = 0.317278
        18        17        46     1      108.657677      423.347815    ;  uncertainty theta = 0.003396, k = 0.148176
        18        17        47     1      108.657677      423.347815    ;  uncertainty theta = 0.003396, k = 0.148176
        18        22        21     1      106.024353      704.148060    ;  uncertainty theta = 0.006529, k = 0.081670
        18        22        54     1      108.154015      411.973012    ;  uncertainty theta = 0.004144, k = 0.083638
        18        22        55     1      108.154015      411.973012    ;  uncertainty theta = 0.004144, k = 0.083638
        19        11        43     1      110.536942      414.249901    ;  uncertainty theta = 0.015659, k = 0.317278
        19        11        71     1      110.536942      414.249901    ;  uncertainty theta = 0.015659, k = 0.317278
        19        20        50     1      108.657677      423.347815    ;  uncertainty theta = 0.003396, k = 0.148176
        19        20        51     1      108.657677      423.347815    ;  uncertainty theta = 0.003396, k = 0.148176
        19        21        22     1      106.024353      704.148060    ;  uncertainty theta = 0.006529, k = 0.081670
        19        21        52     1      108.154015      411.973012    ;  uncertainty theta = 0.004144, k = 0.083638
        19        21        53     1      108.154015      411.973012    ;  uncertainty theta = 0.004144, k = 0.083638
        20        19        21     1      112.961143      535.549255    ;  uncertainty theta = 0.001825, k = 0.221357
        20        19        49     1      110.097534      391.839395    ;  uncertainty theta = 0.006671, k = 0.265089
        21        19        49     1      111.749313      382.110299    ;  uncertainty theta = 0.005995, k = 0.096527
        21        22        54     1      110.275002      402.480996    ;  uncertainty theta = 0.003380, k = 0.146043
        21        22        55     1      110.275002      402.480996    ;  uncertainty theta = 0.003380, k = 0.146043
        22        18        48     1      111.749313      382.110299    ;  uncertainty theta = 0.005995, k = 0.096527
        22        21        52     1      110.275002      402.480996    ;  uncertainty theta = 0.003380, k = 0.146043
        22        21        53     1      110.275002      402.480996    ;  uncertainty theta = 0.003380, k = 0.146043
        23        15        27     1      124.608971      447.000094    ;  uncertainty theta = 0.003559, k = 0.150760
        23        24        25     1      117.902245      508.642718    ;  uncertainty theta = 0.005384, k = 0.119147
        23        24        41     1      120.122269      285.911625    ;  uncertainty theta = 0.000512, k = 0.050412
        24        23        56     1      120.891968      296.892838    ;  uncertainty theta = 0.002820, k = 0.077121
        24        25        26     1      119.552452      526.145214    ;  uncertainty theta = 0.005662, k = 0.118053
        24        25        57     1      121.378922      288.887209    ;  uncertainty theta = 0.002792, k = 0.035594
        25        24        41     1      120.241211      291.316969    ;  uncertainty theta = 0.001463, k = 0.038180
        25        26        27     1      120.692810      444.981162    ;  uncertainty theta = 0.003869, k = 0.058494
        25        26        28     1      120.903214      483.694398    ;  uncertainty theta = 0.002581, k = 0.284930
        26        25        57     1      118.777817      275.351903    ;  uncertainty theta = 0.002784, k = 0.082112
        26        27        31     1      119.623856      431.277439    ;  uncertainty theta = 0.008310, k = 0.171516
        26        28        29     1      120.015457      532.756389    ;  uncertainty theta = 0.005259, k = 0.102068
        26        28        58     1      118.734756      275.041212    ;  uncertainty theta = 0.002676, k = 0.089026
        27        26        28     1      120.866051      445.424039    ;  uncertainty theta = 0.003889, k = 0.068542
        27        31        30     1      125.181152      433.776596    ;  uncertainty theta = 0.003487, k = 0.140556
        27        31        39     1      118.127747      413.448003    ;  uncertainty theta = 0.006660, k = 0.356587
        28        29        30     1      118.330124      513.322521    ;  uncertainty theta = 0.002785, k = 0.050462
        28        29        59     1      120.179626      287.188576    ;  uncertainty theta = 0.001363, k = 0.036925
        29        28        58     1      121.351768      289.147368    ;  uncertainty theta = 0.002432, k = 0.027640
        29        30        31     1      120.879456      496.183801    ;  uncertainty theta = 0.005098, k = 0.193152
        29        30        73     1      121.365891      286.291170    ;  uncertainty theta = 0.001987, k = 0.073688
        30        29        59     1      119.758194      285.606616    ;  uncertainty theta = 0.001095, k = 0.037009
        30        31        39     1      118.613304      467.819733    ;  uncertainty theta = 0.003504, k = 0.143973
        31        30        73     1      119.312576      283.990021    ;  uncertainty theta = 0.002700, k = 0.083410
        32        13        35     1      107.421837      667.478239    ;  uncertainty theta = 0.012412, k = 0.388460
        32        13        36     1      107.421837      667.478239    ;  uncertainty theta = 0.012412, k = 0.388460
        32        13        74     1      115.730225      817.464961    ;  uncertainty theta = 0.010297, k = 0.072882
        32        16        44     1      109.437698      375.744887    ;  uncertainty theta = 0.004635, k = 0.084176
        32        16        45     1      109.437698      375.744887    ;  uncertainty theta = 0.004635, k = 0.084176
        32        33        34     1      107.092796      682.070910    ;  uncertainty theta = 0.006722, k = 0.145721
        32        33        60     1      107.850510      384.913891    ;  uncertainty theta = 0.002642, k = 0.138709
        32        33        61     1      107.850510      384.913923    ;  uncertainty theta = 0.002642, k = 0.138708
        32        38        37     1      107.092796      682.070910    ;  uncertainty theta = 0.006722, k = 0.145721
        32        38        69     1      107.850510      384.913891    ;  uncertainty theta = 0.002642, k = 0.138709
        32        38        70     1      107.850510      384.913891    ;  uncertainty theta = 0.002642, k = 0.138709
        33        32        38     1      114.010643      526.816968    ;  uncertainty theta = 0.007648, k = 0.453244
        33        34        35     1      106.492775      717.377113    ;  uncertainty theta = 0.005787, k = 0.127911
        33        34        62     1      109.778725      411.810404    ;  uncertainty theta = 0.002801, k = 0.130164
        33        34        72     1      109.778725      411.810404    ;  uncertainty theta = 0.002801, k = 0.130164
        34        33        60     1      109.924232      413.501536    ;  uncertainty theta = 0.001180, k = 0.078496
        34        33        61     1      109.924232      413.501536    ;  uncertainty theta = 0.001180, k = 0.078496
        34        35        63     1      111.850266      395.579209    ;  uncertainty theta = 0.004410, k = 0.109468
        34        35        64     1      111.850266      395.579209    ;  uncertainty theta = 0.004410, k = 0.109468
        35        13        36     1      111.475449      498.046924    ;  uncertainty theta = 0.010189, k = 0.582792
        35        13        74     1      117.619705      850.948580    ;  uncertainty theta = 0.010365, k = 0.441156
        35        34        62     1      109.233543      405.092325    ;  uncertainty theta = 0.002857, k = 0.088265
        35        34        72     1      109.233543      405.092325    ;  uncertainty theta = 0.002857, k = 0.088265
        36        13        74     1      117.619705      850.948516    ;  uncertainty theta = 0.010365, k = 0.441155
        36        37        38     1      106.492775      717.377113    ;  uncertainty theta = 0.005787, k = 0.127911
        36        37        67     1      109.233543      405.092325    ;  uncertainty theta = 0.002857, k = 0.088265
        36        37        68     1      109.233543      405.092325    ;  uncertainty theta = 0.002857, k = 0.088265
        37        36        65     1      111.850266      395.579209    ;  uncertainty theta = 0.004410, k = 0.109468
        37        36        66     1      111.850266      395.579209    ;  uncertainty theta = 0.004410, k = 0.109468
        37        38        69     1      109.924232      413.501567    ;  uncertainty theta = 0.001180, k = 0.078496
        37        38        70     1      109.924232      413.501567    ;  uncertainty theta = 0.001180, k = 0.078496
        38        37        67     1      109.778725      411.810404    ;  uncertainty theta = 0.002801, k = 0.130164
        38        37        68     1      109.778725      411.810404    ;  uncertainty theta = 0.002801, k = 0.130164
        43        11        71     1      107.747574      350.201458    ;  uncertainty theta = 0.021723, k = 0.473762
        44        16        45     1      108.152420      326.839599    ;  uncertainty theta = 0.003564, k = 0.059727
        46        17        47     1      105.897926      325.661285    ;  uncertainty theta = 0.002949, k = 0.142469
        50        20        51     1      105.897926      325.661285    ;  uncertainty theta = 0.002949, k = 0.142469
        52        21        53     1      104.910583      313.577093    ;  uncertainty theta = 0.003222, k = 0.124326
        54        22        55     1      104.910583      313.577093    ;  uncertainty theta = 0.003222, k = 0.124326
        60        33        61     1      105.453125      309.925063    ;  uncertainty theta = 0.001765, k = 0.066593
        62        34        72     1      104.709106      307.534406    ;  uncertainty theta = 0.004204, k = 0.096318
        63        35        64     1      107.630600      319.241383    ;  uncertainty theta = 0.004473, k = 0.036944
        65        36        66     1      107.630600      319.241383    ;  uncertainty theta = 0.004473, k = 0.036944
        67        37        68     1      104.709106      307.534406    ;  uncertainty theta = 0.004204, k = 0.096318
        69        38        70     1      105.453125      309.925063    ;  uncertainty theta = 0.001765, k = 0.066593

[ dihedrals ] ; propers for gromacs 4.5 or higher, use funct 9
;       ai        aj        ak        al funct           phase               k        pn
         1         4         2         6     9        0.000000       -0.296257         1    ;  uncertainty k = 1.273553
         1         4         2         6     9      180.000000       12.863482         2    ;  uncertainty k = 0.536008
         1         4         2         6     9        0.000000        0.623273         3    ;  uncertainty k = 0.326993
         1         4         2         6     9      180.000000        1.147725         4    ;  uncertainty k = 0.355045
         1         4        14        12     9        0.000000       -0.694588         1    ;  uncertainty k = 0.632369
         1         4        14        12     9      180.000000        3.599638         2    ;  uncertainty k = 1.210614
         1         4        14        12     9        0.000000        0.269076         3    ;  uncertainty k = 0.305740
         1         4        14        12     9      180.000000        1.227925         4    ;  uncertainty k = 0.377804
         1         4        14        40     9        0.000000        0.340284         1    ;  uncertainty k = 0.591106
         1         4        14        40     9      180.000000        8.063869         2    ;  uncertainty k = 0.670641
         1         4        14        40     9        0.000000        1.392226         3    ;  uncertainty k = 0.150377
         1         4        14        40     9      180.000000        1.486947         4    ;  uncertainty k = 0.229055
         1         8         5         6     9        0.000000       -0.781881         1    ;  uncertainty k = 1.422060
         1         8         5         6     9      180.000000       12.984261         2    ;  uncertainty k = 0.677102
         1         8         5         6     9        0.000000        0.656450         3    ;  uncertainty k = 0.998368
         1         8         5         6     9      180.000000        1.732429         4    ;  uncertainty k = 0.821786
         1         8         9        17     9        0.000000       -1.427466         1    ;  uncertainty k = 1.188999
         1         8         9        17     9      180.000000        9.343136         2    ;  uncertainty k = 0.264294
         1         8         9        17     9        0.000000        0.295999         3    ;  uncertainty k = 0.386319
         1         8         9        17     9      180.000000        0.358373         4    ;  uncertainty k = 0.207630
         1         8         9        20     9        0.000000       -1.427466         1    ;  uncertainty k = 1.188999
         1         8         9        20     9      180.000000        9.343136         2    ;  uncertainty k = 0.264294
         1         8         9        20     9        0.000000        0.295999         3    ;  uncertainty k = 0.386319
         1         8         9        20     9      180.000000        0.358373         4    ;  uncertainty k = 0.207630
         1        10         7        12     9        0.000000       -0.296438         1    ;  uncertainty k = 0.546197
         1        10         7        12     9      180.000000       16.796102         2    ;  uncertainty k = 0.466163
         1        10         7        12     9        0.000000        1.092861         3    ;  uncertainty k = 0.778606
         1        10         7        12     9      180.000000        1.747315         4    ;  uncertainty k = 0.326483
         2         4         1         8     9        0.000000        0.000207         1    ;  uncertainty k = 0.507370
         2         4         1         8     9      180.000000        7.305636         2    ;  uncertainty k = 0.988463
         2         4         1         8     9        0.000000        0.353488         3    ;  uncertainty k = 0.303746
         2         4         1         8     9      180.000000        1.556066         4    ;  uncertainty k = 0.321521
         2         4         1        10     9        0.000000       -0.068163         1    ;  uncertainty k = 0.420137
         2         4         1        10     9      180.000000        7.612629         2    ;  uncertainty k = 0.906697
         2         4         1        10     9        0.000000        0.215897         3    ;  uncertainty k = 0.350361
         2         4         1        10     9      180.000000        1.518026         4    ;  uncertainty k = 0.342744
         2         4        14        12     9        0.000000       -0.192708         1    ;  uncertainty k = 0.167934
         2         4        14        12     9      180.000000        6.344453         2    ;  uncertainty k = 0.641745
         2         4        14        12     9        0.000000        0.385982         3    ;  uncertainty k = 0.152500
         2         4        14        12     9      180.000000        1.221787         4    ;  uncertainty k = 0.342659
         2         4        14        40     9        0.000000        0.100797         1    ;  uncertainty k = 0.687483
         2         4        14        40     9      180.000000       11.806109         2    ;  uncertainty k = 0.663449
         2         4        14        40     9        0.000000        1.112948         3    ;  uncertainty k = 0.345661
         2         4        14        40     9      180.000000        1.142502         4    ;  uncertainty k = 0.465411
         2         6         3        16     9        0.000000        2.436967         1    ;  uncertainty k = 1.873391
         2         6         3        16     9      180.000000       10.203406         2    ;  uncertainty k = 0.318918
         2         6         3        16     9        0.000000        0.074626         3    ;  uncertainty k = 0.169648
         2         6         3        16     9      180.000000       -0.179868         4    ;  uncertainty k = 0.249415
         2         6         5         8     9        0.000000       -0.488652         1    ;  uncertainty k = 1.057490
         2         6         5         8     9      180.000000        8.899800         2    ;  uncertainty k = 0.865025
         2         6         5         8     9        0.000000        1.151301         3    ;  uncertainty k = 0.231591
         2         6         5         8     9      180.000000        0.505791         4    ;  uncertainty k = 0.486052
         3         6         2         4     9        0.000000       -0.048118         1    ;  uncertainty k = 1.022715
         3         6         2         4     9      180.000000       14.326864         2    ;  uncertainty k = 0.324591
         3         6         2         4     9        0.000000        2.591512         3    ;  uncertainty k = 0.343159
         3         6         2         4     9      180.000000        1.446316         4    ;  uncertainty k = 0.270420
         3         6         5         8     9        0.000000        0.413345         1    ;  uncertainty k = 1.869884
         3         6         5         8     9      180.000000       10.003285         2    ;  uncertainty k = 0.385500
         3         6         5         8     9        0.000000        2.003694         3    ;  uncertainty k = 0.241543
         3         6         5         8     9      180.000000        0.973997         4    ;  uncertainty k = 0.106425
         3        16        32        13     9        0.000000       -1.182460         1    ;  uncertainty k = 0.670898
         3        16        32        13     9      180.000000       -6.282965         2    ;  uncertainty k = 0.607339
         3        16        32        13     9        0.000000        1.095103         3    ;  uncertainty k = 0.279452
         3        16        32        13     9      180.000000        0.231954         4    ;  uncertainty k = 0.287571
         3        16        32        33     9        0.000000       -0.209978         1    ;  uncertainty k = 0.530185
         3        16        32        33     9      180.000000       -0.447255         2    ;  uncertainty k = 0.733341
         3        16        32        33     9        0.000000        1.055585         3    ;  uncertainty k = 0.370487
         3        16        32        33     9      180.000000       -0.141252         4    ;  uncertainty k = 0.148111
         3        16        32        38     9        0.000000       -0.209978         1    ;  uncertainty k = 0.530185
         3        16        32        38     9      180.000000       -0.447255         2    ;  uncertainty k = 0.733341
         3        16        32        38     9        0.000000        1.055585         3    ;  uncertainty k = 0.370487
         3        16        32        38     9      180.000000       -0.141252         4    ;  uncertainty k = 0.148111
         4         1         8         5     9        0.000000       -0.429574         1    ;  uncertainty k = 0.938080
         4         1         8         5     9      180.000000        6.590626         2    ;  uncertainty k = 1.137113
         4         1         8         5     9        0.000000       -0.371204         3    ;  uncertainty k = 0.551517
         4         1         8         5     9      180.000000        0.842106         4    ;  uncertainty k = 0.376691
         4         1         8         9     9        0.000000       -1.028303         1    ;  uncertainty k = 1.278218
         4         1         8         9     9      180.000000        7.036852         2    ;  uncertainty k = 0.885804
         4         1         8         9     9        0.000000        0.121802         3    ;  uncertainty k = 0.339705
         4         1         8         9     9      180.000000        0.876785         4    ;  uncertainty k = 0.328972
         4         1        10         7     9        0.000000        0.028984         1    ;  uncertainty k = 0.404259
         4         1        10         7     9      180.000000       11.577144         2    ;  uncertainty k = 0.516140
         4         1        10         7     9        0.000000       -0.632873         3    ;  uncertainty k = 0.691560
         4         1        10         7     9      180.000000        0.789131         4    ;  uncertainty k = 0.328946
         4         1        10        42     9        0.000000       -0.496305         1    ;  uncertainty k = 0.578653
         4         1        10        42     9      180.000000        5.926200         2    ;  uncertainty k = 0.458741
         4         1        10        42     9        0.000000        0.700476         3    ;  uncertainty k = 0.220056
         4         1        10        42     9      180.000000        0.761876         4    ;  uncertainty k = 0.281358
         4         2         6         5     9        0.000000       -0.196981         1    ;  uncertainty k = 1.034246
         4         2         6         5     9      180.000000       11.783906         2    ;  uncertainty k = 0.754363
         4         2         6         5     9        0.000000        1.700934         3    ;  uncertainty k = 0.531109
         4         2         6         5     9      180.000000        1.152777         4    ;  uncertainty k = 0.244703
         4        14        12         7     9        0.000000       -0.248669         1    ;  uncertainty k = 0.326383
         4        14        12         7     9      180.000000        7.342387         2    ;  uncertainty k = 0.657228
         4        14        12         7     9        0.000000        0.458029         3    ;  uncertainty k = 0.582403
         4        14        12         7     9      180.000000        1.338710         4    ;  uncertainty k = 0.322556
         4        14        12        15     9        0.000000       -0.070626         1    ;  uncertainty k = 0.230941
         4        14        12        15     9      180.000000        5.717351         2    ;  uncertainty k = 0.575895
         4        14        12        15     9        0.000000        0.878878         3    ;  uncertainty k = 0.073944
         4        14        12        15     9      180.000000        1.367180         4    ;  uncertainty k = 0.114987
         5         6         3        16     9        0.000000        4.889100         1    ;  uncertainty k = 1.416317
         5         6         3        16     9      180.000000       10.269324         2    ;  uncertainty k = 0.153197
         5         6         3        16     9        0.000000        0.256430         3    ;  uncertainty k = 0.154473
         5         6         3        16     9      180.000000       -0.105904         4    ;  uncertainty k = 0.327793
         5         8         1        10     9        0.000000        1.009064         1    ;  uncertainty k = 0.800231
         5         8         1        10     9      180.000000        5.504402         2    ;  uncertainty k = 1.802661
         5         8         1        10     9        0.000000       -0.030465         3    ;  uncertainty k = 0.469702
         5         8         1        10     9      180.000000        0.748295         4    ;  uncertainty k = 0.490363
         5         8         9        17     9        0.000000        8.637731         1    ;  uncertainty k = 1.424692
         5         8         9        17     9      180.000000       12.771763         2    ;  uncertainty k = 0.293856
         5         8         9        17     9        0.000000        0.441311         3    ;  uncertainty k = 0.155128
         5         8         9        17     9      180.000000        0.169356         4    ;  uncertainty k = 0.328120
         5         8         9        20     9        0.000000        8.637731         1    ;  uncertainty k = 1.424692
         5         8         9        20     9      180.000000       12.771763         2    ;  uncertainty k = 0.293856
         5         8         9        20     9        0.000000        0.441311         3    ;  uncertainty k = 0.155128
         5         8         9        20     9      180.000000        0.169356         4    ;  uncertainty k = 0.328120
         6         2         4        14     9        0.000000       -0.225806         1    ;  uncertainty k = 1.156549
         6         2         4        14     9      180.000000       12.828964         2    ;  uncertainty k = 0.314461
         6         2         4        14     9        0.000000        1.828930         3    ;  uncertainty k = 0.743538
         6         2         4        14     9      180.000000        1.090077         4    ;  uncertainty k = 0.478207
         6         3        16        32     9        0.000000       -7.654420         1    ;  uncertainty k = 1.649558
         6         3        16        32     9      180.000000        3.064181         2    ;  uncertainty k = 1.243191
         6         3        16        32     9        0.000000       -0.693903         3    ;  uncertainty k = 0.262081
         6         3        16        32     9      180.000000        0.881825         4    ;  uncertainty k = 0.306197
         6         3        16        44     9        0.000000        3.269817         1    ;  uncertainty k = 1.141788
         6         3        16        44     9      180.000000        1.290563         2    ;  uncertainty k = 0.331508
         6         3        16        44     9        0.000000       -0.112048         3    ;  uncertainty k = 0.285580
         6         3        16        44     9      180.000000        0.351349         4    ;  uncertainty k = 0.090101
         6         3        16        45     9        0.000000        3.269817         1    ;  uncertainty k = 1.141788
         6         3        16        45     9      180.000000        1.290563         2    ;  uncertainty k = 0.331508
         6         3        16        45     9        0.000000       -0.112048         3    ;  uncertainty k = 0.285580
         6         3        16        45     9      180.000000        0.351349         4    ;  uncertainty k = 0.090101
         6         5         8         9     9        0.000000        0.434878         1    ;  uncertainty k = 1.165997
         6         5         8         9     9      180.000000       18.095739         2    ;  uncertainty k = 0.788100
         6         5         8         9     9        0.000000        2.581721         3    ;  uncertainty k = 0.811252
         6         5         8         9     9      180.000000        1.672242         4    ;  uncertainty k = 0.700518
         7        10         1         8     9        0.000000        0.131191         1    ;  uncertainty k = 0.453084
         7        10         1         8     9      180.000000        8.728136         2    ;  uncertainty k = 0.939957
         7        10         1         8     9        0.000000        0.374746         3    ;  uncertainty k = 0.391114
         7        10         1         8     9      180.000000        1.133644         4    ;  uncertainty k = 0.308019
         7        12        14        40     9        0.000000        0.191759         1    ;  uncertainty k = 0.534045
         7        12        14        40     9      180.000000       12.342941         2    ;  uncertainty k = 0.628034
         7        12        14        40     9        0.000000        1.313613         3    ;  uncertainty k = 0.216142
         7        12        14        40     9      180.000000        1.435943         4    ;  uncertainty k = 0.356743
         7        12        15        23     9        0.000000        1.591869         1    ;  uncertainty k = 1.719018
         7        12        15        23     9      180.000000        7.129245         2    ;  uncertainty k = 0.270738
         7        12        15        23     9        0.000000        0.255991         3    ;  uncertainty k = 0.337723
         7        12        15        23     9      180.000000        0.635181         4    ;  uncertainty k = 0.167631
         7        12        15        27     9        0.000000       -0.726372         1    ;  uncertainty k = 0.856928
         7        12        15        27     9      180.000000        7.295701         2    ;  uncertainty k = 0.168137
         7        12        15        27     9        0.000000        0.958806         3    ;  uncertainty k = 0.374665
         7        12        15        27     9      180.000000        0.578158         4    ;  uncertainty k = 0.111040
         8         1         4        14     9        0.000000       -0.327887         1    ;  uncertainty k = 0.808821
         8         1         4        14     9      180.000000        5.827308         2    ;  uncertainty k = 0.668686
         8         1         4        14     9        0.000000        0.176632         3    ;  uncertainty k = 0.380608
         8         1         4        14     9      180.000000        1.389660         4    ;  uncertainty k = 0.287900
         8         1        10        42     9        0.000000       -0.819287         1    ;  uncertainty k = 1.518052
         8         1        10        42     9      180.000000        5.548156         2    ;  uncertainty k = 0.577000
         8         1        10        42     9        0.000000        0.953351         3    ;  uncertainty k = 0.254807
         8         1        10        42     9      180.000000        0.672274         4    ;  uncertainty k = 0.246874
         8         9        17        18     9        0.000000       -0.458195         1    ;  uncertainty k = 1.681825
         8         9        17        18     9      180.000000       -1.874762         2    ;  uncertainty k = 0.739856
         8         9        17        18     9        0.000000       -0.040748         3    ;  uncertainty k = 0.186193
         8         9        17        18     9      180.000000        0.284566         4    ;  uncertainty k = 0.036558
         8         9        17        46     9        0.000000       -0.358961         1    ;  uncertainty k = 0.549202
         8         9        17        46     9      180.000000       -0.676027         2    ;  uncertainty k = 0.423916
         8         9        17        46     9        0.000000        0.014841         3    ;  uncertainty k = 0.121211
         8         9        17        46     9      180.000000        0.198073         4    ;  uncertainty k = 0.095184
         8         9        17        47     9        0.000000       -0.358961         1    ;  uncertainty k = 0.549202
         8         9        17        47     9      180.000000       -0.676027         2    ;  uncertainty k = 0.423916
         8         9        17        47     9        0.000000        0.014841         3    ;  uncertainty k = 0.121211
         8         9        17        47     9      180.000000        0.198073         4    ;  uncertainty k = 0.095184
         8         9        20        19     9        0.000000       -0.458195         1    ;  uncertainty k = 1.681825
         8         9        20        19     9      180.000000       -1.874762         2    ;  uncertainty k = 0.739856
         8         9        20        19     9        0.000000       -0.040748         3    ;  uncertainty k = 0.186193
         8         9        20        19     9      180.000000        0.284566         4    ;  uncertainty k = 0.036558
         8         9        20        50     9        0.000000       -0.358961         1    ;  uncertainty k = 0.549202
         8         9        20        50     9      180.000000       -0.676027         2    ;  uncertainty k = 0.423916
         8         9        20        50     9        0.000000        0.014841         3    ;  uncertainty k = 0.121211
         8         9        20        50     9      180.000000        0.198073         4    ;  uncertainty k = 0.095184
         8         9        20        51     9        0.000000       -0.358961         1    ;  uncertainty k = 0.549202
         8         9        20        51     9      180.000000       -0.676027         2    ;  uncertainty k = 0.423916
         8         9        20        51     9        0.000000        0.014841         3    ;  uncertainty k = 0.121211
         8         9        20        51     9      180.000000        0.198073         4    ;  uncertainty k = 0.095184
         9         8         1        10     9        0.000000       -0.425890         1    ;  uncertainty k = 0.687520
         9         8         1        10     9      180.000000        6.477950         2    ;  uncertainty k = 1.028437
         9         8         1        10     9        0.000000        0.193694         3    ;  uncertainty k = 0.577517
         9         8         1        10     9      180.000000        0.829904         4    ;  uncertainty k = 0.425004
         9        17        18        11     9        0.000000        9.107743         1    ;  uncertainty k = 1.082844
         9        17        18        11     9      180.000000       -3.282809         2    ;  uncertainty k = 1.314094
         9        17        18        11     9        0.000000        2.160516         3    ;  uncertainty k = 0.186385
         9        17        18        11     9      180.000000       -0.493621         4    ;  uncertainty k = 0.354842
         9        17        18        22     9        0.000000        8.403191         1    ;  uncertainty k = 2.185287
         9        17        18        22     9      180.000000        2.355906         2    ;  uncertainty k = 1.415442
         9        17        18        22     9        0.000000        1.695368         3    ;  uncertainty k = 0.321915
         9        17        18        22     9      180.000000       -0.398746         4    ;  uncertainty k = 0.237742
         9        17        18        48     9        0.000000        1.706369         1    ;  uncertainty k = 0.425655
         9        17        18        48     9      180.000000       -2.100813         2    ;  uncertainty k = 2.274752
         9        17        18        48     9        0.000000        0.528673         3    ;  uncertainty k = 0.426932
         9        17        18        48     9      180.000000        0.298925         4    ;  uncertainty k = 0.509447
         9        20        19        11     9        0.000000        9.107743         1    ;  uncertainty k = 1.082844
         9        20        19        11     9      180.000000       -3.282809         2    ;  uncertainty k = 1.314094
         9        20        19        11     9        0.000000        2.160516         3    ;  uncertainty k = 0.186385
         9        20        19        11     9      180.000000       -0.493621         4    ;  uncertainty k = 0.354842
         9        20        19        21     9        0.000000        8.403191         1    ;  uncertainty k = 2.185287
         9        20        19        21     9      180.000000        2.355906         2    ;  uncertainty k = 1.415442
         9        20        19        21     9        0.000000        1.695368         3    ;  uncertainty k = 0.321915
         9        20        19        21     9      180.000000       -0.398746         4    ;  uncertainty k = 0.237742
         9        20        19        49     9        0.000000        1.706369         1    ;  uncertainty k = 0.425655
         9        20        19        49     9      180.000000       -2.100813         2    ;  uncertainty k = 2.274752
         9        20        19        49     9        0.000000        0.528673         3    ;  uncertainty k = 0.426932
         9        20        19        49     9      180.000000        0.298925         4    ;  uncertainty k = 0.509447
        10         1         4        14     9        0.000000       -0.619432         1    ;  uncertainty k = 1.069074
        10         1         4        14     9      180.000000        5.358132         2    ;  uncertainty k = 1.318113
        10         1         4        14     9        0.000000        0.120214         3    ;  uncertainty k = 0.201184
        10         1         4        14     9      180.000000        1.478523         4    ;  uncertainty k = 0.304603
        10         7        12        14     9        0.000000        0.357308         1    ;  uncertainty k = 0.662942
        10         7        12        14     9      180.000000       11.000789         2    ;  uncertainty k = 0.434214
        10         7        12        14     9        0.000000        1.680897         3    ;  uncertainty k = 0.401565
        10         7        12        14     9      180.000000        1.265260         4    ;  uncertainty k = 0.071938
        10         7        12        15     9        0.000000        0.796812         1    ;  uncertainty k = 1.122112
        10         7        12        15     9      180.000000       13.881368         2    ;  uncertainty k = 0.358438
        10         7        12        15     9        0.000000        2.489671         3    ;  uncertainty k = 0.485889
        10         7        12        15     9      180.000000        1.484013         4    ;  uncertainty k = 0.461919
        11        18        17        46     9        0.000000       -1.226081         1    ;  uncertainty k = 2.151708
        11        18        17        46     9      180.000000       -0.881111         2    ;  uncertainty k = 0.372613
        11        18        17        46     9        0.000000        0.771595         3    ;  uncertainty k = 0.306670
        11        18        17        46     9      180.000000       -0.188527         4    ;  uncertainty k = 0.228071
        11        18        17        47     9        0.000000       -1.226081         1    ;  uncertainty k = 2.151708
        11        18        17        47     9      180.000000       -0.881111         2    ;  uncertainty k = 0.372613
        11        18        17        47     9        0.000000        0.771595         3    ;  uncertainty k = 0.306670
        11        18        17        47     9      180.000000       -0.188527         4    ;  uncertainty k = 0.228071
        11        18        22        21     9        0.000000        0.189331         1    ;  uncertainty k = 1.089252
        11        18        22        21     9      180.000000        0.699806         2    ;  uncertainty k = 0.973188
        11        18        22        21     9        0.000000        2.265726         3    ;  uncertainty k = 0.479934
        11        18        22        21     9      180.000000       -1.705008         4    ;  uncertainty k = 0.384237
        11        18        22        54     9        0.000000       -2.507565         1    ;  uncertainty k = 1.392526
        11        18        22        54     9      180.000000       -0.064910         2    ;  uncertainty k = 0.466805
        11        18        22        54     9        0.000000        1.243317         3    ;  uncertainty k = 0.217719
        11        18        22        54     9      180.000000       -0.274757         4    ;  uncertainty k = 0.163796
        11        18        22        55     9        0.000000       -2.507565         1    ;  uncertainty k = 1.392526
        11        18        22        55     9      180.000000       -0.064910         2    ;  uncertainty k = 0.466805
        11        18        22        55     9        0.000000        1.243317         3    ;  uncertainty k = 0.217719
        11        18        22        55     9      180.000000       -0.274757         4    ;  uncertainty k = 0.163796
        11        19        20        50     9        0.000000       -1.226081         1    ;  uncertainty k = 2.151708
        11        19        20        50     9      180.000000       -0.881111         2    ;  uncertainty k = 0.372613
        11        19        20        50     9        0.000000        0.771595         3    ;  uncertainty k = 0.306670
        11        19        20        50     9      180.000000       -0.188527         4    ;  uncertainty k = 0.228071
        11        19        20        51     9        0.000000       -1.226081         1    ;  uncertainty k = 2.151708
        11        19        20        51     9      180.000000       -0.881111         2    ;  uncertainty k = 0.372613
        11        19        20        51     9        0.000000        0.771595         3    ;  uncertainty k = 0.306670
        11        19        20        51     9      180.000000       -0.188527         4    ;  uncertainty k = 0.228071
        11        19        21        22     9        0.000000        0.189331         1    ;  uncertainty k = 1.089252
        11        19        21        22     9      180.000000        0.699806         2    ;  uncertainty k = 0.973188
        11        19        21        22     9        0.000000        2.265726         3    ;  uncertainty k = 0.479934
        11        19        21        22     9      180.000000       -1.705008         4    ;  uncertainty k = 0.384237
        11        19        21        52     9        0.000000       -2.507565         1    ;  uncertainty k = 1.392526
        11        19        21        52     9      180.000000       -0.064910         2    ;  uncertainty k = 0.466805
        11        19        21        52     9        0.000000        1.243317         3    ;  uncertainty k = 0.217719
        11        19        21        52     9      180.000000       -0.274757         4    ;  uncertainty k = 0.163796
        11        19        21        53     9        0.000000       -2.507565         1    ;  uncertainty k = 1.392526
        11        19        21        53     9      180.000000       -0.064910         2    ;  uncertainty k = 0.466805
        11        19        21        53     9        0.000000        1.243317         3    ;  uncertainty k = 0.217719
        11        19        21        53     9      180.000000       -0.274757         4    ;  uncertainty k = 0.163796
        12         7        10        42     9        0.000000        0.112902         1    ;  uncertainty k = 0.849213
        12         7        10        42     9      180.000000       17.212269         2    ;  uncertainty k = 0.646514
        12         7        10        42     9        0.000000        2.053653         3    ;  uncertainty k = 0.338074
        12         7        10        42     9      180.000000        1.594091         4    ;  uncertainty k = 0.351910
        12        15        23        24     9        0.000000        0.062072         1    ;  uncertainty k = 0.374807
        12        15        23        24     9      180.000000       11.511152         2    ;  uncertainty k = 0.479728
        12        15        23        24     9        0.000000        1.214400         3    ;  uncertainty k = 0.211389
        12        15        23        24     9      180.000000        1.769588         4    ;  uncertainty k = 0.404807
        12        15        23        56     9        0.000000       -0.022084         1    ;  uncertainty k = 0.404078
        12        15        23        56     9      180.000000        9.012382         2    ;  uncertainty k = 0.311512
        12        15        23        56     9        0.000000        0.982873         3    ;  uncertainty k = 0.197479
        12        15        23        56     9      180.000000        1.505001         4    ;  uncertainty k = 0.338318
        12        15        27        26     9        0.000000        0.095884         1    ;  uncertainty k = 0.863438
        12        15        27        26     9      180.000000        5.761775         2    ;  uncertainty k = 0.727931
        12        15        27        26     9        0.000000        1.290798         3    ;  uncertainty k = 0.459729
        12        15        27        26     9      180.000000        1.322577         4    ;  uncertainty k = 0.187048
        12        15        27        31     9        0.000000       -0.140248         1    ;  uncertainty k = 0.956549
        12        15        27        31     9      180.000000        5.749423         2    ;  uncertainty k = 0.806769
        12        15        27        31     9        0.000000        1.610486         3    ;  uncertainty k = 0.662797
        12        15        27        31     9      180.000000        1.039932         4    ;  uncertainty k = 0.460538
        13        32        16        44     9        0.000000        1.296915         1    ;  uncertainty k = 0.798682
        13        32        16        44     9      180.000000       -1.381348         2    ;  uncertainty k = 0.589039
        13        32        16        44     9        0.000000        0.109914         3    ;  uncertainty k = 0.251143
        13        32        16        44     9      180.000000       -0.285130         4    ;  uncertainty k = 0.157030
        13        32        16        45     9        0.000000        1.296915         1    ;  uncertainty k = 0.798682
        13        32        16        45     9      180.000000       -1.381348         2    ;  uncertainty k = 0.589039
        13        32        16        45     9        0.000000        0.109914         3    ;  uncertainty k = 0.251143
        13        32        16        45     9      180.000000       -0.285130         4    ;  uncertainty k = 0.157030
        13        32        33        34     9        0.000000        1.700162         1    ;  uncertainty k = 2.096418
        13        32        33        34     9      180.000000        0.552038         2    ;  uncertainty k = 1.577665
        13        32        33        34     9        0.000000        0.461708         3    ;  uncertainty k = 0.554451
        13        32        33        34     9      180.000000       -0.553861         4    ;  uncertainty k = 0.431542
        13        32        33        60     9        0.000000       -0.267293         1    ;  uncertainty k = 0.830333
        13        32        33        60     9      180.000000       -1.201825         2    ;  uncertainty k = 0.491121
        13        32        33        60     9        0.000000        0.330893         3    ;  uncertainty k = 0.216506
        13        32        33        60     9      180.000000       -0.203688         4    ;  uncertainty k = 0.168190
        13        32        33        61     9        0.000000       -0.267293         1    ;  uncertainty k = 0.830333
        13        32        33        61     9      180.000000       -1.201825         2    ;  uncertainty k = 0.491121
        13        32        33        61     9        0.000000        0.330893         3    ;  uncertainty k = 0.216506
        13        32        33        61     9      180.000000       -0.203688         4    ;  uncertainty k = 0.168190
        13        32        38        37     9        0.000000        1.700162         1    ;  uncertainty k = 2.096418
        13        32        38        37     9      180.000000        0.552038         2    ;  uncertainty k = 1.577665
        13        32        38        37     9        0.000000        0.461708         3    ;  uncertainty k = 0.554451
        13        32        38        37     9      180.000000       -0.553861         4    ;  uncertainty k = 0.431542
        13        32        38        69     9        0.000000       -0.267293         1    ;  uncertainty k = 0.830333
        13        32        38        69     9      180.000000       -1.201825         2    ;  uncertainty k = 0.491121
        13        32        38        69     9        0.000000        0.330893         3    ;  uncertainty k = 0.216506
        13        32        38        69     9      180.000000       -0.203688         4    ;  uncertainty k = 0.168190
        13        32        38        70     9        0.000000       -0.267293         1    ;  uncertainty k = 0.830333
        13        32        38        70     9      180.000000       -1.201825         2    ;  uncertainty k = 0.491121
        13        32        38        70     9        0.000000        0.330893         3    ;  uncertainty k = 0.216506
        13        32        38        70     9      180.000000       -0.203688         4    ;  uncertainty k = 0.168190
        13        35        34        33     9        0.000000       -1.661464         1    ;  uncertainty k = 1.957471
        13        35        34        33     9      180.000000        1.243150         2    ;  uncertainty k = 0.993034
        13        35        34        33     9        0.000000        0.466190         3    ;  uncertainty k = 0.466740
        13        35        34        33     9      180.000000       -1.087863         4    ;  uncertainty k = 0.339750
        13        35        34        62     9        0.000000       -0.584544         1    ;  uncertainty k = 0.448076
        13        35        34        62     9      180.000000       -1.030525         2    ;  uncertainty k = 0.360338
        13        35        34        62     9        0.000000        0.672490         3    ;  uncertainty k = 0.269693
        13        35        34        62     9      180.000000        0.061588         4    ;  uncertainty k = 0.173532
        13        35        34        72     9        0.000000       -0.584544         1    ;  uncertainty k = 0.448076
        13        35        34        72     9      180.000000       -1.030525         2    ;  uncertainty k = 0.360338
        13        35        34        72     9        0.000000        0.672490         3    ;  uncertainty k = 0.269693
        13        35        34        72     9      180.000000        0.061588         4    ;  uncertainty k = 0.173532
        13        36        37        38     9        0.000000       -1.661464         1    ;  uncertainty k = 1.957471
        13        36        37        38     9      180.000000        1.243150         2    ;  uncertainty k = 0.993034
        13        36        37        38     9        0.000000        0.466190         3    ;  uncertainty k = 0.466740
        13        36        37        38     9      180.000000       -1.087863         4    ;  uncertainty k = 0.339750
        13        36        37        67     9        0.000000       -0.584544         1    ;  uncertainty k = 0.448076
        13        36        37        67     9      180.000000       -1.030525         2    ;  uncertainty k = 0.360338
        13        36        37        67     9        0.000000        0.672490         3    ;  uncertainty k = 0.269693
        13        36        37        67     9      180.000000        0.061588         4    ;  uncertainty k = 0.173532
        13        36        37        68     9        0.000000       -0.584544         1    ;  uncertainty k = 0.448076
        13        36        37        68     9      180.000000       -1.030525         2    ;  uncertainty k = 0.360338
        13        36        37        68     9        0.000000        0.672490         3    ;  uncertainty k = 0.269693
        13        36        37        68     9      180.000000        0.061588         4    ;  uncertainty k = 0.173532
        14        12        15        23     9        0.000000        0.314697         1    ;  uncertainty k = 0.906421
        14        12        15        23     9      180.000000        5.701607         2    ;  uncertainty k = 0.553362
        14        12        15        23     9        0.000000        0.447751         3    ;  uncertainty k = 0.324099
        14        12        15        23     9      180.000000        0.566468         4    ;  uncertainty k = 0.186553
        14        12        15        27     9        0.000000       -0.365089         1    ;  uncertainty k = 1.334983
        14        12        15        27     9      180.000000        5.623010         2    ;  uncertainty k = 0.471145
        14        12        15        27     9        0.000000        1.053643         3    ;  uncertainty k = 0.510059
        14        12        15        27     9      180.000000        0.484610         4    ;  uncertainty k = 0.221967
        15        12        14        40     9        0.000000        0.198335         1    ;  uncertainty k = 0.251804
        15        12        14        40     9      180.000000       10.150939         2    ;  uncertainty k = 0.475324
        15        12        14        40     9        0.000000        1.313978         3    ;  uncertainty k = 0.155025
        15        12        14        40     9      180.000000        1.466775         4    ;  uncertainty k = 0.201526
        15        23        24        25     9        0.000000        0.059592         1    ;  uncertainty k = 0.465558
        15        23        24        25     9      180.000000       10.331884         2    ;  uncertainty k = 0.596039
        15        23        24        25     9        0.000000       -0.543531         3    ;  uncertainty k = 0.472586
        15        23        24        25     9      180.000000        1.003672         4    ;  uncertainty k = 0.219130
        15        23        24        41     9        0.000000        0.308880         1    ;  uncertainty k = 0.396443
        15        23        24        41     9      180.000000        6.634414         2    ;  uncertainty k = 0.482215
        15        23        24        41     9        0.000000        1.246175         3    ;  uncertainty k = 0.217442
        15        23        24        41     9      180.000000        1.602640         4    ;  uncertainty k = 0.102084
        15        27        26        25     9        0.000000       -0.238943         1    ;  uncertainty k = 0.449619
        15        27        26        25     9      180.000000        5.316450         2    ;  uncertainty k = 0.485823
        15        27        26        25     9        0.000000        0.767892         3    ;  uncertainty k = 0.218840
        15        27        26        25     9      180.000000        1.490068         4    ;  uncertainty k = 0.203216
        15        27        26        28     9        0.000000       -0.225360         1    ;  uncertainty k = 0.465519
        15        27        26        28     9      180.000000        5.301069         2    ;  uncertainty k = 0.491642
        15        27        26        28     9        0.000000        0.779713         3    ;  uncertainty k = 0.222958
        15        27        26        28     9      180.000000        1.493545         4    ;  uncertainty k = 0.198827
        15        27        31        30     9        0.000000        0.008220         1    ;  uncertainty k = 0.929188
        15        27        31        30     9      180.000000        4.857488         2    ;  uncertainty k = 0.378356
        15        27        31        30     9        0.000000        0.889616         3    ;  uncertainty k = 0.556651
        15        27        31        30     9      180.000000        1.148038         4    ;  uncertainty k = 0.316647
        15        27        31        39     9        0.000000       -0.166454         1    ;  uncertainty k = 0.576478
        15        27        31        39     9      180.000000        6.015651         2    ;  uncertainty k = 1.149785
        15        27        31        39     9        0.000000        1.231572         3    ;  uncertainty k = 0.380211
        15        27        31        39     9      180.000000        0.926935         4    ;  uncertainty k = 0.324880
        16        32        13        35     9        0.000000       -0.730495         1    ;  uncertainty k = 1.574396
        16        32        13        35     9      180.000000        0.285392         2    ;  uncertainty k = 1.060950
        16        32        13        35     9        0.000000        0.815957         3    ;  uncertainty k = 0.135183
        16        32        13        35     9      180.000000       -0.162422         4    ;  uncertainty k = 0.169246
        16        32        13        36     9        0.000000       -0.730495         1    ;  uncertainty k = 1.574396
        16        32        13        36     9      180.000000        0.285392         2    ;  uncertainty k = 1.060950
        16        32        13        36     9        0.000000        0.815957         3    ;  uncertainty k = 0.135183
        16        32        13        36     9      180.000000       -0.162422         4    ;  uncertainty k = 0.169246
        16        32        13        74     9        0.000000        2.462625         1    ;  uncertainty k = 2.985872
        16        32        13        74     9      180.000000        1.648017         2    ;  uncertainty k = 1.399852
        16        32        13        74     9        0.000000        1.108940         3    ;  uncertainty k = 0.242833
        16        32        13        74     9      180.000000        0.400030         4    ;  uncertainty k = 0.836304
        16        32        33        34     9        0.000000       -2.608134         1    ;  uncertainty k = 1.171055
        16        32        33        34     9      180.000000        1.010503         2    ;  uncertainty k = 0.731290
        16        32        33        34     9        0.000000        0.841351         3    ;  uncertainty k = 0.235345
        16        32        33        34     9      180.000000       -0.046949         4    ;  uncertainty k = 0.326471
        16        32        33        60     9        0.000000        0.446374         1    ;  uncertainty k = 0.415548
        16        32        33        60     9      180.000000       -0.485334         2    ;  uncertainty k = 0.460621
        16        32        33        60     9        0.000000        0.551656         3    ;  uncertainty k = 0.145769
        16        32        33        60     9      180.000000       -0.190906         4    ;  uncertainty k = 0.073240
        16        32        33        61     9        0.000000        0.446374         1    ;  uncertainty k = 0.415548
        16        32        33        61     9      180.000000       -0.485334         2    ;  uncertainty k = 0.460621
        16        32        33        61     9        0.000000        0.551656         3    ;  uncertainty k = 0.145769
        16        32        33        61     9      180.000000       -0.190906         4    ;  uncertainty k = 0.073240
        16        32        38        37     9        0.000000       -2.608134         1    ;  uncertainty k = 1.171055
        16        32        38        37     9      180.000000        1.010503         2    ;  uncertainty k = 0.731290
        16        32        38        37     9        0.000000        0.841351         3    ;  uncertainty k = 0.235345
        16        32        38        37     9      180.000000       -0.046949         4    ;  uncertainty k = 0.326471
        16        32        38        69     9        0.000000        0.446374         1    ;  uncertainty k = 0.415548
        16        32        38        69     9      180.000000       -0.485334         2    ;  uncertainty k = 0.460621
        16        32        38        69     9        0.000000        0.551656         3    ;  uncertainty k = 0.145769
        16        32        38        69     9      180.000000       -0.190906         4    ;  uncertainty k = 0.073240
        16        32        38        70     9        0.000000        0.446374         1    ;  uncertainty k = 0.415548
        16        32        38        70     9      180.000000       -0.485334         2    ;  uncertainty k = 0.460621
        16        32        38        70     9        0.000000        0.551656         3    ;  uncertainty k = 0.145769
        16        32        38        70     9      180.000000       -0.190906         4    ;  uncertainty k = 0.073240
        17         9        20        19     9        0.000000        0.996296         1    ;  uncertainty k = 3.091746
        17         9        20        19     9      180.000000       -3.882568         2    ;  uncertainty k = 0.920126
        17         9        20        19     9        0.000000        0.631843         3    ;  uncertainty k = 0.319690
        17         9        20        19     9      180.000000       -0.069009         4    ;  uncertainty k = 0.224471
        17         9        20        50     9        0.000000       -4.262002         1    ;  uncertainty k = 1.361313
        17         9        20        50     9      180.000000        0.464518         2    ;  uncertainty k = 0.710044
        17         9        20        50     9        0.000000        0.955170         3    ;  uncertainty k = 0.043456
        17         9        20        50     9      180.000000       -0.070179         4    ;  uncertainty k = 0.112495
        17         9        20        51     9        0.000000       -4.262002         1    ;  uncertainty k = 1.361313
        17         9        20        51     9      180.000000        0.464518         2    ;  uncertainty k = 0.710044
        17         9        20        51     9        0.000000        0.955170         3    ;  uncertainty k = 0.043456
        17         9        20        51     9      180.000000       -0.070179         4    ;  uncertainty k = 0.112495
        17        18        11        19     9        0.000000        2.332974         1    ;  uncertainty k = 3.433745
        17        18        11        19     9      180.000000       -0.969466         2    ;  uncertainty k = 2.647801
        17        18        11        19     9        0.000000        0.669799         3    ;  uncertainty k = 0.434210
        17        18        11        19     9      180.000000       -0.707708         4    ;  uncertainty k = 0.580677
        17        18        11        43     9        0.000000        1.449081         1    ;  uncertainty k = 1.710019
        17        18        11        43     9      180.000000       -0.149483         2    ;  uncertainty k = 1.068319
        17        18        11        43     9        0.000000        0.745969         3    ;  uncertainty k = 0.389032
        17        18        11        43     9      180.000000        0.030759         4    ;  uncertainty k = 0.168263
        17        18        11        71     9        0.000000        1.449081         1    ;  uncertainty k = 1.710019
        17        18        11        71     9      180.000000       -0.149483         2    ;  uncertainty k = 1.068319
        17        18        11        71     9        0.000000        0.745969         3    ;  uncertainty k = 0.389032
        17        18        11        71     9      180.000000        0.030759         4    ;  uncertainty k = 0.168263
        17        18        22        21     9        0.000000        1.425983         1    ;  uncertainty k = 2.348979
        17        18        22        21     9      180.000000        1.085251         2    ;  uncertainty k = 1.083519
        17        18        22        21     9        0.000000        1.042528         3    ;  uncertainty k = 0.388855
        17        18        22        21     9      180.000000       -0.396419         4    ;  uncertainty k = 0.415101
        17        18        22        54     9        0.000000       -0.935670         1    ;  uncertainty k = 0.319567
        17        18        22        54     9      180.000000       -0.073400         2    ;  uncertainty k = 0.323152
        17        18        22        54     9        0.000000        0.584904         3    ;  uncertainty k = 0.288153
        17        18        22        54     9      180.000000       -0.098097         4    ;  uncertainty k = 0.050566
        17        18        22        55     9        0.000000       -0.935670         1    ;  uncertainty k = 0.319567
        17        18        22        55     9      180.000000       -0.073400         2    ;  uncertainty k = 0.323152
        17        18        22        55     9        0.000000        0.584904         3    ;  uncertainty k = 0.288153
        17        18        22        55     9      180.000000       -0.098097         4    ;  uncertainty k = 0.050566
        18        11        19        20     9        0.000000        2.332974         1    ;  uncertainty k = 3.433745
        18        11        19        20     9      180.000000       -0.969466         2    ;  uncertainty k = 2.647801
        18        11        19        20     9        0.000000        0.669799         3    ;  uncertainty k = 0.434210
        18        11        19        20     9      180.000000       -0.707708         4    ;  uncertainty k = 0.580677
        18        11        19        21     9        0.000000       -2.863884         1    ;  uncertainty k = 0.953340
        18        11        19        21     9      180.000000        5.881051         2    ;  uncertainty k = 1.496646
        18        11        19        21     9        0.000000        0.959501         3    ;  uncertainty k = 0.308106
        18        11        19        21     9      180.000000       -1.578218         4    ;  uncertainty k = 0.785949
        18        11        19        49     9        0.000000       -2.464294         1    ;  uncertainty k = 3.480424
        18        11        19        49     9      180.000000       -1.153887         2    ;  uncertainty k = 0.886333
        18        11        19        49     9        0.000000        0.163905         3    ;  uncertainty k = 0.495815
        18        11        19        49     9      180.000000       -0.156421         4    ;  uncertainty k = 0.288580
        18        17         9        20     9        0.000000        0.996296         1    ;  uncertainty k = 3.091746
        18        17         9        20     9      180.000000       -3.882568         2    ;  uncertainty k = 0.920126
        18        17         9        20     9        0.000000        0.631843         3    ;  uncertainty k = 0.319690
        18        17         9        20     9      180.000000       -0.069009         4    ;  uncertainty k = 0.224471
        18        22        21        19     9        0.000000       -2.135289         1    ;  uncertainty k = 3.339583
        18        22        21        19     9      180.000000        7.371280         2    ;  uncertainty k = 1.668222
        18        22        21        19     9        0.000000        0.556705         3    ;  uncertainty k = 0.529878
        18        22        21        19     9      180.000000       -1.870357         4    ;  uncertainty k = 0.587896
        18        22        21        52     9        0.000000       -1.534651         1    ;  uncertainty k = 0.857224
        18        22        21        52     9      180.000000        0.015553         2    ;  uncertainty k = 0.276003
        18        22        21        52     9        0.000000        0.812494         3    ;  uncertainty k = 0.034992
        18        22        21        52     9      180.000000        0.159229         4    ;  uncertainty k = 0.085386
        18        22        21        53     9        0.000000       -1.534651         1    ;  uncertainty k = 0.857224
        18        22        21        53     9      180.000000        0.015553         2    ;  uncertainty k = 0.276003
        18        22        21        53     9        0.000000        0.812494         3    ;  uncertainty k = 0.034992
        18        22        21        53     9      180.000000        0.159229         4    ;  uncertainty k = 0.085386
        19        11        18        22     9        0.000000       -2.863884         1    ;  uncertainty k = 0.953340
        19        11        18        22     9      180.000000        5.881051         2    ;  uncertainty k = 1.496646
        19        11        18        22     9        0.000000        0.959501         3    ;  uncertainty k = 0.308106
        19        11        18        22     9      180.000000       -1.578218         4    ;  uncertainty k = 0.785949
        19        11        18        48     9        0.000000       -2.464294         1    ;  uncertainty k = 3.480424
        19        11        18        48     9      180.000000       -1.153887         2    ;  uncertainty k = 0.886333
        19        11        18        48     9        0.000000        0.163905         3    ;  uncertainty k = 0.495815
        19        11        18        48     9      180.000000       -0.156421         4    ;  uncertainty k = 0.288580
        19        21        22        54     9        0.000000       -1.534651         1    ;  uncertainty k = 0.857224
        19        21        22        54     9      180.000000        0.015553         2    ;  uncertainty k = 0.276003
        19        21        22        54     9        0.000000        0.812494         3    ;  uncertainty k = 0.034992
        19        21        22        54     9      180.000000        0.159229         4    ;  uncertainty k = 0.085386
        19        21        22        55     9        0.000000       -1.534651         1    ;  uncertainty k = 0.857224
        19        21        22        55     9      180.000000        0.015553         2    ;  uncertainty k = 0.276003
        19        21        22        55     9        0.000000        0.812494         3    ;  uncertainty k = 0.034992
        19        21        22        55     9      180.000000        0.159229         4    ;  uncertainty k = 0.085386
        20         9        17        46     9        0.000000       -4.262002         1    ;  uncertainty k = 1.361313
        20         9        17        46     9      180.000000        0.464518         2    ;  uncertainty k = 0.710044
        20         9        17        46     9        0.000000        0.955170         3    ;  uncertainty k = 0.043456
        20         9        17        46     9      180.000000       -0.070179         4    ;  uncertainty k = 0.112495
        20         9        17        47     9        0.000000       -4.262002         1    ;  uncertainty k = 1.361313
        20         9        17        47     9      180.000000        0.464518         2    ;  uncertainty k = 0.710044
        20         9        17        47     9        0.000000        0.955170         3    ;  uncertainty k = 0.043456
        20         9        17        47     9      180.000000       -0.070179         4    ;  uncertainty k = 0.112495
        20        19        11        43     9        0.000000        1.449081         1    ;  uncertainty k = 1.710019
        20        19        11        43     9      180.000000       -0.149483         2    ;  uncertainty k = 1.068319
        20        19        11        43     9        0.000000        0.745969         3    ;  uncertainty k = 0.389032
        20        19        11        43     9      180.000000        0.030759         4    ;  uncertainty k = 0.168263
        20        19        11        71     9        0.000000        1.449081         1    ;  uncertainty k = 1.710019
        20        19        11        71     9      180.000000       -0.149483         2    ;  uncertainty k = 1.068319
        20        19        11        71     9        0.000000        0.745969         3    ;  uncertainty k = 0.389032
        20        19        11        71     9      180.000000        0.030759         4    ;  uncertainty k = 0.168263
        20        19        21        22     9        0.000000        1.425983         1    ;  uncertainty k = 2.348979
        20        19        21        22     9      180.000000        1.085251         2    ;  uncertainty k = 1.083519
        20        19        21        22     9        0.000000        1.042528         3    ;  uncertainty k = 0.388855
        20        19        21        22     9      180.000000       -0.396419         4    ;  uncertainty k = 0.415101
        20        19        21        52     9        0.000000       -0.935670         1    ;  uncertainty k = 0.319567
        20        19        21        52     9      180.000000       -0.073400         2    ;  uncertainty k = 0.323152
        20        19        21        52     9        0.000000        0.584904         3    ;  uncertainty k = 0.288153
        20        19        21        52     9      180.000000       -0.098097         4    ;  uncertainty k = 0.050566
        20        19        21        53     9        0.000000       -0.935670         1    ;  uncertainty k = 0.319567
        20        19        21        53     9      180.000000       -0.073400         2    ;  uncertainty k = 0.323152
        20        19        21        53     9        0.000000        0.584904         3    ;  uncertainty k = 0.288153
        20        19        21        53     9      180.000000       -0.098097         4    ;  uncertainty k = 0.050566
        21        19        11        43     9        0.000000       -1.262213         1    ;  uncertainty k = 1.005152
        21        19        11        43     9      180.000000        2.725544         2    ;  uncertainty k = 0.732836
        21        19        11        43     9        0.000000        0.844379         3    ;  uncertainty k = 0.439475
        21        19        11        43     9      180.000000       -0.092959         4    ;  uncertainty k = 0.177019
        21        19        11        71     9        0.000000       -1.262213         1    ;  uncertainty k = 1.005152
        21        19        11        71     9      180.000000        2.725544         2    ;  uncertainty k = 0.732836
        21        19        11        71     9        0.000000        0.844379         3    ;  uncertainty k = 0.439475
        21        19        11        71     9      180.000000       -0.092959         4    ;  uncertainty k = 0.177019
        21        19        20        50     9        0.000000       -1.591268         1    ;  uncertainty k = 0.965378
        21        19        20        50     9      180.000000        0.142374         2    ;  uncertainty k = 0.299069
        21        19        20        50     9        0.000000        0.343526         3    ;  uncertainty k = 0.196374
        21        19        20        50     9      180.000000       -0.030757         4    ;  uncertainty k = 0.039234
        21        19        20        51     9        0.000000       -1.591268         1    ;  uncertainty k = 0.965378
        21        19        20        51     9      180.000000        0.142374         2    ;  uncertainty k = 0.299069
        21        19        20        51     9        0.000000        0.343526         3    ;  uncertainty k = 0.196374
        21        19        20        51     9      180.000000       -0.030757         4    ;  uncertainty k = 0.039234
        21        22        18        48     9        0.000000       -0.957159         1    ;  uncertainty k = 1.390041
        21        22        18        48     9      180.000000        0.911072         2    ;  uncertainty k = 0.870353
        21        22        18        48     9        0.000000        0.472911         3    ;  uncertainty k = 0.357988
        21        22        18        48     9      180.000000       -0.015053         4    ;  uncertainty k = 0.294989
        22        18        11        43     9        0.000000       -1.262213         1    ;  uncertainty k = 1.005152
        22        18        11        43     9      180.000000        2.725544         2    ;  uncertainty k = 0.732836
        22        18        11        43     9        0.000000        0.844379         3    ;  uncertainty k = 0.439475
        22        18        11        43     9      180.000000       -0.092959         4    ;  uncertainty k = 0.177019
        22        18        11        71     9        0.000000       -1.262213         1    ;  uncertainty k = 1.005152
        22        18        11        71     9      180.000000        2.725544         2    ;  uncertainty k = 0.732836
        22        18        11        71     9        0.000000        0.844379         3    ;  uncertainty k = 0.439475
        22        18        11        71     9      180.000000       -0.092959         4    ;  uncertainty k = 0.177019
        22        18        17        46     9        0.000000       -1.591268         1    ;  uncertainty k = 0.965378
        22        18        17        46     9      180.000000        0.142374         2    ;  uncertainty k = 0.299069
        22        18        17        46     9        0.000000        0.343526         3    ;  uncertainty k = 0.196374
        22        18        17        46     9      180.000000       -0.030757         4    ;  uncertainty k = 0.039234
        22        18        17        47     9        0.000000       -1.591268         1    ;  uncertainty k = 0.965378
        22        18        17        47     9      180.000000        0.142374         2    ;  uncertainty k = 0.299069
        22        18        17        47     9        0.000000        0.343526         3    ;  uncertainty k = 0.196374
        22        18        17        47     9      180.000000       -0.030757         4    ;  uncertainty k = 0.039234
        22        21        19        49     9        0.000000       -0.957159         1    ;  uncertainty k = 1.390041
        22        21        19        49     9      180.000000        0.911072         2    ;  uncertainty k = 0.870353
        22        21        19        49     9        0.000000        0.472911         3    ;  uncertainty k = 0.357988
        22        21        19        49     9      180.000000       -0.015053         4    ;  uncertainty k = 0.294989
        23        15        27        26     9        0.000000       -0.037869         1    ;  uncertainty k = 0.735123
        23        15        27        26     9      180.000000        6.368013         2    ;  uncertainty k = 0.598131
        23        15        27        26     9        0.000000        0.316485         3    ;  uncertainty k = 0.508025
        23        15        27        26     9      180.000000        1.087366         4    ;  uncertainty k = 0.227667
        23        15        27        31     9        0.000000        0.526651         1    ;  uncertainty k = 1.003883
        23        15        27        31     9      180.000000        5.946182         2    ;  uncertainty k = 0.549638
        23        15        27        31     9        0.000000        0.881011         3    ;  uncertainty k = 0.651939
        23        15        27        31     9      180.000000        0.953845         4    ;  uncertainty k = 0.362604
        23        24        25        26     9        0.000000        0.068645         1    ;  uncertainty k = 0.376578
        23        24        25        26     9      180.000000       15.899345         2    ;  uncertainty k = 0.178586
        23        24        25        26     9        0.000000       -0.498041         3    ;  uncertainty k = 0.490393
        23        24        25        26     9      180.000000        0.764036         4    ;  uncertainty k = 0.141966
        23        24        25        57     9        0.000000        0.187127         1    ;  uncertainty k = 0.225315
        23        24        25        57     9      180.000000        9.253211         2    ;  uncertainty k = 0.425291
        23        24        25        57     9        0.000000        1.436772         3    ;  uncertainty k = 0.319677
        23        24        25        57     9      180.000000        1.844407         4    ;  uncertainty k = 0.257008
        24        23        15        27     9        0.000000       -0.079392         1    ;  uncertainty k = 0.587094
        24        23        15        27     9      180.000000       12.825734         2    ;  uncertainty k = 0.611165
        24        23        15        27     9        0.000000        0.723163         3    ;  uncertainty k = 0.471052
        24        23        15        27     9      180.000000        1.214753         4    ;  uncertainty k = 0.527722
        24        25        26        27     9        0.000000        0.126533         1    ;  uncertainty k = 0.239009
        24        25        26        27     9      180.000000        9.541420         2    ;  uncertainty k = 0.529339
        24        25        26        27     9        0.000000       -0.001873         3    ;  uncertainty k = 0.185332
        24        25        26        27     9      180.000000        1.266099         4    ;  uncertainty k = 0.135879
        24        25        26        28     9        0.000000       -0.177788         1    ;  uncertainty k = 0.300346
        24        25        26        28     9      180.000000        9.718704         2    ;  uncertainty k = 0.418753
        24        25        26        28     9        0.000000        0.460597         3    ;  uncertainty k = 0.306961
        24        25        26        28     9      180.000000        1.417944         4    ;  uncertainty k = 0.145926
        25        24        23        56     9        0.000000        0.018937         1    ;  uncertainty k = 0.297840
        25        24        23        56     9      180.000000        6.754314         2    ;  uncertainty k = 0.390362
        25        24        23        56     9        0.000000        1.230091         3    ;  uncertainty k = 0.219290
        25        24        23        56     9      180.000000        1.623683         4    ;  uncertainty k = 0.152465
        25        26        27        31     9        0.000000       -0.358979         1    ;  uncertainty k = 0.386404
        25        26        27        31     9      180.000000        5.599497         2    ;  uncertainty k = 0.527404
        25        26        27        31     9        0.000000        0.671723         3    ;  uncertainty k = 0.490256
        25        26        27        31     9      180.000000        1.460840         4    ;  uncertainty k = 0.227372
        25        26        28        29     9        0.000000       -0.191700         1    ;  uncertainty k = 0.378766
        25        26        28        29     9      180.000000        9.600351         2    ;  uncertainty k = 0.456213
        25        26        28        29     9        0.000000        0.434048         3    ;  uncertainty k = 0.384075
        25        26        28        29     9      180.000000        1.432396         4    ;  uncertainty k = 0.124340
        25        26        28        58     9        0.000000       -0.068264         1    ;  uncertainty k = 0.262141
        25        26        28        58     9      180.000000        6.947176         2    ;  uncertainty k = 0.431817
        25        26        28        58     9        0.000000        1.120631         3    ;  uncertainty k = 0.256145
        25        26        28        58     9      180.000000        1.255886         4    ;  uncertainty k = 0.062876
        26        25        24        41     9        0.000000        0.334149         1    ;  uncertainty k = 0.343953
        26        25        24        41     9      180.000000       10.128075         2    ;  uncertainty k = 0.262995
        26        25        24        41     9        0.000000        1.508493         3    ;  uncertainty k = 0.325743
        26        25        24        41     9      180.000000        1.741905         4    ;  uncertainty k = 0.171862
        26        27        31        30     9        0.000000        0.009233         1    ;  uncertainty k = 1.143659
        26        27        31        30     9      180.000000        5.624888         2    ;  uncertainty k = 0.310453
        26        27        31        30     9        0.000000        0.328085         3    ;  uncertainty k = 0.304791
        26        27        31        30     9      180.000000        1.125986         4    ;  uncertainty k = 0.267815
        26        27        31        39     9        0.000000        0.254728         1    ;  uncertainty k = 0.443451
        26        27        31        39     9      180.000000        6.627400         2    ;  uncertainty k = 0.741972
        26        27        31        39     9        0.000000        1.385188         3    ;  uncertainty k = 0.215234
        26        27        31        39     9      180.000000        1.010223         4    ;  uncertainty k = 0.127116
        26        28        29        30     9        0.000000        0.100493         1    ;  uncertainty k = 0.280243
        26        28        29        30     9      180.000000       16.203365         2    ;  uncertainty k = 0.206097
        26        28        29        30     9        0.000000       -0.465690         3    ;  uncertainty k = 0.305368
        26        28        29        30     9      180.000000        0.765459         4    ;  uncertainty k = 0.180877
        26        28        29        59     9        0.000000        0.376671         1    ;  uncertainty k = 0.309347
        26        28        29        59     9      180.000000       10.144096         2    ;  uncertainty k = 0.267101
        26        28        29        59     9        0.000000        1.539023         3    ;  uncertainty k = 0.303180
        26        28        29        59     9      180.000000        1.748925         4    ;  uncertainty k = 0.199127
        27        15        23        56     9        0.000000        0.156304         1    ;  uncertainty k = 0.425867
        27        15        23        56     9      180.000000        9.775176         2    ;  uncertainty k = 0.551522
        27        15        23        56     9        0.000000        1.359065         3    ;  uncertainty k = 0.224875
        27        15        23        56     9      180.000000        1.627742         4    ;  uncertainty k = 0.359074
        27        26        25        57     9        0.000000        0.080263         1    ;  uncertainty k = 0.403422
        27        26        25        57     9      180.000000        6.398256         2    ;  uncertainty k = 0.497692
        27        26        25        57     9        0.000000        1.161028         3    ;  uncertainty k = 0.282894
        27        26        25        57     9      180.000000        1.305735         4    ;  uncertainty k = 0.236571
        27        26        28        29     9        0.000000        0.050974         1    ;  uncertainty k = 0.213336
        27        26        28        29     9      180.000000        9.479099         2    ;  uncertainty k = 0.553301
        27        26        28        29     9        0.000000        0.015725         3    ;  uncertainty k = 0.200620
        27        26        28        29     9      180.000000        1.251238         4    ;  uncertainty k = 0.129064
        27        26        28        58     9        0.000000        0.095583         1    ;  uncertainty k = 0.405947
        27        26        28        58     9      180.000000        6.361868         2    ;  uncertainty k = 0.481907
        27        26        28        58     9        0.000000        1.163690         3    ;  uncertainty k = 0.279576
        27        26        28        58     9      180.000000        1.307736         4    ;  uncertainty k = 0.236113
        27        31        30        29     9        0.000000        0.094891         1    ;  uncertainty k = 0.403080
        27        31        30        29     9      180.000000       10.730016         2    ;  uncertainty k = 0.579178
        27        31        30        29     9        0.000000        0.634060         3    ;  uncertainty k = 0.373054
        27        31        30        29     9      180.000000        1.353675         4    ;  uncertainty k = 0.311900
        27        31        30        73     9        0.000000        0.363830         1    ;  uncertainty k = 0.406007
        27        31        30        73     9      180.000000        7.973985         2    ;  uncertainty k = 0.426263
        27        31        30        73     9        0.000000        1.451479         3    ;  uncertainty k = 0.218710
        27        31        30        73     9      180.000000        1.696668         4    ;  uncertainty k = 0.285684
        28        26        25        57     9        0.000000       -0.059674         1    ;  uncertainty k = 0.224370
        28        26        25        57     9      180.000000        6.957164         2    ;  uncertainty k = 0.408490
        28        26        25        57     9        0.000000        1.126654         3    ;  uncertainty k = 0.252215
        28        26        25        57     9      180.000000        1.256005         4    ;  uncertainty k = 0.066927
        28        26        27        31     9        0.000000       -0.358284         1    ;  uncertainty k = 0.419053
        28        26        27        31     9      180.000000        5.577207         2    ;  uncertainty k = 0.537393
        28        26        27        31     9        0.000000        0.683498         3    ;  uncertainty k = 0.489951
        28        26        27        31     9      180.000000        1.463095         4    ;  uncertainty k = 0.227854
        28        29        30        31     9        0.000000       -0.087766         1    ;  uncertainty k = 0.229116
        28        29        30        31     9      180.000000       11.275092         2    ;  uncertainty k = 0.481007
        28        29        30        31     9        0.000000       -0.715454         3    ;  uncertainty k = 0.654433
        28        29        30        31     9      180.000000        0.867992         4    ;  uncertainty k = 0.200443
        28        29        30        73     9        0.000000        0.041731         1    ;  uncertainty k = 0.427454
        28        29        30        73     9      180.000000        6.864288         2    ;  uncertainty k = 0.539745
        28        29        30        73     9        0.000000        1.311968         3    ;  uncertainty k = 0.311643
        28        29        30        73     9      180.000000        1.556696         4    ;  uncertainty k = 0.160276
        29        30        31        39     9        0.000000        0.013342         1    ;  uncertainty k = 0.343424
        29        30        31        39     9      180.000000       11.972202         2    ;  uncertainty k = 0.539915
        29        30        31        39     9        0.000000        1.417304         3    ;  uncertainty k = 0.247313
        29        30        31        39     9      180.000000        1.681673         4    ;  uncertainty k = 0.307678
        30        29        28        58     9        0.000000        0.131408         1    ;  uncertainty k = 0.094048
        30        29        28        58     9      180.000000        9.596418         2    ;  uncertainty k = 0.449514
        30        29        28        58     9        0.000000        1.440661         3    ;  uncertainty k = 0.374395
        30        29        28        58     9      180.000000        1.874298         4    ;  uncertainty k = 0.252514
        31        30        29        59     9        0.000000        0.068949         1    ;  uncertainty k = 0.418782
        31        30        29        59     9      180.000000        6.852282         2    ;  uncertainty k = 0.390725
        31        30        29        59     9        0.000000        1.504143         3    ;  uncertainty k = 0.267197
        31        30        29        59     9      180.000000        1.589524         4    ;  uncertainty k = 0.144451
        32        13        35        34     9        0.000000       -2.305976         1    ;  uncertainty k = 2.388748
        32        13        35        34     9      180.000000        4.439079         2    ;  uncertainty k = 2.471416
        32        13        35        34     9        0.000000        0.501351         3    ;  uncertainty k = 0.309408
        32        13        35        34     9      180.000000       -0.857600         4    ;  uncertainty k = 0.488396
        32        13        35        63     9        0.000000        0.068397         1    ;  uncertainty k = 1.132160
        32        13        35        63     9      180.000000       -0.295828         2    ;  uncertainty k = 0.684953
        32        13        35        63     9        0.000000        0.491954         3    ;  uncertainty k = 0.227620
        32        13        35        63     9      180.000000       -0.080514         4    ;  uncertainty k = 0.064590
        32        13        35        64     9        0.000000        0.068397         1    ;  uncertainty k = 1.132160
        32        13        35        64     9      180.000000       -0.295828         2    ;  uncertainty k = 0.684953
        32        13        35        64     9        0.000000        0.491954         3    ;  uncertainty k = 0.227620
        32        13        35        64     9      180.000000       -0.080514         4    ;  uncertainty k = 0.064590
        32        13        36        37     9        0.000000       -2.305976         1    ;  uncertainty k = 2.388748
        32        13        36        37     9      180.000000        4.439079         2    ;  uncertainty k = 2.471416
        32        13        36        37     9        0.000000        0.501351         3    ;  uncertainty k = 0.309408
        32        13        36        37     9      180.000000       -0.857600         4    ;  uncertainty k = 0.488396
        32        13        36        65     9        0.000000        0.068397         1    ;  uncertainty k = 1.132160
        32        13        36        65     9      180.000000       -0.295828         2    ;  uncertainty k = 0.684953
        32        13        36        65     9        0.000000        0.491954         3    ;  uncertainty k = 0.227620
        32        13        36        65     9      180.000000       -0.080514         4    ;  uncertainty k = 0.064590
        32        13        36        66     9        0.000000        0.068397         1    ;  uncertainty k = 1.132160
        32        13        36        66     9      180.000000       -0.295828         2    ;  uncertainty k = 0.684953
        32        13        36        66     9        0.000000        0.491954         3    ;  uncertainty k = 0.227620
        32        13        36        66     9      180.000000       -0.080514         4    ;  uncertainty k = 0.064590
        32        33        34        35     9        0.000000       -0.834033         1    ;  uncertainty k = 1.343098
        32        33        34        35     9      180.000000        5.403804         2    ;  uncertainty k = 1.550433
        32        33        34        35     9        0.000000        0.160200         3    ;  uncertainty k = 0.413252
        32        33        34        35     9      180.000000       -1.757966         4    ;  uncertainty k = 0.609943
        32        33        34        62     9        0.000000       -0.291178         1    ;  uncertainty k = 0.465089
        32        33        34        62     9      180.000000       -0.529593         2    ;  uncertainty k = 0.404860
        32        33        34        62     9        0.000000        0.377551         3    ;  uncertainty k = 0.217926
        32        33        34        62     9      180.000000        0.133460         4    ;  uncertainty k = 0.085808
        32        33        34        72     9        0.000000       -0.291178         1    ;  uncertainty k = 0.465089
        32        33        34        72     9      180.000000       -0.529593         2    ;  uncertainty k = 0.404860
        32        33        34        72     9        0.000000        0.377551         3    ;  uncertainty k = 0.217926
        32        33        34        72     9      180.000000        0.133460         4    ;  uncertainty k = 0.085808
        32        38        37        36     9        0.000000       -0.834033         1    ;  uncertainty k = 1.343098
        32        38        37        36     9      180.000000        5.403804         2    ;  uncertainty k = 1.550433
        32        38        37        36     9        0.000000        0.160200         3    ;  uncertainty k = 0.413252
        32        38        37        36     9      180.000000       -1.757966         4    ;  uncertainty k = 0.609943
        32        38        37        67     9        0.000000       -0.291178         1    ;  uncertainty k = 0.465089
        32        38        37        67     9      180.000000       -0.529593         2    ;  uncertainty k = 0.404860
        32        38        37        67     9        0.000000        0.377551         3    ;  uncertainty k = 0.217926
        32        38        37        67     9      180.000000        0.133460         4    ;  uncertainty k = 0.085808
        32        38        37        68     9        0.000000       -0.291178         1    ;  uncertainty k = 0.465089
        32        38        37        68     9      180.000000       -0.529593         2    ;  uncertainty k = 0.404860
        32        38        37        68     9        0.000000        0.377551         3    ;  uncertainty k = 0.217926
        32        38        37        68     9      180.000000        0.133460         4    ;  uncertainty k = 0.085808
        33        32        13        35     9        0.000000       -3.479318         1    ;  uncertainty k = 2.649633
        33        32        13        35     9      180.000000        1.461847         2    ;  uncertainty k = 1.391922
        33        32        13        35     9        0.000000        0.838010         3    ;  uncertainty k = 0.131881
        33        32        13        35     9      180.000000       -0.436626         4    ;  uncertainty k = 0.378349
        33        32        13        36     9        0.000000       -3.479318         1    ;  uncertainty k = 2.649633
        33        32        13        36     9      180.000000        1.461847         2    ;  uncertainty k = 1.391922
        33        32        13        36     9        0.000000        0.838010         3    ;  uncertainty k = 0.131881
        33        32        13        36     9      180.000000       -0.436626         4    ;  uncertainty k = 0.378349
        33        32        13        74     9        0.000000       -5.742804         1    ;  uncertainty k = 5.711673
        33        32        13        74     9      180.000000        4.044215         2    ;  uncertainty k = 1.697562
        33        32        13        74     9        0.000000        1.676895         3    ;  uncertainty k = 0.503564
        33        32        13        74     9      180.000000        0.136352         4    ;  uncertainty k = 0.597819
        33        32        16        44     9        0.000000       -1.047441         1    ;  uncertainty k = 0.411045
        33        32        16        44     9      180.000000        0.084497         2    ;  uncertainty k = 0.132139
        33        32        16        44     9        0.000000        0.189606         3    ;  uncertainty k = 0.104560
        33        32        16        44     9      180.000000       -0.190605         4    ;  uncertainty k = 0.078465
        33        32        16        45     9        0.000000       -1.047441         1    ;  uncertainty k = 0.411045
        33        32        16        45     9      180.000000        0.084497         2    ;  uncertainty k = 0.132139
        33        32        16        45     9        0.000000        0.189606         3    ;  uncertainty k = 0.104560
        33        32        16        45     9      180.000000       -0.190605         4    ;  uncertainty k = 0.078465
        33        32        38        37     9        0.000000       -3.127768         1    ;  uncertainty k = 1.225328
        33        32        38        37     9      180.000000        1.571341         2    ;  uncertainty k = 0.654314
        33        32        38        37     9        0.000000        0.801924         3    ;  uncertainty k = 0.205809
        33        32        38        37     9      180.000000       -0.134670         4    ;  uncertainty k = 0.193388
        33        32        38        69     9        0.000000       -0.521766         1    ;  uncertainty k = 0.368513
        33        32        38        69     9      180.000000       -0.073004         2    ;  uncertainty k = 0.320846
        33        32        38        69     9        0.000000        0.501841         3    ;  uncertainty k = 0.100582
        33        32        38        69     9      180.000000       -0.022954         4    ;  uncertainty k = 0.060090
        33        32        38        70     9        0.000000       -0.521766         1    ;  uncertainty k = 0.368513
        33        32        38        70     9      180.000000       -0.073004         2    ;  uncertainty k = 0.320846
        33        32        38        70     9        0.000000        0.501841         3    ;  uncertainty k = 0.100582
        33        32        38        70     9      180.000000       -0.022954         4    ;  uncertainty k = 0.060090
        33        34        35        63     9        0.000000       -0.664665         1    ;  uncertainty k = 0.273599
        33        34        35        63     9      180.000000       -0.345043         2    ;  uncertainty k = 0.305248
        33        34        35        63     9        0.000000        0.362528         3    ;  uncertainty k = 0.145980
        33        34        35        63     9      180.000000        0.111160         4    ;  uncertainty k = 0.092794
        33        34        35        64     9        0.000000       -0.664665         1    ;  uncertainty k = 0.273599
        33        34        35        64     9      180.000000       -0.345043         2    ;  uncertainty k = 0.305248
        33        34        35        64     9        0.000000        0.362528         3    ;  uncertainty k = 0.145980
        33        34        35        64     9      180.000000        0.111160         4    ;  uncertainty k = 0.092794
        34        33        32        38     9        0.000000       -3.127768         1    ;  uncertainty k = 1.225328
        34        33        32        38     9      180.000000        1.571341         2    ;  uncertainty k = 0.654314
        34        33        32        38     9        0.000000        0.801924         3    ;  uncertainty k = 0.205809
        34        33        32        38     9      180.000000       -0.134670         4    ;  uncertainty k = 0.193388
        34        35        13        36     9        0.000000       -3.007593         1    ;  uncertainty k = 2.410041
        34        35        13        36     9      180.000000        1.492864         2    ;  uncertainty k = 0.861268
        34        35        13        36     9        0.000000        1.131093         3    ;  uncertainty k = 0.191739
        34        35        13        36     9      180.000000       -0.211269         4    ;  uncertainty k = 0.168100
        34        35        13        74     9        0.000000       -8.951560         1    ;  uncertainty k = 1.647464
        34        35        13        74     9      180.000000        4.714213         2    ;  uncertainty k = 0.563775
        34        35        13        74     9        0.000000        2.252136         3    ;  uncertainty k = 0.635516
        34        35        13        74     9      180.000000        0.290592         4    ;  uncertainty k = 0.266176
        35        13        32        38     9        0.000000       -3.479318         1    ;  uncertainty k = 2.649633
        35        13        32        38     9      180.000000        1.461847         2    ;  uncertainty k = 1.391922
        35        13        32        38     9        0.000000        0.838010         3    ;  uncertainty k = 0.131881
        35        13        32        38     9      180.000000       -0.436626         4    ;  uncertainty k = 0.378349
        35        13        36        37     9        0.000000       -3.007593         1    ;  uncertainty k = 2.410041
        35        13        36        37     9      180.000000        1.492864         2    ;  uncertainty k = 0.861268
        35        13        36        37     9        0.000000        1.131093         3    ;  uncertainty k = 0.191739
        35        13        36        37     9      180.000000       -0.211269         4    ;  uncertainty k = 0.168100
        35        13        36        65     9        0.000000       -0.055159         1    ;  uncertainty k = 0.636084
        35        13        36        65     9      180.000000       -0.576956         2    ;  uncertainty k = 0.194507
        35        13        36        65     9        0.000000        1.072219         3    ;  uncertainty k = 0.144175
        35        13        36        65     9      180.000000       -0.013444         4    ;  uncertainty k = 0.065040
        35        13        36        66     9        0.000000       -0.055159         1    ;  uncertainty k = 0.636084
        35        13        36        66     9      180.000000       -0.576956         2    ;  uncertainty k = 0.194507
        35        13        36        66     9        0.000000        1.072219         3    ;  uncertainty k = 0.144175
        35        13        36        66     9      180.000000       -0.013444         4    ;  uncertainty k = 0.065040
        35        34        33        60     9        0.000000       -1.429714         1    ;  uncertainty k = 0.176551
        35        34        33        60     9      180.000000        0.079802         2    ;  uncertainty k = 0.341910
        35        34        33        60     9        0.000000        0.789859         3    ;  uncertainty k = 0.063926
        35        34        33        60     9      180.000000        0.186862         4    ;  uncertainty k = 0.039611
        35        34        33        61     9        0.000000       -1.429714         1    ;  uncertainty k = 0.176551
        35        34        33        61     9      180.000000        0.079802         2    ;  uncertainty k = 0.341910
        35        34        33        61     9        0.000000        0.789859         3    ;  uncertainty k = 0.063926
        35        34        33        61     9      180.000000        0.186862         4    ;  uncertainty k = 0.039611
        36        13        32        38     9        0.000000       -3.479318         1    ;  uncertainty k = 2.649633
        36        13        32        38     9      180.000000        1.461847         2    ;  uncertainty k = 1.391922
        36        13        32        38     9        0.000000        0.838010         3    ;  uncertainty k = 0.131881
        36        13        32        38     9      180.000000       -0.436626         4    ;  uncertainty k = 0.378349
        36        13        35        63     9        0.000000       -0.055159         1    ;  uncertainty k = 0.636084
        36        13        35        63     9      180.000000       -0.576956         2    ;  uncertainty k = 0.194507
        36        13        35        63     9        0.000000        1.072219         3    ;  uncertainty k = 0.144175
        36        13        35        63     9      180.000000       -0.013444         4    ;  uncertainty k = 0.065040
        36        13        35        64     9        0.000000       -0.055159         1    ;  uncertainty k = 0.636084
        36        13        35        64     9      180.000000       -0.576956         2    ;  uncertainty k = 0.194507
        36        13        35        64     9        0.000000        1.072219         3    ;  uncertainty k = 0.144175
        36        13        35        64     9      180.000000       -0.013444         4    ;  uncertainty k = 0.065040
        36        37        38        69     9        0.000000       -1.429714         1    ;  uncertainty k = 0.176551
        36        37        38        69     9      180.000000        0.079802         2    ;  uncertainty k = 0.341910
        36        37        38        69     9        0.000000        0.789859         3    ;  uncertainty k = 0.063926
        36        37        38        69     9      180.000000        0.186862         4    ;  uncertainty k = 0.039611
        36        37        38        70     9        0.000000       -1.429714         1    ;  uncertainty k = 0.176551
        36        37        38        70     9      180.000000        0.079802         2    ;  uncertainty k = 0.341910
        36        37        38        70     9        0.000000        0.789859         3    ;  uncertainty k = 0.063926
        36        37        38        70     9      180.000000        0.186862         4    ;  uncertainty k = 0.039611
        37        36        13        74     9        0.000000       -8.951560         1    ;  uncertainty k = 1.647464
        37        36        13        74     9      180.000000        4.714213         2    ;  uncertainty k = 0.563775
        37        36        13        74     9        0.000000        2.252136         3    ;  uncertainty k = 0.635516
        37        36        13        74     9      180.000000        0.290592         4    ;  uncertainty k = 0.266176
        38        32        13        74     9        0.000000       -5.742804         1    ;  uncertainty k = 5.711673
        38        32        13        74     9      180.000000        4.044215         2    ;  uncertainty k = 1.697562
        38        32        13        74     9        0.000000        1.676895         3    ;  uncertainty k = 0.503564
        38        32        13        74     9      180.000000        0.136352         4    ;  uncertainty k = 0.597819
        38        32        16        44     9        0.000000       -1.047441         1    ;  uncertainty k = 0.411045
        38        32        16        44     9      180.000000        0.084497         2    ;  uncertainty k = 0.132139
        38        32        16        44     9        0.000000        0.189606         3    ;  uncertainty k = 0.104560
        38        32        16        44     9      180.000000       -0.190605         4    ;  uncertainty k = 0.078465
        38        32        16        45     9        0.000000       -1.047441         1    ;  uncertainty k = 0.411045
        38        32        16        45     9      180.000000        0.084497         2    ;  uncertainty k = 0.132139
        38        32        16        45     9        0.000000        0.189606         3    ;  uncertainty k = 0.104560
        38        32        16        45     9      180.000000       -0.190605         4    ;  uncertainty k = 0.078465
        38        32        33        60     9        0.000000       -0.521766         1    ;  uncertainty k = 0.368513
        38        32        33        60     9      180.000000       -0.073004         2    ;  uncertainty k = 0.320846
        38        32        33        60     9        0.000000        0.501841         3    ;  uncertainty k = 0.100582
        38        32        33        60     9      180.000000       -0.022954         4    ;  uncertainty k = 0.060090
        38        32        33        61     9        0.000000       -0.521766         1    ;  uncertainty k = 0.368513
        38        32        33        61     9      180.000000       -0.073004         2    ;  uncertainty k = 0.320846
        38        32        33        61     9        0.000000        0.501841         3    ;  uncertainty k = 0.100582
        38        32        33        61     9      180.000000       -0.022954         4    ;  uncertainty k = 0.060090
        38        37        36        65     9        0.000000       -0.664665         1    ;  uncertainty k = 0.273599
        38        37        36        65     9      180.000000       -0.345043         2    ;  uncertainty k = 0.305248
        38        37        36        65     9        0.000000        0.362528         3    ;  uncertainty k = 0.145980
        38        37        36        65     9      180.000000        0.111160         4    ;  uncertainty k = 0.092794
        38        37        36        66     9        0.000000       -0.664665         1    ;  uncertainty k = 0.273599
        38        37        36        66     9      180.000000       -0.345043         2    ;  uncertainty k = 0.305248
        38        37        36        66     9        0.000000        0.362528         3    ;  uncertainty k = 0.145980
        38        37        36        66     9      180.000000        0.111160         4    ;  uncertainty k = 0.092794
        39        31        30        73     9        0.000000       -0.173492         1    ;  uncertainty k = 0.461173
        39        31        30        73     9      180.000000        9.388094         2    ;  uncertainty k = 0.451083
        39        31        30        73     9        0.000000        0.887202         3    ;  uncertainty k = 0.201645
        39        31        30        73     9      180.000000        1.218855         4    ;  uncertainty k = 0.408130
        41        24        23        56     9        0.000000       -0.125373         1    ;  uncertainty k = 0.186767
        41        24        23        56     9      180.000000        7.325167         2    ;  uncertainty k = 0.387426
        41        24        23        56     9        0.000000       -0.408943         3    ;  uncertainty k = 0.333507
        41        24        23        56     9      180.000000        0.165228         4    ;  uncertainty k = 0.148714
        41        24        25        57     9        0.000000        0.009466         1    ;  uncertainty k = 0.143163
        41        24        25        57     9      180.000000        8.861651         2    ;  uncertainty k = 0.266133
        41        24        25        57     9        0.000000       -0.265239         3    ;  uncertainty k = 0.248793
        41        24        25        57     9      180.000000        0.226348         4    ;  uncertainty k = 0.230636
        43        11        18        48     9        0.000000       -1.423010         1    ;  uncertainty k = 0.616460
        43        11        18        48     9      180.000000        1.515703         2    ;  uncertainty k = 1.087822
        43        11        18        48     9        0.000000        0.256622         3    ;  uncertainty k = 0.208318
        43        11        18        48     9      180.000000       -0.095640         4    ;  uncertainty k = 0.130121
        43        11        19        49     9        0.000000       -1.423010         1    ;  uncertainty k = 0.616460
        43        11        19        49     9      180.000000        1.515703         2    ;  uncertainty k = 1.087822
        43        11        19        49     9        0.000000        0.256622         3    ;  uncertainty k = 0.208318
        43        11        19        49     9      180.000000       -0.095640         4    ;  uncertainty k = 0.130121
        46        17        18        48     9        0.000000       -0.439454         1    ;  uncertainty k = 0.906270
        46        17        18        48     9      180.000000        0.487195         2    ;  uncertainty k = 0.479541
        46        17        18        48     9        0.000000        0.253527         3    ;  uncertainty k = 0.175912
        46        17        18        48     9      180.000000       -0.139844         4    ;  uncertainty k = 0.167927
        47        17        18        48     9        0.000000       -0.439454         1    ;  uncertainty k = 0.906270
        47        17        18        48     9      180.000000        0.487195         2    ;  uncertainty k = 0.479541
        47        17        18        48     9        0.000000        0.253527         3    ;  uncertainty k = 0.175912
        47        17        18        48     9      180.000000       -0.139844         4    ;  uncertainty k = 0.167927
        48        18        11        71     9        0.000000       -1.423010         1    ;  uncertainty k = 0.616460
        48        18        11        71     9      180.000000        1.515703         2    ;  uncertainty k = 1.087822
        48        18        11        71     9        0.000000        0.256622         3    ;  uncertainty k = 0.208318
        48        18        11        71     9      180.000000       -0.095640         4    ;  uncertainty k = 0.130121
        48        18        22        54     9        0.000000        1.228961         1    ;  uncertainty k = 0.553312
        48        18        22        54     9      180.000000       -0.001863         2    ;  uncertainty k = 0.239275
        48        18        22        54     9        0.000000        0.353228         3    ;  uncertainty k = 0.286862
        48        18        22        54     9      180.000000        0.045306         4    ;  uncertainty k = 0.112735
        48        18        22        55     9        0.000000        1.228961         1    ;  uncertainty k = 0.553312
        48        18        22        55     9      180.000000       -0.001863         2    ;  uncertainty k = 0.239275
        48        18        22        55     9        0.000000        0.353228         3    ;  uncertainty k = 0.286862
        48        18        22        55     9      180.000000        0.045306         4    ;  uncertainty k = 0.112735
        49        19        11        71     9        0.000000       -1.423010         1    ;  uncertainty k = 0.616460
        49        19        11        71     9      180.000000        1.515703         2    ;  uncertainty k = 1.087822
        49        19        11        71     9        0.000000        0.256622         3    ;  uncertainty k = 0.208318
        49        19        11        71     9      180.000000       -0.095640         4    ;  uncertainty k = 0.130121
        49        19        20        50     9        0.000000       -0.439454         1    ;  uncertainty k = 0.906270
        49        19        20        50     9      180.000000        0.487195         2    ;  uncertainty k = 0.479541
        49        19        20        50     9        0.000000        0.253527         3    ;  uncertainty k = 0.175912
        49        19        20        50     9      180.000000       -0.139844         4    ;  uncertainty k = 0.167927
        49        19        20        51     9        0.000000       -0.439454         1    ;  uncertainty k = 0.906270
        49        19        20        51     9      180.000000        0.487195         2    ;  uncertainty k = 0.479541
        49        19        20        51     9        0.000000        0.253527         3    ;  uncertainty k = 0.175912
        49        19        20        51     9      180.000000       -0.139844         4    ;  uncertainty k = 0.167927
        49        19        21        52     9        0.000000        1.228961         1    ;  uncertainty k = 0.553312
        49        19        21        52     9      180.000000       -0.001863         2    ;  uncertainty k = 0.239275
        49        19        21        52     9        0.000000        0.353228         3    ;  uncertainty k = 0.286862
        49        19        21        52     9      180.000000        0.045306         4    ;  uncertainty k = 0.112735
        49        19        21        53     9        0.000000        1.228961         1    ;  uncertainty k = 0.553312
        49        19        21        53     9      180.000000       -0.001863         2    ;  uncertainty k = 0.239275
        49        19        21        53     9        0.000000        0.353228         3    ;  uncertainty k = 0.286862
        49        19        21        53     9      180.000000        0.045306         4    ;  uncertainty k = 0.112735
        52        21        22        54     9        0.000000        1.361375         1    ;  uncertainty k = 0.592307
        52        21        22        54     9      180.000000       -0.075431         2    ;  uncertainty k = 0.471152
        52        21        22        54     9        0.000000        1.070581         3    ;  uncertainty k = 0.228523
        52        21        22        54     9      180.000000        0.077192         4    ;  uncertainty k = 0.031932
        52        21        22        55     9        0.000000        1.361375         1    ;  uncertainty k = 0.592307
        52        21        22        55     9      180.000000       -0.075431         2    ;  uncertainty k = 0.471152
        52        21        22        55     9        0.000000        1.070581         3    ;  uncertainty k = 0.228523
        52        21        22        55     9      180.000000        0.077192         4    ;  uncertainty k = 0.031932
        53        21        22        54     9        0.000000        1.361375         1    ;  uncertainty k = 0.592307
        53        21        22        54     9      180.000000       -0.075431         2    ;  uncertainty k = 0.471152
        53        21        22        54     9        0.000000        1.070581         3    ;  uncertainty k = 0.228523
        53        21        22        54     9      180.000000        0.077192         4    ;  uncertainty k = 0.031932
        53        21        22        55     9        0.000000        1.361375         1    ;  uncertainty k = 0.592307
        53        21        22        55     9      180.000000       -0.075431         2    ;  uncertainty k = 0.471152
        53        21        22        55     9        0.000000        1.070581         3    ;  uncertainty k = 0.228523
        53        21        22        55     9      180.000000        0.077192         4    ;  uncertainty k = 0.031932
        58        28        29        59     9        0.000000        0.099881         1    ;  uncertainty k = 0.135127
        58        28        29        59     9      180.000000        8.843153         2    ;  uncertainty k = 0.367062
        58        28        29        59     9        0.000000       -0.252905         3    ;  uncertainty k = 0.242238
        58        28        29        59     9      180.000000        0.222505         4    ;  uncertainty k = 0.213799
        59        29        30        73     9        0.000000       -0.042784         1    ;  uncertainty k = 0.229985
        59        29        30        73     9      180.000000        7.242182         2    ;  uncertainty k = 0.435658
        59        29        30        73     9        0.000000       -0.328526         3    ;  uncertainty k = 0.260058
        59        29        30        73     9      180.000000        0.134322         4    ;  uncertainty k = 0.152635
        60        33        34        62     9        0.000000        1.368234         1    ;  uncertainty k = 0.427682
        60        33        34        62     9      180.000000       -0.021431         2    ;  uncertainty k = 0.133706
        60        33        34        62     9        0.000000        0.799913         3    ;  uncertainty k = 0.145117
        60        33        34        62     9      180.000000        0.053445         4    ;  uncertainty k = 0.043829
        60        33        34        72     9        0.000000        1.368234         1    ;  uncertainty k = 0.427682
        60        33        34        72     9      180.000000       -0.021431         2    ;  uncertainty k = 0.133706
        60        33        34        72     9        0.000000        0.799913         3    ;  uncertainty k = 0.145117
        60        33        34        72     9      180.000000        0.053445         4    ;  uncertainty k = 0.043829
        61        33        34        62     9        0.000000        1.368234         1    ;  uncertainty k = 0.427682
        61        33        34        62     9      180.000000       -0.021431         2    ;  uncertainty k = 0.133706
        61        33        34        62     9        0.000000        0.799913         3    ;  uncertainty k = 0.145117
        61        33        34        62     9      180.000000        0.053445         4    ;  uncertainty k = 0.043829
        61        33        34        72     9        0.000000        1.368234         1    ;  uncertainty k = 0.427682
        61        33        34        72     9      180.000000       -0.021431         2    ;  uncertainty k = 0.133706
        61        33        34        72     9        0.000000        0.799913         3    ;  uncertainty k = 0.145117
        61        33        34        72     9      180.000000        0.053445         4    ;  uncertainty k = 0.043829
        62        34        35        63     9        0.000000        0.712082         1    ;  uncertainty k = 0.495640
        62        34        35        63     9      180.000000       -0.212025         2    ;  uncertainty k = 0.229512
        62        34        35        63     9        0.000000        0.467202         3    ;  uncertainty k = 0.187503
        62        34        35        63     9      180.000000        0.015767         4    ;  uncertainty k = 0.037380
        62        34        35        64     9        0.000000        0.712082         1    ;  uncertainty k = 0.495640
        62        34        35        64     9      180.000000       -0.212025         2    ;  uncertainty k = 0.229512
        62        34        35        64     9        0.000000        0.467202         3    ;  uncertainty k = 0.187503
        62        34        35        64     9      180.000000        0.015767         4    ;  uncertainty k = 0.037380
        63        35        13        74     9        0.000000        2.400035         1    ;  uncertainty k = 1.172293
        63        35        13        74     9      180.000000        1.376190         2    ;  uncertainty k = 0.726096
        63        35        13        74     9        0.000000        2.159460         3    ;  uncertainty k = 0.249776
        63        35        13        74     9      180.000000        0.268707         4    ;  uncertainty k = 0.058462
        63        35        34        72     9        0.000000        0.712082         1    ;  uncertainty k = 0.495640
        63        35        34        72     9      180.000000       -0.212025         2    ;  uncertainty k = 0.229512
        63        35        34        72     9        0.000000        0.467202         3    ;  uncertainty k = 0.187503
        63        35        34        72     9      180.000000        0.015767         4    ;  uncertainty k = 0.037380
        64        35        13        74     9        0.000000        2.400035         1    ;  uncertainty k = 1.172293
        64        35        13        74     9      180.000000        1.376190         2    ;  uncertainty k = 0.726096
        64        35        13        74     9        0.000000        2.159460         3    ;  uncertainty k = 0.249776
        64        35        13        74     9      180.000000        0.268707         4    ;  uncertainty k = 0.058462
        64        35        34        72     9        0.000000        0.712082         1    ;  uncertainty k = 0.495640
        64        35        34        72     9      180.000000       -0.212025         2    ;  uncertainty k = 0.229512
        64        35        34        72     9        0.000000        0.467202         3    ;  uncertainty k = 0.187503
        64        35        34        72     9      180.000000        0.015767         4    ;  uncertainty k = 0.037380
        65        36        13        74     9        0.000000        2.400035         1    ;  uncertainty k = 1.172293
        65        36        13        74     9      180.000000        1.376190         2    ;  uncertainty k = 0.726096
        65        36        13        74     9        0.000000        2.159460         3    ;  uncertainty k = 0.249776
        65        36        13        74     9      180.000000        0.268707         4    ;  uncertainty k = 0.058462
        65        36        37        67     9        0.000000        0.712082         1    ;  uncertainty k = 0.495640
        65        36        37        67     9      180.000000       -0.212025         2    ;  uncertainty k = 0.229512
        65        36        37        67     9        0.000000        0.467202         3    ;  uncertainty k = 0.187503
        65        36        37        67     9      180.000000        0.015767         4    ;  uncertainty k = 0.037380
        65        36        37        68     9        0.000000        0.712082         1    ;  uncertainty k = 0.495640
        65        36        37        68     9      180.000000       -0.212025         2    ;  uncertainty k = 0.229512
        65        36        37        68     9        0.000000        0.467202         3    ;  uncertainty k = 0.187503
        65        36        37        68     9      180.000000        0.015767         4    ;  uncertainty k = 0.037380
        66        36        13        74     9        0.000000        2.400035         1    ;  uncertainty k = 1.172293
        66        36        13        74     9      180.000000        1.376190         2    ;  uncertainty k = 0.726096
        66        36        13        74     9        0.000000        2.159460         3    ;  uncertainty k = 0.249776
        66        36        13        74     9      180.000000        0.268707         4    ;  uncertainty k = 0.058462
        66        36        37        67     9        0.000000        0.712081         1    ;  uncertainty k = 0.495640
        66        36        37        67     9      180.000000       -0.212025         2    ;  uncertainty k = 0.229512
        66        36        37        67     9        0.000000        0.467202         3    ;  uncertainty k = 0.187503
        66        36        37        67     9      180.000000        0.015767         4    ;  uncertainty k = 0.037380
        66        36        37        68     9        0.000000        0.712081         1    ;  uncertainty k = 0.495640
        66        36        37        68     9      180.000000       -0.212025         2    ;  uncertainty k = 0.229512
        66        36        37        68     9        0.000000        0.467202         3    ;  uncertainty k = 0.187503
        66        36        37        68     9      180.000000        0.015767         4    ;  uncertainty k = 0.037380
        67        37        38        69     9        0.000000        1.368234         1    ;  uncertainty k = 0.427682
        67        37        38        69     9      180.000000       -0.021431         2    ;  uncertainty k = 0.133706
        67        37        38        69     9        0.000000        0.799913         3    ;  uncertainty k = 0.145117
        67        37        38        69     9      180.000000        0.053445         4    ;  uncertainty k = 0.043829
        67        37        38        70     9        0.000000        1.368234         1    ;  uncertainty k = 0.427682
        67        37        38        70     9      180.000000       -0.021431         2    ;  uncertainty k = 0.133706
        67        37        38        70     9        0.000000        0.799913         3    ;  uncertainty k = 0.145117
        67        37        38        70     9      180.000000        0.053445         4    ;  uncertainty k = 0.043829
        68        37        38        69     9        0.000000        1.368234         1    ;  uncertainty k = 0.427682
        68        37        38        69     9      180.000000       -0.021431         2    ;  uncertainty k = 0.133706
        68        37        38        69     9        0.000000        0.799913         3    ;  uncertainty k = 0.145117
        68        37        38        69     9      180.000000        0.053445         4    ;  uncertainty k = 0.043829
        68        37        38        70     9        0.000000        1.368234         1    ;  uncertainty k = 0.427682
        68        37        38        70     9      180.000000       -0.021431         2    ;  uncertainty k = 0.133706
        68        37        38        70     9        0.000000        0.799913         3    ;  uncertainty k = 0.145117
        68        37        38        70     9      180.000000        0.053445         4    ;  uncertainty k = 0.043829

[ dihedrals ] ; impropers
;       ai        aj        ak        al funct           phase               k        pn
         1         4         8        10     4      180.000000        6.148938         2    ;  uncertainty k = 0.251367
         1         8        10         4     4      180.000000        6.148938         2    ;  uncertainty k = 0.251367
         1        10         4         8     4      180.000000        6.148938         2    ;  uncertainty k = 0.251367
         4         1         2        14     4      180.000000       18.928695         2    ;  uncertainty k = 0.136217
         4         2        14         1     4      180.000000       18.928695         2    ;  uncertainty k = 0.136217
         4        14         1         2     4      180.000000       18.928695         2    ;  uncertainty k = 0.136217
         6         2         3         5     4      180.000000       40.836094         2    ;  uncertainty k = 0.081746
         6         3         5         2     4      180.000000       40.836094         2    ;  uncertainty k = 0.081746
         6         5         2         3     4      180.000000       40.836094         2    ;  uncertainty k = 0.081746
         8         1         5         9     4      180.000000       34.127777         2    ;  uncertainty k = 0.152435
         8         5         9         1     4      180.000000       34.127777         2    ;  uncertainty k = 0.152435
         8         9         1         5     4      180.000000       34.127777         2    ;  uncertainty k = 0.152435
        10         1         7        42     4      180.000000       14.739565         2    ;  uncertainty k = 0.105740
        10         7        42         1     4      180.000000       14.739565         2    ;  uncertainty k = 0.105740
        10        42         1         7     4      180.000000       14.739565         2    ;  uncertainty k = 0.105740
        12         7        14        15     4      180.000000       22.332152         2    ;  uncertainty k = 0.035711
        12        14        15         7     4      180.000000       22.332152         2    ;  uncertainty k = 0.035711
        12        15         7        14     4      180.000000       22.332152         2    ;  uncertainty k = 0.035711
        14         4        12        40     4      180.000000       13.298037         2    ;  uncertainty k = 0.188341
        14        12        40         4     4      180.000000       13.298037         2    ;  uncertainty k = 0.188341
        14        40         4        12     4      180.000000       13.298037         2    ;  uncertainty k = 0.188341
        15        12        23        27     4      180.000000       14.770230         2    ;  uncertainty k = 0.224493
        15        23        27        12     4      180.000000       14.770230         2    ;  uncertainty k = 0.224493
        15        27        12        23     4      180.000000       14.770230         2    ;  uncertainty k = 0.224493
        23        15        24        56     4      180.000000        4.067087         2    ;  uncertainty k = 0.296969
        23        24        56        15     4      180.000000        4.067087         2    ;  uncertainty k = 0.296969
        23        56        15        24     4      180.000000        4.067087         2    ;  uncertainty k = 0.296969
        24        23        25        41     4      180.000000        3.791285         2    ;  uncertainty k = 0.150360
        24        25        41        23     4      180.000000        3.791285         2    ;  uncertainty k = 0.150360
        24        41        23        25     4      180.000000        3.791285         2    ;  uncertainty k = 0.150360
        25        24        26        57     4      180.000000        4.113683         2    ;  uncertainty k = 0.148892
        25        26        57        24     4      180.000000        4.113683         2    ;  uncertainty k = 0.148892
        25        57        24        26     4      180.000000        4.113683         2    ;  uncertainty k = 0.148892
        26        25        27        28     4      180.000000       10.223904         2    ;  uncertainty k = 0.356306
        26        27        28        25     4      180.000000       10.223904         2    ;  uncertainty k = 0.356306
        26        28        25        27     4      180.000000       10.223904         2    ;  uncertainty k = 0.356306
        27        15        26        31     4      180.000000       14.145536         2    ;  uncertainty k = 0.173183
        27        26        31        15     4      180.000000       14.145536         2    ;  uncertainty k = 0.173183
        27        31        15        26     4      180.000000       14.145536         2    ;  uncertainty k = 0.173183
        28        26        29        58     4      180.000000        3.712634         2    ;  uncertainty k = 0.154089
        28        29        58        26     4      180.000000        3.712634         2    ;  uncertainty k = 0.154089
        28        58        26        29     4      180.000000        3.712634         2    ;  uncertainty k = 0.154089
        29        28        30        59     4      180.000000        4.166121         2    ;  uncertainty k = 0.072413
        29        30        59        28     4      180.000000        4.166121         2    ;  uncertainty k = 0.072413
        29        59        28        30     4      180.000000        4.166121         2    ;  uncertainty k = 0.072413
        30        29        31        73     4      180.000000        3.338631         2    ;  uncertainty k = 0.339097
        30        31        73        29     4      180.000000        3.338631         2    ;  uncertainty k = 0.339097
        30        73        29        31     4      180.000000        3.338631         2    ;  uncertainty k = 0.339097
        31        27        30        39     4      180.000000       15.264935         2    ;  uncertainty k = 0.148278
        31        30        39        27     4      180.000000       15.264935         2    ;  uncertainty k = 0.148278
        31        39        27        30     4      180.000000       15.264935         2    ;  uncertainty k = 0.148278

[ pairs ]
;       ai        aj funct
         1         6     1
         1        12     1
         1        17     1
         1        20     1
         1        40     1
         2         8     1
         2        10     1
         2        12     1
         2        16     1
         2        40     1
         3         4     1
         3         8     1
         3        13     1
         3        33     1
         3        38     1
         4         5     1
         4         7     1
         4         9     1
         4        15     1
         4        42     1
         5        10     1
         5        16     1
         5        17     1
         5        20     1
         6         9     1
         6        14     1
         6        32     1
         6        44     1
         6        45     1
         7         8     1
         7        23     1
         7        27     1
         7        40     1
         8        14     1
         8        18     1
         8        19     1
         8        42     1
         8        46     1
         8        47     1
         8        50     1
         8        51     1
         9        10     1
         9        11     1
         9        21     1
         9        22     1
         9        48     1
         9        49     1
        10        14     1
        10        15     1
        11        46     1
        11        47     1
        11        50     1
        11        51     1
        11        52     1
        11        53     1
        11        54     1
        11        55     1
        12        24     1
        12        26     1
        12        31     1
        12        42     1
        12        56     1
        13        44     1
        13        45     1
        13        60     1
        13        61     1
        13        62     1
        13        67     1
        13        68     1
        13        69     1
        13        70     1
        13        72     1
        14        23     1
        14        27     1
        15        25     1
        15        28     1
        15        30     1
        15        39     1
        15        40     1
        15        41     1
        16        34     1
        16        35     1
        16        36     1
        16        37     1
        16        60     1
        16        61     1
        16        69     1
        16        70     1
        16        74     1
        17        19     1
        17        21     1
        17        43     1
        17        50     1
        17        51     1
        17        54     1
        17        55     1
        17        71     1
        18        20     1
        18        49     1
        18        52     1
        18        53     1
        19        48     1
        19        54     1
        19        55     1
        20        22     1
        20        43     1
        20        46     1
        20        47     1
        20        52     1
        20        53     1
        20        71     1
        21        43     1
        21        48     1
        21        50     1
        21        51     1
        21        71     1
        22        43     1
        22        46     1
        22        47     1
        22        49     1
        22        71     1
        23        26     1
        23        31     1
        23        57     1
        24        27     1
        24        28     1
        25        29     1
        25        31     1
        25        56     1
        25        58     1
        26        30     1
        26        39     1
        26        41     1
        26        59     1
        27        29     1
        27        56     1
        27        57     1
        27        58     1
        27        73     1
        28        31     1
        28        57     1
        28        73     1
        29        39     1
        30        58     1
        31        59     1
        32        62     1
        32        63     1
        32        64     1
        32        65     1
        32        66     1
        32        67     1
        32        68     1
        32        72     1
        33        36     1
        33        37     1
        33        44     1
        33        45     1
        33        63     1
        33        64     1
        33        69     1
        33        70     1
        33        74     1
        34        36     1
        34        38     1
        34        74     1
        35        37     1
        35        38     1
        35        60     1
        35        61     1
        35        65     1
        35        66     1
        36        63     1
        36        64     1
        36        69     1
        36        70     1
        37        74     1
        38        44     1
        38        45     1
        38        60     1
        38        61     1
        38        65     1
        38        66     1
        38        74     1
        39        73     1
        41        56     1
        41        57     1
        43        48     1
        43        49     1
        46        48     1
        47        48     1
        48        54     1
        48        55     1
        48        71     1
        49        50     1
        49        51     1
        49        52     1
        49        53     1
        49        71     1
        52        54     1
        52        55     1
        53        54     1
        53        55     1
        58        59     1
        59        73     1
        60        62     1
        60        72     1
        61        62     1
        61        72     1
        62        63     1
        62        64     1
        63        72     1
        63        74     1
        64        72     1
        64        74     1
        65        67     1
        65        68     1
        65        74     1
        66        67     1
        66        68     1
        66        74     1
        67        69     1
        67        70     1
        68        69     1
        68        70     1
