Generated by PDBParser (exclude clash < 1.000 A)
501
    1SOL     OW    1   4.203  -0.612   3.965
    1SOL    HW1    2   4.129  -0.544   3.971
    1SOL    HW2    3   4.189  -0.681   4.036
    2SOL     OW    4   4.770  -0.242   3.776
    2SOL    HW1    5   4.864  -0.277   3.783
    2SOL    HW2    6   4.763  -0.156   3.826
    3SOL     OW    7   3.991  -0.398   3.958
    3SOL    HW1    8   3.966  -0.327   3.892
    3SOL    HW2    9   3.921  -0.405   4.029
    4SOL     OW   10   4.550   0.204   3.904
    4SOL    HW1   11   4.457   0.180   3.875
    4SOL    HW2   12   4.546   0.280   3.969
    5SOL     OW   13   4.384   0.534   4.143
    5SOL    HW1   14   4.416   0.626   4.120
    5SOL    HW2   15   4.285   0.537   4.159
    6SOL     OW   16   3.752   0.566   3.887
    6SOL    HW1   17   3.801   0.534   3.969
    6SOL    HW2   18   3.715   0.487   3.837
    7SOL     OW   19   3.801   0.109   3.694
    7SOL    HW1   20   3.768   0.015   3.708
    7SOL    HW2   21   3.725   0.173   3.709
    8SOL     OW   22   4.250   0.922   4.123
    8SOL    HW1   23   4.346   0.895   4.111
    8SOL    HW2   24   4.192   0.862   4.068
    9SOL     OW   25   3.658   1.340   3.419
    9SOL    HW1   26   3.568   1.319   3.459
    9SOL    HW2   27   3.719   1.261   3.430
   10SOL     OW   28   3.978   0.211   2.616
   10SOL    HW1   29   3.923   0.141   2.661
   10SOL    HW2   30   4.029   0.262   2.686
   11SOL     OW   31   3.612   0.351   3.711
   11SOL    HW1   32   3.520   0.319   3.735
   11SOL    HW2   33   3.617   0.367   3.613
   12SOL     OW   34   5.482   0.270   3.229
   12SOL    HW1   35   5.401   0.235   3.181
   12SOL    HW2   36   5.557   0.280   3.163
   13SOL     OW   37   5.101   0.171   3.391
   13SOL    HW1   38   5.181   0.180   3.330
   13SOL    HW2   39   5.126   0.200   3.483
   14SOL     OW   40   4.777   1.036   2.551
   14SOL    HW1   41   4.739   1.017   2.641
   14SOL    HW2   42   4.830   0.956   2.519
   15SOL     OW   43   4.339   0.690   2.681
   15SOL    HW1   44   4.259   0.631   2.691
   15SOL    HW2   45   4.417   0.650   2.730
   16SOL     OW   46   4.463   1.406   2.526
   16SOL    HW1   47   4.491   1.338   2.459
   16SOL    HW2   48   4.397   1.469   2.484
   17SOL     OW   49   4.268   1.597   2.409
   17SOL    HW1   50   4.176   1.558   2.403
   17SOL    HW2   51   4.264   1.682   2.462
   18SOL     OW   52   4.046   1.364   2.220
   18SOL    HW1   53   4.068   1.357   2.318
   18SOL    HW2   54   4.026   1.273   2.184
   19SOL     OW   55   3.441   1.957   2.281
   19SOL    HW1   56   3.532   1.968   2.320
   19SOL    HW2   57   3.406   2.046   2.251
   20SOL     OW   58   3.604   2.142   2.570
   20SOL    HW1   59   3.626   2.061   2.517
   20SOL    HW2   60   3.678   2.162   2.634
   21SOL     OW   61   3.492   1.560   2.027
   21SOL    HW1   62   3.440   1.600   2.102
   21SOL    HW2   63   3.548   1.485   2.062
   22SOL     OW   64   3.815   2.442   2.648
   22SOL    HW1   65   3.845   2.347   2.647
   22SOL    HW2   66   3.770   2.464   2.562
   23SOL     OW   67   4.212   1.942   2.284
   23SOL    HW1   68   4.251   1.910   2.370
   23SOL    HW2   69   4.285   1.951   2.216
   24SOL     OW   70   4.685   1.618   2.541
   24SOL    HW1   71   4.618   1.544   2.535
   24SOL    HW2   72   4.760   1.600   2.477
   25SOL     OW   73   3.333   2.270   2.203
   25SOL    HW1   74   3.360   2.311   2.290
   25SOL    HW2   75   3.318   2.343   2.135
   26SOL     OW   76   5.060   2.019   3.414
   26SOL    HW1   77   5.159   2.033   3.403
   26SOL    HW2   78   5.011   2.098   3.375
   27SOL     OW   79   3.230   2.639   3.295
   27SOL    HW1   80   3.222   2.586   3.379
   27SOL    HW2   81   3.198   2.584   3.218
   28SOL     OW   82   4.663   1.583   3.944
   28SOL    HW1   83   4.688   1.568   4.040
   28SOL    HW2   84   4.566   1.563   3.931
   29SOL     OW   85   4.807   1.779   3.763
   29SOL    HW1   86   4.763   1.712   3.823
   29SOL    HW2   87   4.754   1.864   3.762
   30SOL     OW   88   5.080   1.760   3.639
   30SOL    HW1   89   4.990   1.759   3.683
   30SOL    HW2   90   5.095   1.849   3.597
   31SOL     OW   91   4.952   0.850   3.018
   31SOL    HW1   92   4.929   0.911   3.094
   31SOL    HW2   93   5.040   0.804   3.036
   32SOL     OW   94   4.273   1.123   3.147
   32SOL    HW1   95   4.340   1.194   3.171
   32SOL    HW2   96   4.254   1.127   3.049
   33SOL     OW   97   5.275   0.774   3.795
   33SOL    HW1   98   5.315   0.823   3.717
   33SOL    HW2   99   5.346   0.723   3.843
   34SOL     OW  100   4.018   2.998   3.038
   34SOL    HW1  101   3.995   2.921   3.097
   34SOL    HW2  102   4.093   3.051   3.079
   35SOL     OW  103   3.423   2.381   2.468
   35SOL    HW1  104   3.481   2.308   2.505
   35SOL    HW2  105   3.393   2.441   2.542
   36SOL     OW  106   3.443   2.836   3.207
   36SOL    HW1  107   3.377   2.768   3.240
   36SOL    HW2  108   3.452   2.909   3.275
   37SOL     OW  109   3.135   2.467   3.075
   37SOL    HW1  110   3.060   2.416   3.118
   37SOL    HW2  111   3.187   2.406   3.015
   38SOL     OW  112   3.176   2.263   3.694
   38SOL    HW1  113   3.114   2.329   3.651
   38SOL    HW2  114   3.207   2.300   3.782
   39SOL     OW  115   3.130   2.907   3.421
   39SOL    HW1  116   3.164   2.843   3.352
   39SOL    HW2  117   3.086   2.985   3.376
   40SOL     OW  118   1.681   1.254   4.019
   40SOL    HW1  119   1.601   1.229   4.073
   40SOL    HW2  120   1.686   1.354   4.012
   41SOL     OW  121   0.878   2.311   3.882
   41SOL    HW1  122   0.959   2.371   3.888
   41SOL    HW2  123   0.818   2.329   3.959
   42SOL     OW  124   1.456   2.487   3.571
   42SOL    HW1  125   1.417   2.401   3.539
   42SOL    HW2  126   1.545   2.469   3.615
   43SOL     OW  127   2.275   2.591   4.070
   43SOL    HW1  128   2.314   2.632   3.987
   43SOL    HW2  129   2.306   2.497   4.078
   44SOL     OW  130   2.261   1.780   3.542
   44SOL    HW1  131   2.289   1.871   3.510
   44SOL    HW2  132   2.185   1.790   3.606
   45SOL     OW  133   2.002   2.568   3.017
   45SOL    HW1  134   2.073   2.600   2.956
   45SOL    HW2  135   1.916   2.615   2.996
   46SOL     OW  136   2.202   1.726   3.249
   46SOL    HW1  137   2.208   1.720   3.349
   46SOL    HW2  138   2.148   1.648   3.214
   47SOL     OW  139   2.157   2.571   2.676
   47SOL    HW1  140   2.113   2.490   2.637
   47SOL    HW2  141   2.241   2.543   2.724
   48SOL     OW  142   3.434   2.377   1.766
   48SOL    HW1  143   3.484   2.454   1.726
   48SOL    HW2  144   3.498   2.302   1.785
   49SOL     OW  145   2.072   1.440   2.205
   49SOL    HW1  146   1.978   1.462   2.179
   49SOL    HW2  147   2.073   1.360   2.264
   50SOL     OW  148   3.109   1.731   2.216
   50SOL    HW1  149   3.049   1.719   2.296
   50SOL    HW2  150   3.098   1.824   2.181
   51SOL     OW  151   3.189   2.357   1.573
   51SOL    HW1  152   3.139   2.292   1.630
   51SOL    HW2  153   3.275   2.382   1.618
   52SOL     OW  154   3.291   2.494   2.001
   52SOL    HW1  155   3.341   2.462   1.920
   52SOL    HW2  156   3.296   2.594   2.007
   53SOL     OW  157   3.130   3.117   1.925
   53SOL    HW1  158   3.174   3.034   1.889
   53SOL    HW2  159   3.097   3.172   1.849
   54SOL     OW  160   0.834   1.244   2.003
   54SOL    HW1  161   0.844   1.303   1.923
   54SOL    HW2  162   0.876   1.288   2.083
   55SOL     OW  163   3.424   0.498   1.772
   55SOL    HW1  164   3.329   0.466   1.762
   55SOL    HW2  165   3.436   0.582   1.718
   56SOL     OW  166   4.034  -0.175   1.853
   56SOL    HW1  167   3.950  -0.196   1.904
   56SOL    HW2  168   4.111  -0.219   1.898
   57SOL     OW  169   1.582   2.727   1.090
   57SOL    HW1  170   1.526   2.664   1.145
   57SOL    HW2  171   1.550   2.726   0.995
   58SOL     OW  172   1.546   2.398   0.900
   58SOL    HW1  173   1.556   2.314   0.953
   58SOL    HW2  174   1.636   2.427   0.866
   59SOL     OW  175   1.615   2.566   2.539
   59SOL    HW1  176   1.658   2.566   2.449
   59SOL    HW2  177   1.684   2.549   2.609
   60SOL     OW  178   1.183   3.202   2.725
   60SOL    HW1  179   1.178   3.132   2.654
   60SOL    HW2  180   1.108   3.268   2.713
   61SOL     OW  181   1.494   3.086   3.125
   61SOL    HW1  182   1.560   3.152   3.088
   61SOL    HW2  183   1.491   3.094   3.225
   62SOL     OW  184   1.813   2.519   2.745
   62SOL    HW1  185   1.775   2.524   2.838
   62SOL    HW2  186   1.893   2.459   2.745
   63SOL     OW  187   1.829   3.085   3.373
   63SOL    HW1  188   1.902   3.078   3.305
   63SOL    HW2  189   1.816   3.181   3.397
   64SOL     OW  190   1.483   3.025   3.533
   64SOL    HW1  191   1.582   3.039   3.529
   64SOL    HW2  192   1.436   3.114   3.530
   65SOL     OW  193   2.480  -0.345   2.877
   65SOL    HW1  194   2.568  -0.362   2.833
   65SOL    HW2  195   2.483  -0.259   2.927
   66SOL     OW  196   1.967   3.703   2.574
   66SOL    HW1  197   1.946   3.616   2.530
   66SOL    HW2  198   2.014   3.686   2.661
   67SOL     OW  199   2.099   3.177   1.330
   67SOL    HW1  200   2.188   3.184   1.376
   67SOL    HW2  201   2.075   3.265   1.290
   68SOL     OW  202   1.956   2.020   0.506
   68SOL    HW1  203   1.954   1.951   0.434
   68SOL    HW2  204   1.942   2.111   0.465
   69SOL     OW  205   2.658   0.434   1.161
   69SOL    HW1  206   2.730   0.459   1.226
   69SOL    HW2  207   2.658   0.335   1.148
   70SOL     OW  208   2.399   0.868   0.712
   70SOL    HW1  209   2.392   0.949   0.654
   70SOL    HW2  210   2.401   0.786   0.655
   71SOL     OW  211   1.115  -0.112   1.823
   71SOL    HW1  212   1.151  -0.027   1.784
   71SOL    HW2  213   1.187  -0.157   1.876
   72SOL     OW  214   1.615   0.414   1.917
   72SOL    HW1  215   1.569   0.397   1.829
   72SOL    HW2  216   1.570   0.492   1.962
   73SOL     OW  217   1.666  -0.142   1.077
   73SOL    HW1  218   1.714  -0.122   1.162
   73SOL    HW2  219   1.628  -0.235   1.081
   74SOL     OW  220   2.750   2.770   0.956
   74SOL    HW1  221   2.688   2.758   1.034
   74SOL    HW2  222   2.696   2.781   0.873
   75SOL     OW  223   2.820   3.220   1.093
   75SOL    HW1  224   2.741   3.159   1.078
   75SOL    HW2  225   2.878   3.219   1.012
   76SOL     OW  226   2.264   3.422   1.653
   76SOL    HW1  227   2.319   3.478   1.715
   76SOL    HW2  228   2.172   3.411   1.692
   77SOL     OW  229   3.142   2.995   2.205
   77SOL    HW1  230   3.068   2.933   2.180
   77SOL    HW2  231   3.167   3.050   2.125
   78SOL     OW  232   2.454   3.237   2.125
   78SOL    HW1  233   2.429   3.244   2.222
   78SOL    HW2  234   2.384   3.185   2.077
   79SOL     OW  235   2.712   3.669   2.075
   79SOL    HW1  236   2.753   3.578   2.086
   79SOL    HW2  237   2.773   3.727   2.022
   80SOL     OW  238   2.405   3.222   2.416
   80SOL    HW1  239   2.497   3.187   2.438
   80SOL    HW2  240   2.342   3.196   2.489
   81SOL     OW  241   2.989   3.470   2.760
   81SOL    HW1  242   3.078   3.493   2.799
   81SOL    HW2  243   2.991   3.377   2.723
   82SOL     OW  244   2.711   3.612   2.730
   82SOL    HW1  245   2.723   3.670   2.650
   82SOL    HW2  246   2.798   3.566   2.750
   83SOL     OW  247   2.778   3.442   3.146
   83SOL    HW1  248   2.812   3.410   3.235
   83SOL    HW2  249   2.854   3.481   3.094
   84SOL     OW  250   2.121   2.503   3.292
   84SOL    HW1  251   2.082   2.498   3.200
   84SOL    HW2  252   2.133   2.599   3.317
   85SOL     OW  253   3.381   1.660   2.284
   85SOL    HW1  254   3.287   1.678   2.253
   85SOL    HW2  255   3.426   1.747   2.304
   86SOL     OW  256   3.638   1.397   2.247
   86SOL    HW1  257   3.704   1.330   2.214
   86SOL    HW2  258   3.558   1.350   2.283
   87SOL     OW  259   3.468   1.087   2.028
   87SOL    HW1  260   3.418   1.023   2.087
   87SOL    HW2  261   3.434   1.079   1.934
   88SOL     OW  262   3.976   1.085   2.142
   88SOL    HW1  263   4.003   1.009   2.201
   88SOL    HW2  264   3.936   1.049   2.058
   89SOL     OW  265   3.331  -0.286   1.569
   89SOL    HW1  266   3.328  -0.377   1.612
   89SOL    HW2  267   3.297  -0.293   1.476
   90SOL     OW  268   3.006  -0.017   1.766
   90SOL    HW1  269   2.961  -0.101   1.736
   90SOL    HW2  270   2.986  -0.002   1.863
   91SOL     OW  271   3.586   0.618   1.986
   91SOL    HW1  272   3.537   0.567   1.915
   91SOL    HW2  273   3.629   0.699   1.945
   92SOL     OW  274   3.140   0.167   1.572
   92SOL    HW1  275   3.134   0.129   1.480
   92SOL    HW2  276   3.080   0.114   1.633
   93SOL     OW  277   3.736   0.362   2.163
   93SOL    HW1  278   3.784   0.378   2.249
   93SOL    HW2  279   3.787   0.406   2.089
   94SOL     OW  280   3.451  -0.234   2.233
   94SOL    HW1  281   3.365  -0.230   2.181
   94SOL    HW2  282   3.504  -0.151   2.213
   95SOL     OW  283   3.788  -0.245   2.013
   95SOL    HW1  284   3.795  -0.170   2.079
   95SOL    HW2  285   3.754  -0.327   2.060
   96SOL     OW  286   3.464  -0.195   2.561
   96SOL    HW1  287   3.482  -0.099   2.581
   96SOL    HW2  288   3.458  -0.208   2.462
   97SOL     OW  289   3.992  -0.143   2.398
   97SOL    HW1  290   3.925  -0.112   2.330
   97SOL    HW2  291   4.059  -0.071   2.413
   98SOL     OW  292   3.861   0.413   2.434
   98SOL    HW1  293   3.912   0.349   2.491
   98SOL    HW2  294   3.908   0.501   2.432
   99SOL     OW  295   2.807  -0.185   2.906
   99SOL    HW1  296   2.895  -0.138   2.908
   99SOL    HW2  297   2.804  -0.253   2.980
  100SOL     OW  298   3.191  -0.195   2.077
  100SOL    HW1  299   3.155  -0.149   2.159
  100SOL    HW2  300   3.132  -0.272   2.054
  101SOL     OW  301   3.833   0.025   2.798
  101SOL    HW1  302   3.748   0.028   2.852
  101SOL    HW2  303   3.882  -0.060   2.818
  102SOL     OW  304   3.387  -0.310   3.247
  102SOL    HW1  305   3.376  -0.210   3.243
  102SOL    HW2  306   3.482  -0.332   3.271
  103SOL     OW  307   2.462  -0.078   3.016
  103SOL    HW1  308   2.533  -0.030   3.068
  103SOL    HW2  309   2.373  -0.066   3.061
  104SOL     OW  310   3.880   0.244   3.241
  104SOL    HW1  311   3.888   0.337   3.278
  104SOL    HW2  312   3.909   0.178   3.312
  105SOL     OW  313   3.226   0.162   3.635
  105SOL    HW1  314   3.192   0.144   3.543
  105SOL    HW2  315   3.161   0.126   3.702
  106SOL     OW  316   2.526  -0.036   3.452
  106SOL    HW1  317   2.537   0.044   3.512
  106SOL    HW2  318   2.560  -0.013   3.361
  107SOL     OW  319   2.184   0.027   3.767
  107SOL    HW1  320   2.161  -0.010   3.677
  107SOL    HW2  321   2.213   0.123   3.758
  108SOL     OW  322   2.838   0.421   3.977
  108SOL    HW1  323   2.894   0.472   3.910
  108SOL    HW2  324   2.859   0.453   4.069
  109SOL     OW  325   2.602   0.678   3.872
  109SOL    HW1  326   2.516   0.729   3.869
  109SOL    HW2  327   2.679   0.740   3.854
  110SOL     OW  328   2.438   1.085   3.860
  110SOL    HW1  329   2.361   1.038   3.903
  110SOL    HW2  330   2.469   1.159   3.920
  111SOL     OW  331   1.487   1.718   2.615
  111SOL    HW1  332   1.458   1.638   2.561
  111SOL    HW2  333   1.522   1.686   2.704
  112SOL     OW  334   2.061   1.524   3.087
  112SOL    HW1  335   1.987   1.582   3.052
  112SOL    HW2  336   2.041   1.429   3.067
  113SOL     OW  337   1.006   1.818   3.189
  113SOL    HW1  338   0.935   1.843   3.123
  113SOL    HW2  339   1.094   1.856   3.159
  114SOL     OW  340   1.268   1.907   2.575
  114SOL    HW1  341   1.203   1.861   2.513
  114SOL    HW2  342   1.350   1.852   2.583
  115SOL     OW  343  -0.533   1.577   2.944
  115SOL    HW1  344  -0.446   1.540   2.977
  115SOL    HW2  345  -0.599   1.502   2.934
  116SOL     OW  346   0.844   2.209   2.570
  116SOL    HW1  347   0.888   2.140   2.513
  116SOL    HW2  348   0.832   2.173   2.663
  117SOL     OW  349   0.950   1.980   2.408
  117SOL    HW1  350   0.854   1.954   2.415
  117SOL    HW2  351   1.006   1.898   2.389
  118SOL     OW  352   0.704   2.122   3.616
  118SOL    HW1  353   0.747   2.130   3.526
  118SOL    HW2  354   0.746   2.186   3.680
  119SOL     OW  355   0.372   2.611   3.480
  119SOL    HW1  356   0.463   2.595   3.441
  119SOL    HW2  357   0.346   2.707   3.466
  120SOL     OW  358   1.384   2.764   3.648
  120SOL    HW1  359   1.424   2.838   3.594
  120SOL    HW2  360   1.406   2.676   3.605
  121SOL     OW  361   0.624   1.510   3.745
  121SOL    HW1  362   0.569   1.508   3.828
  121SOL    HW2  363   0.571   1.470   3.669
  122SOL     OW  364   2.120   0.529   3.262
  122SOL    HW1  365   2.071   0.537   3.349
  122SOL    HW2  366   2.196   0.464   3.272
  123SOL     OW  367   1.837  -0.130   3.687
  123SOL    HW1  368   1.761  -0.073   3.718
  123SOL    HW2  369   1.909  -0.072   3.649
  124SOL     OW  370   1.958  -0.200   2.840
  124SOL    HW1  371   1.869  -0.241   2.822
  124SOL    HW2  372   1.974  -0.200   2.939
  125SOL     OW  373   1.830  -0.403   3.567
  125SOL    HW1  374   1.831  -0.314   3.614
  125SOL    HW2  375   1.812  -0.475   3.633
  126SOL     OW  376   2.143  -1.052   3.192
  126SOL    HW1  377   2.143  -0.952   3.203
  126SOL    HW2  378   2.085  -1.093   3.262
  127SOL     OW  379   2.311  -0.566   3.033
  127SOL    HW1  380   2.387  -0.507   3.005
  127SOL    HW2  381   2.338  -0.620   3.113
  128SOL     OW  382   2.007  -0.600   2.076
  128SOL    HW1  383   2.040  -0.641   1.991
  128SOL    HW2  384   1.913  -0.568   2.063
  129SOL     OW  385   2.232  -0.240   2.733
  129SOL    HW1  386   2.144  -0.223   2.780
  129SOL    HW2  387   2.295  -0.284   2.797
  130SOL     OW  388   2.104  -0.924   2.017
  130SOL    HW1  389   2.096  -0.906   1.919
  130SOL    HW2  390   2.165  -1.002   2.032
  131SOL     OW  391   1.061  -0.168   2.836
  131SOL    HW1  392   1.064  -0.263   2.869
  131SOL    HW2  393   1.026  -0.167   2.742
  132SOL     OW  394   1.364  -0.717   2.191
  132SOL    HW1  395   1.280  -0.701   2.244
  132SOL    HW2  396   1.366  -0.812   2.160
  133SOL     OW  397   2.479  -0.313   2.134
  133SOL    HW1  398   2.422  -0.252   2.079
  133SOL    HW2  399   2.491  -0.400   2.085
  134SOL     OW  400   2.114  -0.712   1.629
  134SOL    HW1  401   2.104  -0.616   1.603
  134SOL    HW2  402   2.135  -0.766   1.547
  135SOL     OW  403   1.850   0.358   1.745
  135SOL    HW1  404   1.925   0.325   1.803
  135SOL    HW2  405   1.773   0.384   1.802
  136SOL     OW  406   1.604   0.039   3.785
  136SOL    HW1  407   1.580   0.094   3.705
  136SOL    HW2  408   1.647   0.097   3.854
  137SOL     OW  409   1.363  -0.064   3.932
  137SOL    HW1  410   1.445  -0.035   3.884
  137SOL    HW2  411   1.358  -0.164   3.934
  138SOL     OW  412   1.583   0.928   4.059
  138SOL    HW1  413   1.483   0.929   4.053
  138SOL    HW2  414   1.621   0.940   3.967
  139SOL     OW  415   1.128   0.451   3.408
  139SOL    HW1  416   1.062   0.421   3.339
  139SOL    HW2  417   1.091   0.529   3.458
  140SOL     OW  418   0.667   0.298   3.688
  140SOL    HW1  419   0.605   0.351   3.630
  140SOL    HW2  420   0.633   0.297   3.782
  141SOL     OW  421   1.119   0.056   4.061
  141SOL    HW1  422   1.207   0.017   4.035
  141SOL    HW2  423   1.084   0.009   4.143
  142SOL     OW  424   1.539   0.547   4.358
  142SOL    HW1  425   1.585   0.559   4.269
  142SOL    HW2  426   1.589   0.480   4.412
  143SOL     OW  427   1.439   1.203   4.187
  143SOL    HW1  428   1.352   1.169   4.149
  143SOL    HW2  429   1.473   1.138   4.255
  144SOL     OW  430   0.890   0.441   2.891
  144SOL    HW1  431   0.895   0.508   2.966
  144SOL    HW2  432   0.964   0.459   2.826
  145SOL     OW  433   2.855   0.830   3.810
  145SOL    HW1  434   2.887   0.888   3.736
  145SOL    HW2  435   2.906   0.743   3.808
  146SOL     OW  436   2.566   0.977   3.609
  146SOL    HW1  437   2.521   1.012   3.692
  146SOL    HW2  438   2.541   0.881   3.597
  147SOL     OW  439   3.315   0.936   3.913
  147SOL    HW1  440   3.226   0.891   3.899
  147SOL    HW2  441   3.331   0.951   4.010
  148SOL     OW  442   4.097   0.724   3.965
  148SOL    HW1  443   4.093   0.665   4.046
  148SOL    HW2  444   4.116   0.666   3.885
  149SOL     OW  445   3.593   0.809   3.966
  149SOL    HW1  446   3.631   0.721   3.937
  149SOL    HW2  447   3.508   0.827   3.916
  150SOL     OW  448   3.553   1.741   4.307
  150SOL    HW1  449   3.491   1.727   4.230
  150SOL    HW2  450   3.502   1.741   4.392
  151SOL     OW  451   3.177   1.280   4.000
  151SOL    HW1  452   3.160   1.223   4.080
  151SOL    HW2  453   3.193   1.375   4.030
  152SOL     OW  454   3.058   1.990   3.636
  152SOL    HW1  455   3.107   2.068   3.674
  152SOL    HW2  456   3.120   1.911   3.630
  153SOL     OW  457   3.826   1.585   3.394
  153SOL    HW1  458   3.777   1.502   3.418
  153SOL    HW2  459   3.909   1.592   3.450
  154SOL     OW  460   2.561   0.480   2.432
  154SOL    HW1  461   2.615   0.413   2.483
  154SOL    HW2  462   2.513   0.540   2.497
  155SOL     OW  463   0.651   0.343   3.029
  155SOL    HW1  464   0.587   0.318   2.957
  155SOL    HW2  465   0.736   0.378   2.988
  156SOL     OW  466   0.945  -0.114   2.562
  156SOL    HW1  467   1.005  -0.167   2.502
  156SOL    HW2  468   0.850  -0.141   2.546
  157SOL     OW  469   0.931   0.363   3.201
  157SOL    HW1  470   0.922   0.457   3.167
  157SOL    HW2  471   0.890   0.300   3.135
  158SOL     OW  472   0.870   0.104   2.734
  158SOL    HW1  473   0.899   0.029   2.674
  158SOL    HW2  474   0.951   0.142   2.780
  159SOL     OW  475   1.399   0.649   3.149
  159SOL    HW1  476   1.424   0.552   3.152
  159SOL    HW2  477   1.299   0.657   3.145
  160SOL     OW  478   2.732  -0.112   2.628
  160SOL    HW1  479   2.752  -0.125   2.725
  160SOL    HW2  480   2.798  -0.163   2.573
  161SOL     OW  481   2.439  -0.116   2.557
  161SOL    HW1  482   2.527  -0.104   2.603
  161SOL    HW2  483   2.370  -0.148   2.622
  162SOL     OW  484   2.882  -0.270   2.413
  162SOL    HW1  485   2.958  -0.213   2.381
  162SOL    HW2  486   2.913  -0.364   2.425
  163SOL     OW  487   3.136   0.428   1.713
  163SOL    HW1  488   3.088   0.416   1.800
  163SOL    HW2  489   3.133   0.342   1.661
  164SOL     OW  490   2.955   0.471   1.388
  164SOL    HW1  491   2.902   0.429   1.461
  164SOL    HW2  492   3.041   0.421   1.376
  165SOL     OW  493   3.429   0.691   0.989
  165SOL    HW1  494   3.486   0.741   1.054
  165SOL    HW2  495   3.488   0.644   0.923
  166SOL     OW  496   2.686   1.128   0.815
  166SOL    HW1  497   2.683   1.224   0.845
  166SOL    HW2  498   2.637   1.071   0.880
  167SOL     OW  499   3.306   2.175   1.077
  167SOL    HW1  500   3.271   2.090   1.117
  167SOL    HW2  501   3.351   2.154   0.990
    6.5569    6.5569    6.5569
