; ITP file created by ByteFF-ML, 2026-02-21 07:37:34.940112

[ atomtypes ]
;name           bonded.type        at.num        mass        charge   ptype           sigma         epsilon
 c0bf                                   6      0.0000       0.00000       A     3.39778e-01     4.49916e-01
 o1bf                                   8      0.0000       0.00000       A     3.15894e-01     3.03981e-01
 c2bf                                   6      0.0000       0.00000       A     3.31331e-01     4.13317e-01
 c3bf                                   6      0.0000       0.00000       A     3.31576e-01     4.11824e-01
 c4bf                                   6      0.0000       0.00000       A     3.31499e-01     4.13692e-01
 c5bf                                   6      0.0000       0.00000       A     3.31489e-01     4.12274e-01
 c6bf                                   6      0.0000       0.00000       A     3.31234e-01     4.12892e-01
 c7bf                                   6      0.0000       0.00000       A     3.31656e-01     4.12270e-01
 c8bf                                   6      0.0000       0.00000       A     3.31442e-01     4.12847e-01
 n9bf                                   7      0.0000       0.00000       A     3.38457e-01     3.91292e-01
 n10bf                                  7      0.0000       0.00000       A     3.18016e-01     6.86340e-01
 c11bf                                  6      0.0000       0.00000       A     3.39539e-01     4.50071e-01
 c12bf                                  6      0.0000       0.00000       A     3.31591e-01     4.14389e-01
 c13bf                                  6      0.0000       0.00000       A     3.31490e-01     4.12791e-01
 c14bf                                  6      0.0000       0.00000       A     3.31487e-01     4.13500e-01
 c15bf                                  6      0.0000       0.00000       A     3.31529e-01     4.13423e-01
 c16bf                                  6      0.0000       0.00000       A     3.31504e-01     4.11795e-01
 c17bf                                  6      0.0000       0.00000       A     3.31436e-01     4.13623e-01
 c18bf                                  6      0.0000       0.00000       A     3.31282e-01     4.12504e-01
 n19bf                                  7      0.0000       0.00000       A     3.38442e-01     3.92395e-01
 c20bf                                  6      0.0000       0.00000       A     3.31559e-01     4.12876e-01
 c21bf                                  6      0.0000       0.00000       A     3.31248e-01     4.11878e-01
 o22bf                                  8      0.0000       0.00000       A     3.16044e-01     3.06219e-01
 c23bf                                  6      0.0000       0.00000       A     3.39765e-01     4.49641e-01
 c24bf                                  6      0.0000       0.00000       A     3.39709e-01     4.50653e-01
 c25bf                                  6      0.0000       0.00000       A     3.39676e-01     4.54283e-01
 n26bf                                  7      0.0000       0.00000       A     2.58860e-01     1.06555e+01
 c27bf                                  6      0.0000       0.00000       A     3.39685e-01     4.50679e-01
 c28bf                                  6      0.0000       0.00000       A     3.39685e-01     4.50679e-01
 c29bf                                  6      0.0000       0.00000       A     3.31559e-01     4.12876e-01
 n30bf                                  7      0.0000       0.00000       A     3.38442e-01     3.92395e-01
 c31bf                                  6      0.0000       0.00000       A     3.31738e-01     4.11199e-01
 o32bf                                  8      0.0000       0.00000       A     3.04772e-01     6.11569e-01
 c33bf                                  6      0.0000       0.00000       A     3.31666e-01     4.12836e-01
 c34bf                                  6      0.0000       0.00000       A     3.31509e-01     4.14763e-01
 h35bf                                  1      0.0000       0.00000       A     2.42080e-01     8.75859e-02
 h36bf                                  1      0.0000       0.00000       A     2.42080e-01     8.75859e-02
 h37bf                                  1      0.0000       0.00000       A     2.42080e-01     8.75859e-02
 h38bf                                  1      0.0000       0.00000       A     2.62446e-01     6.69008e-02
 h39bf                                  1      0.0000       0.00000       A     2.62543e-01     6.73813e-02
 h40bf                                  1      0.0000       0.00000       A     2.62488e-01     6.75042e-02
 h41bf                                  1      0.0000       0.00000       A     2.62487e-01     6.74387e-02
 h42bf                                  1      0.0000       0.00000       A     2.41782e-01     8.82882e-02
 h43bf                                  1      0.0000       0.00000       A     2.41782e-01     8.82882e-02
 h44bf                                  1      0.0000       0.00000       A     2.62513e-01     6.77228e-02
 h45bf                                  1      0.0000       0.00000       A     2.62500e-01     6.73765e-02
 h46bf                                  1      0.0000       0.00000       A     2.62520e-01     6.73030e-02
 h47bf                                  1      0.0000       0.00000       A     2.62546e-01     6.76510e-02
 h48bf                                  1      0.0000       0.00000       A     2.53555e-01     6.66566e-02
 h49bf                                  1      0.0000       0.00000       A     2.42207e-01     8.74965e-02
 h50bf                                  1      0.0000       0.00000       A     2.42207e-01     8.74965e-02
 h51bf                                  1      0.0000       0.00000       A     2.60166e-01     8.75620e-02
 h52bf                                  1      0.0000       0.00000       A     2.60166e-01     8.75620e-02
 h53bf                                  1      0.0000       0.00000       A     1.87943e-01     8.69571e-02
 h54bf                                  1      0.0000       0.00000       A     1.87943e-01     8.69571e-02
 h55bf                                  1      0.0000       0.00000       A     1.88202e-01     8.71518e-02
 h56bf                                  1      0.0000       0.00000       A     1.88202e-01     8.71518e-02
 h57bf                                  1      0.0000       0.00000       A     1.88202e-01     8.71518e-02
 h58bf                                  1      0.0000       0.00000       A     1.88202e-01     8.71518e-02
 h59bf                                  1      0.0000       0.00000       A     1.88202e-01     8.71518e-02
 h60bf                                  1      0.0000       0.00000       A     1.88202e-01     8.71518e-02
 h61bf                                  1      0.0000       0.00000       A     2.53555e-01     6.66566e-02
 h62bf                                  1      0.0000       0.00000       A     2.62620e-01     6.80388e-02
 h63bf                                  1      0.0000       0.00000       A     2.62454e-01     6.74499e-02
 h64bf                                  1      0.0000       0.00000       A     1.10658e-01     4.28289e-02

[ moleculetype ]
;name             nrexcl
 CHEMBL3402759_5_7_redocked       3

[ atoms ]
;       nr            type      resi   res      atom      cgnr      charge          mass ; qtot
         1            c0bf         1   UNL        c0         1     0.14327       12.0110 ; qtot    0.143
         2            o1bf         1   UNL        o1         2    -0.34689       15.9990 ; qtot   -0.204
         3            c2bf         1   UNL        c2         3     0.12953       12.0110 ; qtot   -0.074
         4            c3bf         1   UNL        c3         4    -0.16292       12.0110 ; qtot   -0.237
         5            c4bf         1   UNL        c4         5    -0.07895       12.0110 ; qtot   -0.316
         6            c5bf         1   UNL        c5         6    -0.10952       12.0110 ; qtot   -0.425
         7            c6bf         1   UNL        c6         7    -0.08992       12.0110 ; qtot   -0.515
         8            c7bf         1   UNL        c7         8    -0.14100       12.0110 ; qtot   -0.656
         9            c8bf         1   UNL        c8         9     0.38988       12.0110 ; qtot   -0.267
        10            n9bf         1   UNL        n9        10    -0.41880       14.0070 ; qtot   -0.685
        11           n10bf         1   UNL       n10        11    -0.13331       14.0070 ; qtot   -0.819
        12           c11bf         1   UNL       c11        12     0.15914       12.0110 ; qtot   -0.659
        13           c12bf         1   UNL       c12        13    -0.13750       12.0110 ; qtot   -0.797
        14           c13bf         1   UNL       c13        14    -0.07941       12.0110 ; qtot   -0.876
        15           c14bf         1   UNL       c14        15    -0.12394       12.0110 ; qtot   -1.000
        16           c15bf         1   UNL       c15        16    -0.06104       12.0110 ; qtot   -1.061
        17           c16bf         1   UNL       c16        17    -0.15729       12.0110 ; qtot   -1.219
        18           c17bf         1   UNL       c17        18    -0.03283       12.0110 ; qtot   -1.251
        19           c18bf         1   UNL       c18        19     0.16879       12.0110 ; qtot   -1.083
        20           n19bf         1   UNL       n19        20    -0.15555       14.0070 ; qtot   -1.238
        21           c20bf         1   UNL       c20        21     0.05614       12.0110 ; qtot   -1.182
        22           c21bf         1   UNL       c21        22     0.03816       12.0110 ; qtot   -1.144
        23           o22bf         1   UNL       o22        23    -0.33862       15.9990 ; qtot   -1.483
        24           c23bf         1   UNL       c23        24     0.17091       12.0110 ; qtot   -1.312
        25           c24bf         1   UNL       c24        25    -0.11535       12.0110 ; qtot   -1.427
        26           c25bf         1   UNL       c25        26     0.10843       12.0110 ; qtot   -1.319
        27           n26bf         1   UNL       n26        27    -0.68457       14.0070 ; qtot   -2.003
        28           c27bf         1   UNL       c27        28     0.08833       12.0110 ; qtot   -1.915
        29           c28bf         1   UNL       c28        29     0.08833       12.0110 ; qtot   -1.826
        30           c29bf         1   UNL       c29        30     0.05614       12.0110 ; qtot   -1.770
        31           n30bf         1   UNL       n30        31    -0.15555       14.0070 ; qtot   -1.926
        32           c31bf         1   UNL       c31        32     0.53165       12.0110 ; qtot   -1.394
        33           o32bf         1   UNL       o32        33    -0.53905       15.9990 ; qtot   -1.933
        34           c33bf         1   UNL       c33        34    -0.27047       12.0110 ; qtot   -2.204
        35           c34bf         1   UNL       c34        35    -0.20586       12.0110 ; qtot   -2.410
        36           h35bf         1   UNL       h35        36     0.04277        1.0080 ; qtot   -2.367
        37           h36bf         1   UNL       h36        37     0.04277        1.0080 ; qtot   -2.324
        38           h37bf         1   UNL       h37        38     0.04277        1.0080 ; qtot   -2.281
        39           h38bf         1   UNL       h38        39     0.12436        1.0080 ; qtot   -2.157
        40           h39bf         1   UNL       h39        40     0.11690        1.0080 ; qtot   -2.040
        41           h40bf         1   UNL       h40        41     0.12509        1.0080 ; qtot   -1.915
        42           h41bf         1   UNL       h41        42     0.13064        1.0080 ; qtot   -1.784
        43           h42bf         1   UNL       h42        43     0.08014        1.0080 ; qtot   -1.704
        44           h43bf         1   UNL       h43        44     0.08014        1.0080 ; qtot   -1.624
        45           h44bf         1   UNL       h44        45     0.12316        1.0080 ; qtot   -1.501
        46           h45bf         1   UNL       h45        46     0.11635        1.0080 ; qtot   -1.385
        47           h46bf         1   UNL       h46        47     0.13364        1.0080 ; qtot   -1.251
        48           h47bf         1   UNL       h47        48     0.13962        1.0080 ; qtot   -1.111
        49           h48bf         1   UNL       h48        49     0.03802        1.0080 ; qtot   -1.073
        50           h49bf         1   UNL       h49        50     0.06068        1.0080 ; qtot   -1.013
        51           h50bf         1   UNL       h50        51     0.06068        1.0080 ; qtot   -0.952
        52           h51bf         1   UNL       h51        52     0.08745        1.0080 ; qtot   -0.864
        53           h52bf         1   UNL       h52        53     0.08745        1.0080 ; qtot   -0.777
        54           h53bf         1   UNL       h53        54     0.10193        1.0080 ; qtot   -0.675
        55           h54bf         1   UNL       h54        55     0.10193        1.0080 ; qtot   -0.573
        56           h55bf         1   UNL       h55        56     0.10239        1.0080 ; qtot   -0.471
        57           h56bf         1   UNL       h56        57     0.10239        1.0080 ; qtot   -0.368
        58           h57bf         1   UNL       h57        58     0.10239        1.0080 ; qtot   -0.266
        59           h58bf         1   UNL       h58        59     0.10239        1.0080 ; qtot   -0.164
        60           h59bf         1   UNL       h59        60     0.10239        1.0080 ; qtot   -0.061
        61           h60bf         1   UNL       h60        61     0.10239        1.0080 ; qtot    0.041
        62           h61bf         1   UNL       h61        62     0.03802        1.0080 ; qtot    0.079
        63           h62bf         1   UNL       h62        63     0.21660        1.0080 ; qtot    0.296
        64           h63bf         1   UNL       h63        64     0.20036        1.0080 ; qtot    0.496
        65           h64bf         1   UNL       h64        65     0.50383        1.0080 ; qtot    1.000

[ bonds ]
;       ai        aj funct               r               k
         1         2     1        0.142493   208267.423071
         1        36     1        0.109438   297412.683691
         1        37     1        0.109438   297412.683691
         1        38     1        0.109438   297412.683691
         2         3     1        0.136825   269292.138184
         3         4     1        0.140379   285800.168408
         3         8     1        0.140150   289878.827832
         4         5     1        0.139752   314010.910986
         4        39     1        0.108414   323656.455957
         5         6     1        0.139578   317053.300049
         5        40     1        0.108641   318763.239355
         6         7     1        0.140478   288833.542871
         6        41     1        0.108494   321666.017041
         7         8     1        0.140288   292176.631396
         7         9     1        0.148298   209539.988306
         8        42     1        0.108370   323614.677246
         9        10     1        0.131539   385222.519482
         9        35     1        0.143852   227015.479150
        10        11     1        0.134329   260852.429980
        11        12     1        0.147613   169992.863208
        11        32     1        0.140843   163226.052734
        12        13     1        0.151528   196206.042017
        12        43     1        0.109005   307715.094189
        12        44     1        0.109005   307715.094189
        13        14     1        0.140196   291895.084766
        13        18     1        0.139683   302833.624658
        14        15     1        0.139822   308159.771875
        14        45     1        0.108642   318341.519531
        15        16     1        0.139464   319479.861719
        15        46     1        0.108635   319128.624316
        16        17     1        0.140606   289246.733301
        16        47     1        0.108404   325012.297705
        17        18     1        0.140413   290599.561670
        17        19     1        0.148253   201473.722021
        18        48     1        0.108475   322864.116064
        19        20     1        0.134640   264702.506738
        19        31     1        0.134640   264702.506738
        20        21     1        0.133366   343073.035254
        21        22     1        0.140184   278555.162793
        21        49     1        0.108731   317365.006006
        22        23     1        0.136401   278447.166357
        22        30     1        0.140184   278555.162793
        23        24     1        0.143138   191253.094116
        24        25     1        0.153191   183204.614429
        24        50     1        0.109610   293314.820361
        24        51     1        0.109610   293314.820361
        25        26     1        0.152808   188077.171509
        25        52     1        0.109425   300988.772803
        25        53     1        0.109425   300988.772803
        26        27     1        0.152375   128558.520190
        26        54     1        0.109100   310831.208887
        26        55     1        0.109100   310831.208887
        27        28     1        0.150639   157689.428662
        27        29     1        0.150639   157689.428662
        27        65     1        0.102542   384882.288574
        28        56     1        0.108877   319001.449512
        28        57     1        0.108877   319001.449512
        28        58     1        0.108877   319001.449512
        29        59     1        0.108877   319001.449512
        29        60     1        0.108877   319001.449512
        29        61     1        0.108877   319001.423975
        30        31     1        0.133366   343073.035254
        30        62     1        0.108731   317365.031543
        32        33     1        0.123473   582908.373145
        32        34     1        0.145315   222731.909961
        34        35     1        0.135943   427987.243750
        34        63     1        0.108453   327898.374121
        35        64     1        0.108511   322270.505957

[ angles ]
;       ai        aj        ak funct           theta             cth
         1         2         3     1      118.052025      562.059711
         2         1        36     1      109.524879      448.897884
         2         1        37     1      109.524879      448.897884
         2         1        38     1      109.524879      448.897884
         2         3         4     1      120.928268      563.976080
         2         3         8     1      118.252548      517.610744
         3         4         5     1      119.314713      730.366563
         3         4        39     1      120.243187      440.066194
         3         8         7     1      120.393677      715.397604
         3         8        42     1      119.649582      433.984340
         4         3         8     1      119.853775      612.005190
         4         5         6     1      120.962646      694.958595
         4         5        40     1      119.262405      440.563976
         5         4        39     1      120.329857      432.260681
         5         6         7     1      119.814537      670.770866
         5         6        41     1      120.281723      428.744253
         6         5        40     1      119.772301      440.534736
         6         7         8     1      119.365891      611.845646
         6         7         9     1      120.601051      526.878129
         7         6        41     1      119.832069      429.809055
         7         8        42     1      119.876450      420.795540
         7         9        10     1      116.812820      475.747569
         7         9        35     1      122.071976      555.846596
         8         7         9     1      120.075272      460.802136
         9        10        11     1      118.998756      474.387367
         9        35        34     1      119.857590      758.271090
         9        35        64     1      119.735733      413.280384
        10         9        35     1      120.777405      614.184718
        10        11        12     1      115.047546      530.677636
        10        11        32     1      126.285873      626.788558
        11        12        13     1      112.024643      482.191795
        11        12        43     1      106.570786      547.891914
        11        12        44     1      106.570786      547.891914
        11        32        33     1      120.897690      657.687439
        11        32        34     1      113.384048      841.521237
        12        11        32     1      118.388550      582.347795
        12        13        14     1      120.333595      511.641541
        12        13        18     1      120.296829      468.954539
        13        12        43     1      110.926590      460.266878
        13        12        44     1      110.926590      460.266878
        13        14        15     1      120.169945      693.599446
        13        14        45     1      119.704689      387.328041
        13        18        17     1      120.774254      672.801705
        13        18        48     1      120.039597      376.201523
        14        13        18     1      119.303223      734.428240
        14        15        16     1      120.256760      725.564182
        14        15        46     1      119.922340      434.291488
        15        14        45     1      120.187279      423.550260
        15        16        17     1      119.979965      674.456637
        15        16        47     1      120.924561      410.330497
        16        15        46     1      119.903481      440.262639
        16        17        18     1      119.321045      655.708569
        16        17        19     1      120.346436      528.756224
        17        16        47     1      118.940353      422.657483
        17        18        48     1      118.453026      404.020564
        17        19        20     1      117.760376      476.262397
        17        19        31     1      117.760376      476.262397
        18        17        19     1      120.176895      484.683706
        19        20        21     1      117.835739      811.227777
        19        31        30     1      117.835739      811.227777
        20        19        31     1      124.311020      600.584164
        20        21        22     1      121.979652      820.071150
        20        21        49     1      117.038002      381.335599
        21        22        23     1      122.206749      599.254000
        21        22        30     1      116.012695      578.655002
        22        21        49     1      121.193214      401.800879
        22        23        24     1      118.184387      529.916566
        22        30        31     1      121.979652      820.071150
        22        30        62     1      121.193214      401.800879
        23        22        30     1      122.206749      599.254000
        23        24        25     1      108.196121      613.087325
        23        24        50     1      109.253662      455.816717
        23        24        51     1      109.253662      455.816717
        24        25        26     1      112.010948      609.893079
        24        25        52     1      109.221390      499.466181
        24        25        53     1      109.221390      499.466181
        25        24        50     1      110.758850      482.654176
        25        24        51     1      110.758850      482.654176
        25        26        27     1      113.478806      674.517288
        25        26        54     1      111.205246      486.585167
        25        26        55     1      111.205246      486.585167
        26        25        52     1      109.892250      511.584593
        26        25        53     1      109.892250      511.584593
        26        27        28     1      112.362404      606.747163
        26        27        29     1      112.362404      606.747163
        26        27        65     1      106.309494      505.076844
        27        26        54     1      106.038734      550.108280
        27        26        55     1      106.038734      550.108280
        27        28        56     1      108.809097      544.411845
        27        28        57     1      108.809097      544.411845
        27        28        58     1      108.809097      544.411845
        27        29        59     1      108.809097      544.411845
        27        29        60     1      108.809097      544.411845
        27        29        61     1      108.809097      544.411845
        28        27        29     1      111.394310      625.820447
        28        27        65     1      107.184303      508.970231
        29        27        65     1      107.184288      508.970231
        31        30        62     1      117.037987      381.335599
        32        34        35     1      120.825829      851.397586
        32        34        63     1      116.227798      462.415315
        33        32        34     1      125.412392      492.999259
        34        35        64     1      120.435448      423.448080
        35        34        63     1      122.663757      418.560373
        36         1        37     1      109.477646      342.882107
        36         1        38     1      109.477646      342.882171
        37         1        38     1      109.477646      342.882171
        43        12        44     1      109.371140      342.649304
        50        24        51     1      108.044945      343.949814
        52        25        53     1      106.989609      360.527324
        54        26        55     1      108.303940      351.814541
        56        28        57     1      110.238785      348.438791
        56        28        58     1      110.238785      348.438791
        57        28        58     1      110.238785      348.438791
        59        29        60     1      110.238785      348.438791
        59        29        61     1      110.238785      348.438791
        60        29        61     1      110.238785      348.438791

[ dihedrals ] ; propers for gromacs 4.5 or higher, use funct 9
;       ai        aj        ak        al funct           phase               k        pn
         1         2         3         4     9        0.000000        0.380252         1
         1         2         3         4     9      180.000000        5.636650         2
         1         2         3         4     9        0.000000       -0.036940         3
         1         2         3         4     9      180.000000        0.675253         4
         1         2         3         8     9        0.000000       -0.450667         1
         1         2         3         8     9      180.000000        5.616970         2
         1         2         3         8     9        0.000000       -0.156915         3
         1         2         3         8     9      180.000000        0.712473         4
         2         3         4         5     9        0.000000        0.584808         1
         2         3         4         5     9      180.000000       17.345597         2
         2         3         4         5     9        0.000000        0.454174         3
         2         3         4         5     9      180.000000       -0.228948         4
         2         3         4        39     9        0.000000        0.066999         1
         2         3         4        39     9      180.000000       12.818845         2
         2         3         4        39     9        0.000000       -0.146979         3
         2         3         4        39     9      180.000000        0.265568         4
         2         3         8         7     9        0.000000        0.388876         1
         2         3         8         7     9      180.000000       17.163802         2
         2         3         8         7     9        0.000000        0.322030         3
         2         3         8         7     9      180.000000       -0.278704         4
         2         3         8        42     9        0.000000        0.064600         1
         2         3         8        42     9      180.000000       12.792590         2
         2         3         8        42     9        0.000000       -0.116049         3
         2         3         8        42     9      180.000000        0.283610         4
         3         2         1        36     9        0.000000       -0.094815         1
         3         2         1        36     9      180.000000        0.034995         2
         3         2         1        36     9        0.000000        0.686253         3
         3         2         1        36     9      180.000000       -0.027025         4
         3         2         1        37     9        0.000000       -0.094815         1
         3         2         1        37     9      180.000000        0.034995         2
         3         2         1        37     9        0.000000        0.686253         3
         3         2         1        37     9      180.000000       -0.027025         4
         3         2         1        38     9        0.000000       -0.094815         1
         3         2         1        38     9      180.000000        0.034995         2
         3         2         1        38     9        0.000000        0.686253         3
         3         2         1        38     9      180.000000       -0.027025         4
         3         4         5         6     9        0.000000        0.011681         1
         3         4         5         6     9      180.000000       18.394919         2
         3         4         5         6     9        0.000000       -1.547987         3
         3         4         5         6     9      180.000000       -0.447282         4
         3         4         5        40     9        0.000000        0.023110         1
         3         4         5        40     9      180.000000       14.663392         2
         3         4         5        40     9        0.000000       -0.494909         3
         3         4         5        40     9      180.000000        0.077068         4
         3         8         7         6     9        0.000000       -0.250905         1
         3         8         7         6     9      180.000000       18.206427         2
         3         8         7         6     9        0.000000       -1.569144         3
         3         8         7         6     9      180.000000       -0.364288         4
         3         8         7         9     9        0.000000        0.191181         1
         3         8         7         9     9      180.000000       15.597284         2
         3         8         7         9     9        0.000000       -0.117679         3
         3         8         7         9     9      180.000000       -0.328864         4
         4         3         8         7     9        0.000000       -0.073993         1
         4         3         8         7     9      180.000000       16.132367         2
         4         3         8         7     9        0.000000       -0.929963         3
         4         3         8         7     9      180.000000       -0.302920         4
         4         3         8        42     9        0.000000        0.159835         1
         4         3         8        42     9      180.000000       12.518323         2
         4         3         8        42     9        0.000000       -0.463935         3
         4         3         8        42     9      180.000000        0.257960         4
         4         5         6         7     9        0.000000       -0.022695         1
         4         5         6         7     9      180.000000       19.121735         2
         4         5         6         7     9        0.000000       -1.565869         3
         4         5         6         7     9      180.000000       -0.392038         4
         4         5         6        41     9        0.000000        0.016585         1
         4         5         6        41     9      180.000000       14.784564         2
         4         5         6        41     9        0.000000       -0.706976         3
         4         5         6        41     9      180.000000        0.132921         4
         5         4         3         8     9        0.000000       -0.045857         1
         5         4         3         8     9      180.000000       15.647627         2
         5         4         3         8     9        0.000000       -0.881294         3
         5         4         3         8     9      180.000000       -0.202183         4
         5         6         7         8     9        0.000000       -0.175576         1
         5         6         7         8     9      180.000000       18.363989         2
         5         6         7         8     9        0.000000       -1.514221         3
         5         6         7         8     9      180.000000       -0.314049         4
         5         6         7         9     9        0.000000        0.160420         1
         5         6         7         9     9      180.000000       15.323193         2
         5         6         7         9     9        0.000000       -0.189322         3
         5         6         7         9     9      180.000000       -0.179303         4
         6         5         4        39     9        0.000000        0.059346         1
         6         5         4        39     9      180.000000       13.710352         2
         6         5         4        39     9        0.000000       -0.625040         3
         6         5         4        39     9      180.000000        0.193184         4
         6         7         8        42     9        0.000000       -0.024802         1
         6         7         8        42     9      180.000000       13.677854         2
         6         7         8        42     9        0.000000       -0.588095         3
         6         7         8        42     9      180.000000        0.142547         4
         6         7         9        10     9        0.000000        0.228154         1
         6         7         9        10     9      180.000000        3.805530         2
         6         7         9        10     9        0.000000        0.130302         3
         6         7         9        10     9      180.000000       -0.006849         4
         6         7         9        35     9        0.000000       -0.064115         1
         6         7         9        35     9      180.000000        4.017179         2
         6         7         9        35     9        0.000000        0.131497         3
         6         7         9        35     9      180.000000       -0.083958         4
         7         6         5        40     9        0.000000       -0.034760         1
         7         6         5        40     9      180.000000       14.842267         2
         7         6         5        40     9        0.000000       -0.535862         3
         7         6         5        40     9      180.000000        0.080143         4
         7         9        10        11     9        0.000000       -0.126780         1
         7         9        10        11     9      180.000000       34.900378         2
         7         9        10        11     9        0.000000        1.933434         3
         7         9        10        11     9      180.000000       -1.635415         4
         7         9        35        34     9        0.000000        0.066738         1
         7         9        35        34     9      180.000000       12.777992         2
         7         9        35        34     9        0.000000       -0.209922         3
         7         9        35        34     9      180.000000       -0.484568         4
         7         9        35        64     9        0.000000        0.034362         1
         7         9        35        64     9      180.000000       11.622000         2
         7         9        35        64     9        0.000000       -0.299925         3
         7         9        35        64     9      180.000000        0.060683         4
         8         3         4        39     9        0.000000        0.045128         1
         8         3         4        39     9      180.000000       12.540307         2
         8         3         4        39     9        0.000000       -0.443580         3
         8         3         4        39     9      180.000000        0.130093         4
         8         7         6        41     9        0.000000       -0.082292         1
         8         7         6        41     9      180.000000       14.035877         2
         8         7         6        41     9        0.000000       -0.618489         3
         8         7         6        41     9      180.000000        0.104677         4
         8         7         9        10     9        0.000000       -0.558248         1
         8         7         9        10     9      180.000000        3.887617         2
         8         7         9        10     9        0.000000        0.053172         3
         8         7         9        10     9      180.000000       -0.008346         4
         8         7         9        35     9        0.000000        0.300615         1
         8         7         9        35     9      180.000000        4.051010         2
         8         7         9        35     9        0.000000        0.129035         3
         8         7         9        35     9      180.000000       -0.083050         4
         9         7         6        41     9        0.000000       -0.130024         1
         9         7         6        41     9      180.000000       12.190385         2
         9         7         6        41     9        0.000000       -0.335283         3
         9         7         6        41     9      180.000000        0.197860         4
         9         7         8        42     9        0.000000       -0.108349         1
         9         7         8        42     9      180.000000       12.249622         2
         9         7         8        42     9        0.000000       -0.342117         3
         9         7         8        42     9      180.000000        0.250529         4
         9        10        11        12     9        0.000000        2.165681         1
         9        10        11        12     9      180.000000       14.090635         2
         9        10        11        12     9        0.000000        0.842071         3
         9        10        11        12     9      180.000000       -0.479670         4
         9        10        11        32     9        0.000000        2.101733         1
         9        10        11        32     9      180.000000        8.262575         2
         9        10        11        32     9        0.000000        0.368979         3
         9        10        11        32     9      180.000000       -0.009593         4
         9        35        34        32     9        0.000000       -0.098100         1
         9        35        34        32     9      180.000000       21.081203         2
         9        35        34        32     9        0.000000       -0.968431         3
         9        35        34        32     9      180.000000       -0.642779         4
         9        35        34        63     9        0.000000       -0.067507         1
         9        35        34        63     9      180.000000       17.206717         2
         9        35        34        63     9        0.000000       -0.358768         3
         9        35        34        63     9      180.000000       -0.050190         4
        10         9        35        34     9        0.000000       -0.197383         1
        10         9        35        34     9      180.000000       11.988745         2
        10         9        35        34     9        0.000000       -0.493642         3
        10         9        35        34     9      180.000000       -0.426407         4
        10         9        35        64     9        0.000000       -0.025534         1
        10         9        35        64     9      180.000000        9.112875         2
        10         9        35        64     9        0.000000       -0.282541         3
        10         9        35        64     9      180.000000       -0.077150         4
        10        11        12        13     9        0.000000       -2.175337         1
        10        11        12        13     9      180.000000       -0.781816         2
        10        11        12        13     9        0.000000        0.239373         3
        10        11        12        13     9      180.000000       -0.039014         4
        10        11        12        43     9        0.000000        0.298766         1
        10        11        12        43     9      180.000000        0.078292         2
        10        11        12        43     9        0.000000        0.019662         3
        10        11        12        43     9      180.000000        0.086536         4
        10        11        12        44     9        0.000000        0.298766         1
        10        11        12        44     9      180.000000        0.078292         2
        10        11        12        44     9        0.000000        0.019662         3
        10        11        12        44     9      180.000000        0.086536         4
        10        11        32        33     9        0.000000       -0.191706         1
        10        11        32        33     9      180.000000        9.009477         2
        10        11        32        33     9        0.000000       -0.415667         3
        10        11        32        33     9      180.000000       -0.488867         4
        10        11        32        34     9        0.000000        1.359758         1
        10        11        32        34     9      180.000000        2.455734         2
        10        11        32        34     9        0.000000        0.532356         3
        10        11        32        34     9      180.000000        0.115454         4
        11        10         9        35     9        0.000000       -0.079046         1
        11        10         9        35     9      180.000000       35.863478         2
        11        10         9        35     9        0.000000       -0.545049         3
        11        10         9        35     9      180.000000       -1.079374         4
        11        12        13        14     9        0.000000        0.030565         1
        11        12        13        14     9      180.000000        0.258279         2
        11        12        13        14     9        0.000000        0.090887         3
        11        12        13        14     9      180.000000        0.036615         4
        11        12        13        18     9        0.000000        0.151706         1
        11        12        13        18     9      180.000000        0.281530         2
        11        12        13        18     9        0.000000        0.030784         3
        11        12        13        18     9      180.000000        0.045644         4
        11        32        34        35     9        0.000000        1.364779         1
        11        32        34        35     9      180.000000        2.014245         2
        11        32        34        35     9        0.000000        0.435102         3
        11        32        34        35     9      180.000000        0.007037         4
        11        32        34        63     9        0.000000        0.158352         1
        11        32        34        63     9      180.000000        4.595398         2
        11        32        34        63     9        0.000000       -0.019784         3
        11        32        34        63     9      180.000000        0.196144         4
        12        11        32        33     9        0.000000       -0.195295         1
        12        11        32        33     9      180.000000       10.127569         2
        12        11        32        33     9        0.000000       -1.045208         3
        12        11        32        33     9      180.000000        0.094586         4
        12        11        32        34     9        0.000000        0.727261         1
        12        11        32        34     9      180.000000        9.246159         2
        12        11        32        34     9        0.000000        0.502600         3
        12        11        32        34     9      180.000000       -0.193507         4
        12        13        14        15     9        0.000000        0.053547         1
        12        13        14        15     9      180.000000       15.887051         2
        12        13        14        15     9        0.000000       -0.316713         3
        12        13        14        15     9      180.000000       -0.265416         4
        12        13        14        45     9        0.000000       -0.084029         1
        12        13        14        45     9      180.000000       13.043123         2
        12        13        14        45     9        0.000000       -0.439001         3
        12        13        14        45     9      180.000000        0.103644         4
        12        13        18        17     9        0.000000       -0.117504         1
        12        13        18        17     9      180.000000       16.310100         2
        12        13        18        17     9        0.000000       -0.287584         3
        12        13        18        17     9      180.000000       -0.435242         4
        12        13        18        48     9        0.000000       -0.246462         1
        12        13        18        48     9      180.000000       13.209735         2
        12        13        18        48     9        0.000000       -0.513719         3
        12        13        18        48     9      180.000000        0.112039         4
        13        12        11        32     9        0.000000       -0.294338         1
        13        12        11        32     9      180.000000       -1.944839         2
        13        12        11        32     9        0.000000        0.574463         3
        13        12        11        32     9      180.000000       -0.274890         4
        13        14        15        16     9        0.000000        0.048729         1
        13        14        15        16     9      180.000000       18.130306         2
        13        14        15        16     9        0.000000       -1.351408         3
        13        14        15        16     9      180.000000       -0.427611         4
        13        14        15        46     9        0.000000        0.131673         1
        13        14        15        46     9      180.000000       14.689558         2
        13        14        15        46     9        0.000000       -0.643310         3
        13        14        15        46     9      180.000000        0.060173         4
        13        18        17        16     9        0.000000       -0.056433         1
        13        18        17        16     9      180.000000       17.631720         2
        13        18        17        16     9        0.000000       -1.156989         3
        13        18        17        16     9      180.000000       -0.380292         4
        13        18        17        19     9        0.000000       -0.003436         1
        13        18        17        19     9      180.000000       15.141862         2
        13        18        17        19     9        0.000000       -0.344450         3
        13        18        17        19     9      180.000000       -0.335944         4
        14        13        12        43     9        0.000000       -0.023738         1
        14        13        12        43     9      180.000000       -0.040447         2
        14        13        12        43     9        0.000000        0.007768         3
        14        13        12        43     9      180.000000        0.008145         4
        14        13        12        44     9        0.000000       -0.023738         1
        14        13        12        44     9      180.000000       -0.040447         2
        14        13        12        44     9        0.000000        0.007768         3
        14        13        12        44     9      180.000000        0.008145         4
        14        13        18        17     9        0.000000       -0.088535         1
        14        13        18        17     9      180.000000       19.421654         2
        14        13        18        17     9        0.000000       -1.372015         3
        14        13        18        17     9      180.000000       -0.512778         4
        14        13        18        48     9        0.000000       -0.070563         1
        14        13        18        48     9      180.000000       14.570772         2
        14        13        18        48     9        0.000000       -0.622453         3
        14        13        18        48     9      180.000000        0.027389         4
        14        15        16        17     9        0.000000       -0.024264         1
        14        15        16        17     9      180.000000       19.080273         2
        14        15        16        17     9        0.000000       -1.608946         3
        14        15        16        17     9      180.000000       -0.405125         4
        14        15        16        47     9        0.000000        0.007971         1
        14        15        16        47     9      180.000000       14.742951         2
        14        15        16        47     9        0.000000       -0.729683         3
        14        15        16        47     9      180.000000        0.116077         4
        15        14        13        18     9        0.000000       -0.151523         1
        15        14        13        18     9      180.000000       18.846662         2
        15        14        13        18     9        0.000000       -1.254828         3
        15        14        13        18     9      180.000000       -0.455850         4
        15        16        17        18     9        0.000000       -0.162137         1
        15        16        17        18     9      180.000000       17.899874         2
        15        16        17        18     9        0.000000       -1.327731         3
        15        16        17        18     9      180.000000       -0.351838         4
        15        16        17        19     9        0.000000       -0.103905         1
        15        16        17        19     9      180.000000       15.017340         2
        15        16        17        19     9        0.000000       -0.376857         3
        15        16        17        19     9      180.000000       -0.301391         4
        16        15        14        45     9        0.000000        0.145761         1
        16        15        14        45     9      180.000000       14.161630         2
        16        15        14        45     9        0.000000       -0.660149         3
        16        15        14        45     9      180.000000        0.079006         4
        16        17        18        48     9        0.000000        0.097074         1
        16        17        18        48     9      180.000000       13.969413         2
        16        17        18        48     9        0.000000       -0.596710         3
        16        17        18        48     9      180.000000        0.033851         4
        16        17        19        20     9        0.000000       -0.150156         1
        16        17        19        20     9      180.000000        5.296820         2
        16        17        19        20     9        0.000000        0.065735         3
        16        17        19        20     9      180.000000        0.028830         4
        16        17        19        31     9        0.000000       -0.150156         1
        16        17        19        31     9      180.000000        5.296820         2
        16        17        19        31     9        0.000000        0.065735         3
        16        17        19        31     9      180.000000        0.028830         4
        17        16        15        46     9        0.000000       -0.049163         1
        17        16        15        46     9      180.000000       14.510427         2
        17        16        15        46     9        0.000000       -0.511394         3
        17        16        15        46     9      180.000000        0.135171         4
        17        19        20        21     9        0.000000        0.956320         1
        17        19        20        21     9      180.000000       16.662370         2
        17        19        20        21     9        0.000000        0.465373         3
        17        19        20        21     9      180.000000       -0.798973         4
        17        19        31        30     9        0.000000        0.956320         1
        17        19        31        30     9      180.000000       16.662370         2
        17        19        31        30     9        0.000000        0.465373         3
        17        19        31        30     9      180.000000       -0.798973         4
        18        13        12        43     9        0.000000       -0.052102         1
        18        13        12        43     9      180.000000       -0.013189         2
        18        13        12        43     9        0.000000       -0.043479         3
        18        13        12        43     9      180.000000        0.008194         4
        18        13        12        44     9        0.000000       -0.052102         1
        18        13        12        44     9      180.000000       -0.013189         2
        18        13        12        44     9        0.000000       -0.043479         3
        18        13        12        44     9      180.000000        0.008194         4
        18        13        14        45     9        0.000000       -0.033482         1
        18        13        14        45     9      180.000000       14.278976         2
        18        13        14        45     9        0.000000       -0.638918         3
        18        13        14        45     9      180.000000        0.005808         4
        18        17        16        47     9        0.000000        0.005550         1
        18        17        16        47     9      180.000000       13.617095         2
        18        17        16        47     9        0.000000       -0.708127         3
        18        17        16        47     9      180.000000        0.107035         4
        18        17        19        20     9        0.000000       -0.297678         1
        18        17        19        20     9      180.000000        5.258440         2
        18        17        19        20     9        0.000000        0.011333         3
        18        17        19        20     9      180.000000        0.052447         4
        18        17        19        31     9        0.000000       -0.297678         1
        18        17        19        31     9      180.000000        5.258440         2
        18        17        19        31     9        0.000000        0.011333         3
        18        17        19        31     9      180.000000        0.052447         4
        19        17        16        47     9        0.000000       -0.154818         1
        19        17        16        47     9      180.000000       12.171943         2
        19        17        16        47     9        0.000000       -0.452430         3
        19        17        16        47     9      180.000000        0.109925         4
        19        17        18        48     9        0.000000       -0.138620         1
        19        17        18        48     9      180.000000       12.428054         2
        19        17        18        48     9        0.000000       -0.399633         3
        19        17        18        48     9      180.000000        0.084363         4
        19        20        21        22     9        0.000000       -0.368874         1
        19        20        21        22     9      180.000000       20.372792         2
        19        20        21        22     9        0.000000       -1.077437         3
        19        20        21        22     9      180.000000       -0.346823         4
        19        20        21        49     9        0.000000        0.036837         1
        19        20        21        49     9      180.000000       18.011020         2
        19        20        21        49     9        0.000000       -0.117048         3
        19        20        21        49     9      180.000000       -0.175087         4
        19        31        30        22     9        0.000000       -0.368874         1
        19        31        30        22     9      180.000000       20.372792         2
        19        31        30        22     9        0.000000       -1.077437         3
        19        31        30        22     9      180.000000       -0.346823         4
        19        31        30        62     9        0.000000        0.036837         1
        19        31        30        62     9      180.000000       18.011020         2
        19        31        30        62     9        0.000000       -0.117048         3
        19        31        30        62     9      180.000000       -0.175087         4
        20        19        31        30     9        0.000000       -0.471339         1
        20        19        31        30     9      180.000000       13.587509         2
        20        19        31        30     9        0.000000        0.508180         3
        20        19        31        30     9      180.000000       -0.510855         4
        20        21        22        23     9        0.000000        0.532639         1
        20        21        22        23     9      180.000000       15.679317         2
        20        21        22        23     9        0.000000        0.615393         3
        20        21        22        23     9      180.000000       -0.541128         4
        20        21        22        30     9        0.000000       -0.019759         1
        20        21        22        30     9      180.000000       12.664445         2
        20        21        22        30     9        0.000000       -0.091599         3
        20        21        22        30     9      180.000000       -0.158751         4
        21        20        19        31     9        0.000000       -0.471339         1
        21        20        19        31     9      180.000000       13.587509         2
        21        20        19        31     9        0.000000        0.508180         3
        21        20        19        31     9      180.000000       -0.510855         4
        21        22        23        24     9        0.000000        0.565271         1
        21        22        23        24     9      180.000000        4.045160         2
        21        22        23        24     9        0.000000        0.188725         3
        21        22        23        24     9      180.000000        0.279094         4
        21        22        30        31     9        0.000000       -0.019759         1
        21        22        30        31     9      180.000000       12.664445         2
        21        22        30        31     9        0.000000       -0.091599         3
        21        22        30        31     9      180.000000       -0.158751         4
        21        22        30        62     9        0.000000        0.172436         1
        21        22        30        62     9      180.000000       11.845674         2
        21        22        30        62     9        0.000000       -0.270740         3
        21        22        30        62     9      180.000000        0.090470         4
        22        23        24        25     9        0.000000       -0.282680         1
        22        23        24        25     9      180.000000        0.508317         2
        22        23        24        25     9        0.000000        0.604842         3
        22        23        24        25     9      180.000000        0.053958         4
        22        23        24        50     9        0.000000       -0.025369         1
        22        23        24        50     9      180.000000       -0.062543         2
        22        23        24        50     9        0.000000        0.774177         3
        22        23        24        50     9      180.000000       -0.006994         4
        22        23        24        51     9        0.000000       -0.025369         1
        22        23        24        51     9      180.000000       -0.062543         2
        22        23        24        51     9        0.000000        0.774177         3
        22        23        24        51     9      180.000000       -0.006994         4
        23        22        21        49     9        0.000000        0.249149         1
        23        22        21        49     9      180.000000       13.041004         2
        23        22        21        49     9        0.000000        0.093597         3
        23        22        21        49     9      180.000000        0.192435         4
        23        22        30        31     9        0.000000        0.532639         1
        23        22        30        31     9      180.000000       15.679317         2
        23        22        30        31     9        0.000000        0.615393         3
        23        22        30        31     9      180.000000       -0.541128         4
        23        22        30        62     9        0.000000        0.249149         1
        23        22        30        62     9      180.000000       13.041004         2
        23        22        30        62     9        0.000000        0.093597         3
        23        22        30        62     9      180.000000        0.192435         4
        23        24        25        26     9        0.000000        1.326969         1
        23        24        25        26     9      180.000000       -0.326852         2
        23        24        25        26     9        0.000000        0.563601         3
        23        24        25        26     9      180.000000        0.032194         4
        23        24        25        52     9        0.000000        0.135320         1
        23        24        25        52     9      180.000000        0.127142         2
        23        24        25        52     9        0.000000        0.482868         3
        23        24        25        52     9      180.000000        0.062401         4
        23        24        25        53     9        0.000000        0.135320         1
        23        24        25        53     9      180.000000        0.127142         2
        23        24        25        53     9        0.000000        0.482868         3
        23        24        25        53     9      180.000000        0.062401         4
        24        23        22        30     9        0.000000        0.565271         1
        24        23        22        30     9      180.000000        4.045160         2
        24        23        22        30     9        0.000000        0.188725         3
        24        23        22        30     9      180.000000        0.279094         4
        24        25        26        27     9        0.000000        1.321552         1
        24        25        26        27     9      180.000000       -1.049926         2
        24        25        26        27     9        0.000000        0.495005         3
        24        25        26        27     9      180.000000       -0.037368         4
        24        25        26        54     9        0.000000        0.009854         1
        24        25        26        54     9      180.000000        0.077403         2
        24        25        26        54     9        0.000000        0.672128         3
        24        25        26        54     9      180.000000        0.034208         4
        24        25        26        55     9        0.000000        0.009854         1
        24        25        26        55     9      180.000000        0.077403         2
        24        25        26        55     9        0.000000        0.672128         3
        24        25        26        55     9      180.000000        0.034208         4
        25        26        27        28     9        0.000000        0.588244         1
        25        26        27        28     9      180.000000        0.317884         2
        25        26        27        28     9        0.000000        0.734454         3
        25        26        27        28     9      180.000000        0.045879         4
        25        26        27        29     9        0.000000        0.588244         1
        25        26        27        29     9      180.000000        0.317884         2
        25        26        27        29     9        0.000000        0.734454         3
        25        26        27        29     9      180.000000        0.045879         4
        25        26        27        65     9        0.000000       -0.789275         1
        25        26        27        65     9      180.000000       -0.053489         2
        25        26        27        65     9        0.000000        0.506396         3
        25        26        27        65     9      180.000000       -0.022588         4
        26        25        24        50     9        0.000000       -0.164094         1
        26        25        24        50     9      180.000000        0.049851         2
        26        25        24        50     9        0.000000        0.624120         3
        26        25        24        50     9      180.000000        0.024193         4
        26        25        24        51     9        0.000000       -0.164094         1
        26        25        24        51     9      180.000000        0.049851         2
        26        25        24        51     9        0.000000        0.624120         3
        26        25        24        51     9      180.000000        0.024193         4
        26        27        28        56     9        0.000000       -0.033543         1
        26        27        28        56     9      180.000000        0.035065         2
        26        27        28        56     9        0.000000        0.585739         3
        26        27        28        56     9      180.000000       -0.013883         4
        26        27        28        57     9        0.000000       -0.033543         1
        26        27        28        57     9      180.000000        0.035065         2
        26        27        28        57     9        0.000000        0.585739         3
        26        27        28        57     9      180.000000       -0.013883         4
        26        27        28        58     9        0.000000       -0.033543         1
        26        27        28        58     9      180.000000        0.035065         2
        26        27        28        58     9        0.000000        0.585739         3
        26        27        28        58     9      180.000000       -0.013883         4
        26        27        29        59     9        0.000000       -0.033543         1
        26        27        29        59     9      180.000000        0.035065         2
        26        27        29        59     9        0.000000        0.585739         3
        26        27        29        59     9      180.000000       -0.013883         4
        26        27        29        60     9        0.000000       -0.033543         1
        26        27        29        60     9      180.000000        0.035065         2
        26        27        29        60     9        0.000000        0.585739         3
        26        27        29        60     9      180.000000       -0.013883         4
        26        27        29        61     9        0.000000       -0.033543         1
        26        27        29        61     9      180.000000        0.035065         2
        26        27        29        61     9        0.000000        0.585739         3
        26        27        29        61     9      180.000000       -0.013883         4
        27        26        25        52     9        0.000000       -0.374452         1
        27        26        25        52     9      180.000000       -0.017137         2
        27        26        25        52     9        0.000000        0.564925         3
        27        26        25        52     9      180.000000        0.042156         4
        27        26        25        53     9        0.000000       -0.374452         1
        27        26        25        53     9      180.000000       -0.017137         2
        27        26        25        53     9        0.000000        0.564925         3
        27        26        25        53     9      180.000000        0.042156         4
        28        27        26        54     9        0.000000       -0.191157         1
        28        27        26        54     9      180.000000       -0.000237         2
        28        27        26        54     9        0.000000        0.758284         3
        28        27        26        54     9      180.000000        0.005600         4
        28        27        26        55     9        0.000000       -0.191157         1
        28        27        26        55     9      180.000000       -0.000237         2
        28        27        26        55     9        0.000000        0.758284         3
        28        27        26        55     9      180.000000        0.005600         4
        28        27        29        59     9        0.000000       -0.011822         1
        28        27        29        59     9      180.000000        0.039632         2
        28        27        29        59     9        0.000000        0.666286         3
        28        27        29        59     9      180.000000       -0.003680         4
        28        27        29        60     9        0.000000       -0.011822         1
        28        27        29        60     9      180.000000        0.039632         2
        28        27        29        60     9        0.000000        0.666286         3
        28        27        29        60     9      180.000000       -0.003680         4
        28        27        29        61     9        0.000000       -0.011822         1
        28        27        29        61     9      180.000000        0.039632         2
        28        27        29        61     9        0.000000        0.666286         3
        28        27        29        61     9      180.000000       -0.003680         4
        29        27        26        54     9        0.000000       -0.191157         1
        29        27        26        54     9      180.000000       -0.000237         2
        29        27        26        54     9        0.000000        0.758284         3
        29        27        26        54     9      180.000000        0.005600         4
        29        27        26        55     9        0.000000       -0.191157         1
        29        27        26        55     9      180.000000       -0.000237         2
        29        27        26        55     9        0.000000        0.758284         3
        29        27        26        55     9      180.000000        0.005600         4
        29        27        28        56     9        0.000000       -0.011822         1
        29        27        28        56     9      180.000000        0.039632         2
        29        27        28        56     9        0.000000        0.666286         3
        29        27        28        56     9      180.000000       -0.003680         4
        29        27        28        57     9        0.000000       -0.011822         1
        29        27        28        57     9      180.000000        0.039632         2
        29        27        28        57     9        0.000000        0.666286         3
        29        27        28        57     9      180.000000       -0.003680         4
        29        27        28        58     9        0.000000       -0.011822         1
        29        27        28        58     9      180.000000        0.039632         2
        29        27        28        58     9        0.000000        0.666286         3
        29        27        28        58     9      180.000000       -0.003680         4
        30        22        21        49     9        0.000000        0.172436         1
        30        22        21        49     9      180.000000       11.845674         2
        30        22        21        49     9        0.000000       -0.270740         3
        30        22        21        49     9      180.000000        0.090470         4
        32        11        12        43     9        0.000000       -0.045616         1
        32        11        12        43     9      180.000000        0.147989         2
        32        11        12        43     9        0.000000        0.144977         3
        32        11        12        43     9      180.000000        0.114694         4
        32        11        12        44     9        0.000000       -0.045616         1
        32        11        12        44     9      180.000000        0.147989         2
        32        11        12        44     9        0.000000        0.144977         3
        32        11        12        44     9      180.000000        0.114694         4
        32        34        35        64     9        0.000000        0.380985         1
        32        34        35        64     9      180.000000       17.184470         2
        32        34        35        64     9        0.000000       -0.152609         3
        32        34        35        64     9      180.000000       -0.094195         4
        33        32        34        35     9        0.000000        0.373567         1
        33        32        34        35     9      180.000000        6.488703         2
        33        32        34        35     9        0.000000        0.040900         3
        33        32        34        35     9      180.000000       -0.219160         4
        33        32        34        63     9        0.000000       -1.098767         1
        33        32        34        63     9      180.000000        8.614288         2
        33        32        34        63     9        0.000000       -0.424067         3
        33        32        34        63     9      180.000000       -0.304321         4
        39         4         5        40     9        0.000000       -0.188040         1
        39         4         5        40     9      180.000000       11.504258         2
        39         4         5        40     9        0.000000       -0.579802         3
        39         4         5        40     9      180.000000        0.256843         4
        40         5         6        41     9        0.000000       -0.215479         1
        40         5         6        41     9      180.000000       11.889805         2
        40         5         6        41     9        0.000000       -0.710685         3
        40         5         6        41     9      180.000000        0.347039         4
        45        14        15        46     9        0.000000       -0.085425         1
        45        14        15        46     9      180.000000       11.867552         2
        45        14        15        46     9        0.000000       -0.566930         3
        45        14        15        46     9      180.000000        0.229284         4
        46        15        16        47     9        0.000000       -0.223301         1
        46        15        16        47     9      180.000000       12.042313         2
        46        15        16        47     9        0.000000       -0.706433         3
        46        15        16        47     9      180.000000        0.374017         4
        50        24        25        52     9        0.000000        0.022412         1
        50        24        25        52     9      180.000000       -0.032739         2
        50        24        25        52     9        0.000000        0.643637         3
        50        24        25        52     9      180.000000       -0.035729         4
        50        24        25        53     9        0.000000        0.022412         1
        50        24        25        53     9      180.000000       -0.032739         2
        50        24        25        53     9        0.000000        0.643637         3
        50        24        25        53     9      180.000000       -0.035729         4
        51        24        25        52     9        0.000000        0.022412         1
        51        24        25        52     9      180.000000       -0.032739         2
        51        24        25        52     9        0.000000        0.643637         3
        51        24        25        52     9      180.000000       -0.035729         4
        51        24        25        53     9        0.000000        0.022412         1
        51        24        25        53     9      180.000000       -0.032739         2
        51        24        25        53     9        0.000000        0.643637         3
        51        24        25        53     9      180.000000       -0.035729         4
        52        25        26        54     9        0.000000       -0.083577         1
        52        25        26        54     9      180.000000        0.012877         2
        52        25        26        54     9        0.000000        0.652943         3
        52        25        26        54     9      180.000000       -0.065838         4
        52        25        26        55     9        0.000000       -0.083577         1
        52        25        26        55     9      180.000000        0.012877         2
        52        25        26        55     9        0.000000        0.652943         3
        52        25        26        55     9      180.000000       -0.065838         4
        53        25        26        54     9        0.000000       -0.083577         1
        53        25        26        54     9      180.000000        0.012877         2
        53        25        26        54     9        0.000000        0.652943         3
        53        25        26        54     9      180.000000       -0.065838         4
        53        25        26        55     9        0.000000       -0.083577         1
        53        25        26        55     9      180.000000        0.012877         2
        53        25        26        55     9        0.000000        0.652943         3
        53        25        26        55     9      180.000000       -0.065838         4
        54        26        27        65     9        0.000000       -0.001162         1
        54        26        27        65     9      180.000000        0.134657         2
        54        26        27        65     9        0.000000        0.560900         3
        54        26        27        65     9      180.000000       -0.055361         4
        55        26        27        65     9        0.000000       -0.001162         1
        55        26        27        65     9      180.000000        0.134657         2
        55        26        27        65     9        0.000000        0.560900         3
        55        26        27        65     9      180.000000       -0.055361         4
        56        28        27        65     9        0.000000       -0.081761         1
        56        28        27        65     9      180.000000        0.142201         2
        56        28        27        65     9        0.000000        0.518422         3
        56        28        27        65     9      180.000000        0.017616         4
        57        28        27        65     9        0.000000       -0.081761         1
        57        28        27        65     9      180.000000        0.142201         2
        57        28        27        65     9        0.000000        0.518422         3
        57        28        27        65     9      180.000000        0.017616         4
        58        28        27        65     9        0.000000       -0.081761         1
        58        28        27        65     9      180.000000        0.142201         2
        58        28        27        65     9        0.000000        0.518422         3
        58        28        27        65     9      180.000000        0.017616         4
        59        29        27        65     9        0.000000       -0.081761         1
        59        29        27        65     9      180.000000        0.142201         2
        59        29        27        65     9        0.000000        0.518422         3
        59        29        27        65     9      180.000000        0.017616         4
        60        29        27        65     9        0.000000       -0.081761         1
        60        29        27        65     9      180.000000        0.142201         2
        60        29        27        65     9        0.000000        0.518422         3
        60        29        27        65     9      180.000000        0.017616         4
        61        29        27        65     9        0.000000       -0.081761         1
        61        29        27        65     9      180.000000        0.142201         2
        61        29        27        65     9        0.000000        0.518422         3
        61        29        27        65     9      180.000000        0.017616         4
        63        34        35        64     9        0.000000       -0.176227         1
        63        34        35        64     9      180.000000       14.412883         2
        63        34        35        64     9        0.000000       -0.511875         3
        63        34        35        64     9      180.000000        0.397892         4

[ dihedrals ] ; impropers
;       ai        aj        ak        al funct           phase               k        pn
         3         2         4         8     4      180.000000        0.578556         2
         3         4         8         2     4      180.000000        0.578556         2
         3         8         2         4     4      180.000000        0.578556         2
        14        13        15        45     4      180.000000        2.424299         2
        14        15        45        13     4      180.000000        2.424299         2
        14        45        13        15     4      180.000000        2.424299         2
        15        14        16        46     4      180.000000        2.822822         2
        15        16        46        14     4      180.000000        2.822822         2
        15        46        14        16     4      180.000000        2.822822         2
        18        13        17        48     4      180.000000        1.715332         2
        18        17        48        13     4      180.000000        1.715332         2
        18        48        13        17     4      180.000000        1.715332         2
        19        17        20        31     4      180.000000       27.893333         2
        19        20        31        17     4      180.000000       27.893333         2
        19        31        17        20     4      180.000000       27.893333         2
        21        20        22        49     4      180.000000        5.627772         2
        21        22        49        20     4      180.000000        5.627772         2
        21        49        20        22     4      180.000000        5.627772         2
        22        21        23        30     4      180.000000        0.309891         2
        22        23        30        21     4      180.000000        0.309891         2
        22        30        21        23     4      180.000000        0.309891         2
        30        22        31        62     4      180.000000        5.627774         2
        30        31        62        22     4      180.000000        5.627774         2
        30        62        22        31     4      180.000000        5.627774         2
        32        11        33        34     4      180.000000       27.780523         2
        32        33        34        11     4      180.000000       27.780523         2
        32        34        11        33     4      180.000000       27.780523         2

[ pairs ]
;       ai        aj funct
         1         4     1
         1         8     1
         2         5     1
         2         7     1
         2        39     1
         2        42     1
         3         6     1
         3         9     1
         3        36     1
         3        37     1
         3        38     1
         3        40     1
         4         7     1
         4        41     1
         4        42     1
         5         8     1
         5         9     1
         6        10     1
         6        35     1
         6        39     1
         6        42     1
         7        11     1
         7        34     1
         7        40     1
         7        64     1
         8        10     1
         8        35     1
         8        39     1
         8        41     1
         9        12     1
         9        32     1
         9        41     1
         9        42     1
         9        63     1
        10        13     1
        10        33     1
        10        34     1
        10        43     1
        10        44     1
        10        64     1
        11        14     1
        11        18     1
        11        35     1
        11        63     1
        12        15     1
        12        17     1
        12        33     1
        12        34     1
        12        45     1
        12        48     1
        13        16     1
        13        19     1
        13        32     1
        13        46     1
        14        17     1
        14        43     1
        14        44     1
        14        47     1
        14        48     1
        15        18     1
        15        19     1
        16        20     1
        16        31     1
        16        45     1
        16        48     1
        17        21     1
        17        30     1
        17        46     1
        18        20     1
        18        31     1
        18        43     1
        18        44     1
        18        45     1
        18        47     1
        19        22     1
        19        47     1
        19        48     1
        19        49     1
        19        62     1
        20        23     1
        20        30     1
        21        24     1
        21        31     1
        21        62     1
        22        25     1
        22        50     1
        22        51     1
        23        26     1
        23        31     1
        23        49     1
        23        52     1
        23        53     1
        23        62     1
        24        27     1
        24        30     1
        24        54     1
        24        55     1
        25        28     1
        25        29     1
        25        65     1
        26        50     1
        26        51     1
        26        56     1
        26        57     1
        26        58     1
        26        59     1
        26        60     1
        26        61     1
        27        52     1
        27        53     1
        28        54     1
        28        55     1
        28        59     1
        28        60     1
        28        61     1
        29        54     1
        29        55     1
        29        56     1
        29        57     1
        29        58     1
        30        49     1
        32        43     1
        32        44     1
        32        64     1
        33        35     1
        33        63     1
        39        40     1
        40        41     1
        45        46     1
        46        47     1
        50        52     1
        50        53     1
        51        52     1
        51        53     1
        52        54     1
        52        55     1
        53        54     1
        53        55     1
        54        65     1
        55        65     1
        56        65     1
        57        65     1
        58        65     1
        59        65     1
        60        65     1
        61        65     1
        63        64     1
