; ITP file created by ByteFF-ML, 2026-02-21 07:37:05.648162

[ atomtypes ]
;name           bonded.type        at.num        mass        charge   ptype           sigma         epsilon
 c0bf                                   6      0.0000       0.00000       A     3.39794e-01     4.50042e-01
 c1bf                                   6      0.0000       0.00000       A     3.31463e-01     4.14006e-01
 c2bf                                   6      0.0000       0.00000       A     3.31444e-01     4.12910e-01
 n3bf                                   7      0.0000       0.00000       A     3.38410e-01     3.92888e-01
 c4bf                                   6      0.0000       0.00000       A     3.31338e-01     4.11475e-01
 n5bf                                   7      0.0000       0.00000       A     3.38410e-01     3.92888e-01
 c6bf                                   6      0.0000       0.00000       A     3.31444e-01     4.12910e-01
 c7bf                                   6      0.0000       0.00000       A     3.31504e-01     4.11795e-01
 c8bf                                   6      0.0000       0.00000       A     3.31529e-01     4.13423e-01
 c9bf                                   6      0.0000       0.00000       A     3.31487e-01     4.13500e-01
 c10bf                                  6      0.0000       0.00000       A     3.31490e-01     4.12791e-01
 c11bf                                  6      0.0000       0.00000       A     3.31591e-01     4.14389e-01
 c12bf                                  6      0.0000       0.00000       A     3.39539e-01     4.50071e-01
 n13bf                                  7      0.0000       0.00000       A     3.18016e-01     6.86340e-01
 n14bf                                  7      0.0000       0.00000       A     3.38457e-01     3.91292e-01
 c15bf                                  6      0.0000       0.00000       A     3.31419e-01     4.13091e-01
 c16bf                                  6      0.0000       0.00000       A     3.31509e-01     4.14763e-01
 c17bf                                  6      0.0000       0.00000       A     3.31666e-01     4.12836e-01
 c18bf                                  6      0.0000       0.00000       A     3.31738e-01     4.11199e-01
 o19bf                                  8      0.0000       0.00000       A     3.04772e-01     6.11569e-01
 c20bf                                  6      0.0000       0.00000       A     3.31228e-01     4.12705e-01
 c21bf                                  6      0.0000       0.00000       A     3.31578e-01     4.12539e-01
 c22bf                                  6      0.0000       0.00000       A     3.31521e-01     4.13725e-01
 f23bf                                  9      0.0000       0.00000       A     3.03463e-01     3.48447e-01
 c24bf                                  6      0.0000       0.00000       A     3.31577e-01     4.12654e-01
 c25bf                                  6      0.0000       0.00000       A     3.31521e-01     4.13725e-01
 f26bf                                  9      0.0000       0.00000       A     3.03463e-01     3.48447e-01
 c27bf                                  6      0.0000       0.00000       A     3.31578e-01     4.12539e-01
 c28bf                                  6      0.0000       0.00000       A     3.31436e-01     4.13623e-01
 h29bf                                  1      0.0000       0.00000       A     2.59997e-01     8.72667e-02
 h30bf                                  1      0.0000       0.00000       A     2.59997e-01     8.72667e-02
 h31bf                                  1      0.0000       0.00000       A     2.59997e-01     8.72667e-02
 h32bf                                  1      0.0000       0.00000       A     2.53821e-01     6.72759e-02
 h33bf                                  1      0.0000       0.00000       A     2.53821e-01     6.72759e-02
 h34bf                                  1      0.0000       0.00000       A     2.62520e-01     6.73030e-02
 h35bf                                  1      0.0000       0.00000       A     2.62500e-01     6.73765e-02
 h36bf                                  1      0.0000       0.00000       A     2.62513e-01     6.77228e-02
 h37bf                                  1      0.0000       0.00000       A     2.41782e-01     8.82882e-02
 h38bf                                  1      0.0000       0.00000       A     2.41782e-01     8.82882e-02
 h39bf                                  1      0.0000       0.00000       A     2.62454e-01     6.74499e-02
 h40bf                                  1      0.0000       0.00000       A     2.62620e-01     6.80388e-02
 h41bf                                  1      0.0000       0.00000       A     2.62504e-01     6.74483e-02
 h42bf                                  1      0.0000       0.00000       A     2.62457e-01     6.72600e-02
 h43bf                                  1      0.0000       0.00000       A     2.62504e-01     6.74483e-02
 h44bf                                  1      0.0000       0.00000       A     2.62546e-01     6.76510e-02

[ moleculetype ]
;name             nrexcl
 CHEMBL3402754_40       3

[ atoms ]
;       nr            type      resi   res      atom      cgnr      charge          mass ; qtot
         1            c0bf         1   UNL        c0         1    -0.03682       12.0110 ; qtot   -0.037
         2            c1bf         1   UNL        c1         2    -0.18270       12.0110 ; qtot   -0.220
         3            c2bf         1   UNL        c2         3     0.10746       12.0110 ; qtot   -0.112
         4            n3bf         1   UNL        n3         4    -0.17760       14.0070 ; qtot   -0.290
         5            c4bf         1   UNL        c4         5     0.18027       12.0110 ; qtot   -0.109
         6            n5bf         1   UNL        n5         6    -0.17760       14.0070 ; qtot   -0.287
         7            c6bf         1   UNL        c6         7     0.10746       12.0110 ; qtot   -0.180
         8            c7bf         1   UNL        c7         8    -0.15806       12.0110 ; qtot   -0.338
         9            c8bf         1   UNL        c8         9    -0.06104       12.0110 ; qtot   -0.399
        10            c9bf         1   UNL        c9        10    -0.12394       12.0110 ; qtot   -0.523
        11           c10bf         1   UNL       c10        11    -0.07941       12.0110 ; qtot   -0.602
        12           c11bf         1   UNL       c11        12    -0.13750       12.0110 ; qtot   -0.739
        13           c12bf         1   UNL       c12        13     0.15914       12.0110 ; qtot   -0.580
        14           n13bf         1   UNL       n13        14    -0.13331       14.0070 ; qtot   -0.714
        15           n14bf         1   UNL       n14        15    -0.41361       14.0070 ; qtot   -1.127
        16           c15bf         1   UNL       c15        16     0.38382       12.0110 ; qtot   -0.743
        17           c16bf         1   UNL       c16        17    -0.20483       12.0110 ; qtot   -0.948
        18           c17bf         1   UNL       c17        18    -0.27047       12.0110 ; qtot   -1.219
        19           c18bf         1   UNL       c18        19     0.53165       12.0110 ; qtot   -0.687
        20           o19bf         1   UNL       o19        20    -0.53905       15.9990 ; qtot   -1.226
        21           c20bf         1   UNL       c20        21    -0.06260       12.0110 ; qtot   -1.289
        22           c21bf         1   UNL       c21        22    -0.13315       12.0110 ; qtot   -1.422
        23           c22bf         1   UNL       c22        23     0.18511       12.0110 ; qtot   -1.237
        24           f23bf         1   UNL       f23        24    -0.17136       18.9980 ; qtot   -1.408
        25           c24bf         1   UNL       c24        25    -0.17623       12.0110 ; qtot   -1.584
        26           c25bf         1   UNL       c25        26     0.18511       12.0110 ; qtot   -1.399
        27           f26bf         1   UNL       f26        27    -0.17136       18.9980 ; qtot   -1.571
        28           c27bf         1   UNL       c27        28    -0.13315       12.0110 ; qtot   -1.704
        29           c28bf         1   UNL       c28        29    -0.03283       12.0110 ; qtot   -1.737
        30           h29bf         1   UNL       h29        30     0.04957        1.0080 ; qtot   -1.687
        31           h30bf         1   UNL       h30        31     0.04957        1.0080 ; qtot   -1.637
        32           h31bf         1   UNL       h31        32     0.04957        1.0080 ; qtot   -1.588
        33           h32bf         1   UNL       h32        33     0.02576        1.0080 ; qtot   -1.562
        34           h33bf         1   UNL       h33        34     0.02576        1.0080 ; qtot   -1.536
        35           h34bf         1   UNL       h34        35     0.13364        1.0080 ; qtot   -1.403
        36           h35bf         1   UNL       h35        36     0.11635        1.0080 ; qtot   -1.286
        37           h36bf         1   UNL       h36        37     0.12316        1.0080 ; qtot   -1.163
        38           h37bf         1   UNL       h37        38     0.08014        1.0080 ; qtot   -1.083
        39           h38bf         1   UNL       h38        39     0.08014        1.0080 ; qtot   -1.003
        40           h39bf         1   UNL       h39        40     0.20036        1.0080 ; qtot   -0.803
        41           h40bf         1   UNL       h40        41     0.21660        1.0080 ; qtot   -0.586
        42           h41bf         1   UNL       h41        42     0.14507        1.0080 ; qtot   -0.441
        43           h42bf         1   UNL       h42        43     0.15622        1.0080 ; qtot   -0.285
        44           h43bf         1   UNL       h43        44     0.14507        1.0080 ; qtot   -0.140
        45           h44bf         1   UNL       h44        45     0.13962        1.0080 ; qtot    0.000

[ bonds ]
;       ai        aj funct               r               k
         1         2     1        0.150679   210450.986377
         1        30     1        0.109400   301544.766748
         1        31     1        0.109400   301544.766748
         1        32     1        0.109400   301544.766748
         2         3     1        0.140009   286757.426953
         2         7     1        0.140009   286757.426953
         3         4     1        0.133552   336446.870410
         3        33     1        0.108975   310054.472168
         4         5     1        0.134690   264561.439746
         5         6     1        0.134690   264561.439746
         5         8     1        0.148255   201319.886475
         6         7     1        0.133552   336446.870410
         7        34     1        0.108975   310054.472168
         8         9     1        0.140606   289246.733301
         8        29     1        0.140413   290599.561670
         9        10     1        0.139464   319479.887256
         9        35     1        0.108404   325012.297705
        10        11     1        0.139822   308159.771875
        10        36     1        0.108635   319128.598779
        11        12     1        0.140196   291895.084766
        11        37     1        0.108642   318341.519531
        12        13     1        0.151528   196206.042017
        12        29     1        0.139683   302833.624658
        13        14     1        0.147613   169992.888745
        13        38     1        0.109005   307715.094189
        13        39     1        0.109005   307715.094189
        14        15     1        0.134329   260852.455518
        14        19     1        0.140843   163226.039966
        15        16     1        0.131532   385896.852393
        16        17     1        0.143758   228805.707129
        16        21     1        0.148335   209788.579297
        17        18     1        0.135943   427987.243750
        17        40     1        0.108511   322270.505957
        18        19     1        0.145315   222731.909961
        18        41     1        0.108453   327898.374121
        19        20     1        0.123473   582908.373145
        21        22     1        0.140422   291361.537939
        21        28     1        0.140422   291361.537939
        22        23     1        0.138920   313457.802734
        22        42     1        0.108416   325553.071533
        23        24     1        0.135453   293002.246143
        23        25     1        0.139184   305134.084082
        25        26     1        0.139184   305134.084082
        25        43     1        0.108383   329735.283936
        26        27     1        0.135453   293002.246143
        26        28     1        0.138920   313457.751660
        28        44     1        0.108416   325553.045996
        29        45     1        0.108475   322864.116064

[ angles ]
;       ai        aj        ak funct           theta             cth
         1         2         3     1      122.657913      506.660240
         1         2         7     1      122.657913      506.660240
         2         1        30     1      111.212341      479.480871
         2         1        31     1      111.212341      479.480871
         2         1        32     1      111.212341      479.480871
         2         3         4     1      123.435379      779.679743
         2         3        33     1      120.534767      391.971805
         2         7         6     1      123.435379      779.679743
         2         7        34     1      120.534767      391.971805
         3         2         7     1      114.684326      731.556593
         3         4         5     1      117.098022      852.860799
         4         3        33     1      116.112839      388.926377
         4         5         6     1      124.435265      641.623576
         4         5         8     1      117.705444      469.910967
         5         6         7     1      117.098022      852.860799
         5         8         9     1      120.348778      528.934728
         5         8        29     1      120.175827      485.008698
         6         5         8     1      117.705444      469.910967
         6         7        34     1      116.112839      388.926377
         8         9        10     1      119.979965      674.456637
         8         9        35     1      118.940353      422.657483
         8        29        12     1      120.774254      672.801705
         8        29        45     1      118.453026      404.020564
         9         8        29     1      119.321045      655.708569
         9        10        11     1      120.256760      725.564182
         9        10        36     1      119.903481      440.262639
        10         9        35     1      120.924561      410.330497
        10        11        12     1      120.169945      693.599446
        10        11        37     1      120.187279      423.550228
        11        10        36     1      119.922340      434.291488
        11        12        13     1      120.333595      511.641604
        11        12        29     1      119.303223      734.428240
        12        11        37     1      119.704689      387.328041
        12        13        14     1      112.024635      482.191763
        12        13        38     1      110.926590      460.266878
        12        13        39     1      110.926590      460.266878
        12        29        45     1      120.039597      376.201523
        13        12        29     1      120.296829      468.954475
        13        14        15     1      115.047531      530.677636
        13        14        19     1      118.388565      582.347795
        14        13        38     1      106.570786      547.892042
        14        13        39     1      106.570786      547.892042
        14        15        16     1      118.961220      469.877609
        14        19        18     1      113.384048      841.521301
        14        19        20     1      120.897690      657.687567
        15        14        19     1      126.285873      626.788622
        15        16        17     1      120.957664      605.734233
        15        16        21     1      116.403854      474.728415
        16        17        18     1      119.772232      754.938561
        16        17        40     1      119.792664      413.722815
        16        21        22     1      120.173340      502.618769
        16        21        28     1      120.173340      502.618769
        17        16        21     1      122.132950      560.325422
        17        18        19     1      120.825829      851.397586
        17        18        41     1      122.663757      418.560373
        18        17        40     1      120.435448      423.448112
        18        19        20     1      125.412392      492.999259
        19        18        41     1      116.227783      462.415251
        21        22        23     1      118.851624      676.766086
        21        22        42     1      121.437241      415.867102
        21        28        26     1      118.851624      676.766086
        21        28        44     1      121.437241      415.867102
        22        21        28     1      119.538841      609.508937
        22        23        24     1      118.631714      539.458986
        22        23        25     1      123.013451      615.042573
        23        22        42     1      119.635216      433.104523
        23        25        26     1      116.444824      693.663161
        23        25        43     1      121.754539      420.766843
        24        23        25     1      118.254990      546.814568
        25        26        27     1      118.254990      546.814568
        25        26        28     1      123.013451      615.042573
        26        25        43     1      121.754562      420.766843
        26        28        44     1      119.635216      433.104523
        27        26        28     1      118.631699      539.458986
        30         1        31     1      107.765549      357.168588
        30         1        32     1      107.765549      357.168588
        31         1        32     1      107.765549      357.168588
        38        13        39     1      109.371140      342.649336

[ dihedrals ] ; propers for gromacs 4.5 or higher, use funct 9
;       ai        aj        ak        al funct           phase               k        pn
         1         2         3         4     9        0.000000        0.077756         1
         1         2         3         4     9      180.000000       14.212608         2
         1         2         3         4     9        0.000000        0.093872         3
         1         2         3         4     9      180.000000       -0.309085         4
         1         2         3        33     9        0.000000       -0.152746         1
         1         2         3        33     9      180.000000       12.338899         2
         1         2         3        33     9        0.000000       -0.318879         3
         1         2         3        33     9      180.000000        0.236595         4
         1         2         7         6     9        0.000000        0.077756         1
         1         2         7         6     9      180.000000       14.212608         2
         1         2         7         6     9        0.000000        0.093872         3
         1         2         7         6     9      180.000000       -0.309085         4
         1         2         7        34     9        0.000000       -0.152746         1
         1         2         7        34     9      180.000000       12.338899         2
         1         2         7        34     9        0.000000       -0.318879         3
         1         2         7        34     9      180.000000        0.236595         4
         2         3         4         5     9        0.000000       -0.222640         1
         2         3         4         5     9      180.000000       20.397299         2
         2         3         4         5     9        0.000000       -1.414171         3
         2         3         4         5     9      180.000000       -0.342894         4
         2         7         6         5     9        0.000000       -0.222640         1
         2         7         6         5     9      180.000000       20.397299         2
         2         7         6         5     9        0.000000       -1.414171         3
         2         7         6         5     9      180.000000       -0.342894         4
         3         2         1        30     9        0.000000       -0.019708         1
         3         2         1        30     9      180.000000        0.005403         2
         3         2         1        30     9        0.000000       -0.038246         3
         3         2         1        30     9      180.000000       -0.004837         4
         3         2         1        31     9        0.000000       -0.019708         1
         3         2         1        31     9      180.000000        0.005403         2
         3         2         1        31     9        0.000000       -0.038246         3
         3         2         1        31     9      180.000000       -0.004837         4
         3         2         1        32     9        0.000000       -0.019708         1
         3         2         1        32     9      180.000000        0.005403         2
         3         2         1        32     9        0.000000       -0.038246         3
         3         2         1        32     9      180.000000       -0.004837         4
         3         2         7         6     9        0.000000       -0.010613         1
         3         2         7         6     9      180.000000       15.831849         2
         3         2         7         6     9        0.000000       -0.423454         3
         3         2         7         6     9      180.000000       -0.357542         4
         3         2         7        34     9        0.000000        0.146710         1
         3         2         7        34     9      180.000000       13.694479         2
         3         2         7        34     9        0.000000       -0.422842         3
         3         2         7        34     9      180.000000       -0.008811         4
         3         4         5         6     9        0.000000       -0.636875         1
         3         4         5         6     9      180.000000       14.408350         2
         3         4         5         6     9        0.000000        0.603882         3
         3         4         5         6     9      180.000000       -0.514084         4
         3         4         5         8     9        0.000000        0.851684         1
         3         4         5         8     9      180.000000       16.821474         2
         3         4         5         8     9        0.000000        0.469476         3
         3         4         5         8     9      180.000000       -0.795342         4
         4         3         2         7     9        0.000000       -0.010613         1
         4         3         2         7     9      180.000000       15.831849         2
         4         3         2         7     9        0.000000       -0.423454         3
         4         3         2         7     9      180.000000       -0.357542         4
         4         5         6         7     9        0.000000       -0.636875         1
         4         5         6         7     9      180.000000       14.408350         2
         4         5         6         7     9        0.000000        0.603882         3
         4         5         6         7     9      180.000000       -0.514084         4
         4         5         8         9     9        0.000000       -0.081649         1
         4         5         8         9     9      180.000000        5.323483         2
         4         5         8         9     9        0.000000        0.070136         3
         4         5         8         9     9      180.000000        0.037240         4
         4         5         8        29     9        0.000000       -0.205550         1
         4         5         8        29     9      180.000000        5.287270         2
         4         5         8        29     9        0.000000        0.014253         3
         4         5         8        29     9      180.000000        0.068457         4
         5         4         3        33     9        0.000000        0.175262         1
         5         4         3        33     9      180.000000       18.306395         2
         5         4         3        33     9        0.000000       -0.129830         3
         5         4         3        33     9      180.000000       -0.251712         4
         5         6         7        34     9        0.000000        0.175262         1
         5         6         7        34     9      180.000000       18.306395         2
         5         6         7        34     9        0.000000       -0.129830         3
         5         6         7        34     9      180.000000       -0.251712         4
         5         8         9        10     9        0.000000       -0.116362         1
         5         8         9        10     9      180.000000       15.040344         2
         5         8         9        10     9        0.000000       -0.376355         3
         5         8         9        10     9      180.000000       -0.315642         4
         5         8         9        35     9        0.000000       -0.142294         1
         5         8         9        35     9      180.000000       12.214453         2
         5         8         9        35     9        0.000000       -0.430419         3
         5         8         9        35     9      180.000000        0.088455         4
         5         8        29        12     9        0.000000        0.000237         1
         5         8        29        12     9      180.000000       15.194593         2
         5         8        29        12     9        0.000000       -0.353266         3
         5         8        29        12     9      180.000000       -0.349864         4
         5         8        29        45     9        0.000000       -0.128637         1
         5         8        29        45     9      180.000000       12.461502         2
         5         8        29        45     9        0.000000       -0.383678         3
         5         8        29        45     9      180.000000        0.062770         4
         6         5         8         9     9        0.000000       -0.081649         1
         6         5         8         9     9      180.000000        5.323483         2
         6         5         8         9     9        0.000000        0.070136         3
         6         5         8         9     9      180.000000        0.037240         4
         6         5         8        29     9        0.000000       -0.205550         1
         6         5         8        29     9      180.000000        5.287270         2
         6         5         8        29     9        0.000000        0.014253         3
         6         5         8        29     9      180.000000        0.068457         4
         7         2         1        30     9        0.000000       -0.019708         1
         7         2         1        30     9      180.000000        0.005403         2
         7         2         1        30     9        0.000000       -0.038246         3
         7         2         1        30     9      180.000000       -0.004837         4
         7         2         1        31     9        0.000000       -0.019708         1
         7         2         1        31     9      180.000000        0.005403         2
         7         2         1        31     9        0.000000       -0.038246         3
         7         2         1        31     9      180.000000       -0.004837         4
         7         2         1        32     9        0.000000       -0.019708         1
         7         2         1        32     9      180.000000        0.005403         2
         7         2         1        32     9        0.000000       -0.038246         3
         7         2         1        32     9      180.000000       -0.004837         4
         7         2         3        33     9        0.000000        0.146710         1
         7         2         3        33     9      180.000000       13.694479         2
         7         2         3        33     9        0.000000       -0.422842         3
         7         2         3        33     9      180.000000       -0.008811         4
         7         6         5         8     9        0.000000        0.851684         1
         7         6         5         8     9      180.000000       16.821474         2
         7         6         5         8     9        0.000000        0.469476         3
         7         6         5         8     9      180.000000       -0.795342         4
         8         9        10        11     9        0.000000       -0.024263         1
         8         9        10        11     9      180.000000       19.080273         2
         8         9        10        11     9        0.000000       -1.608946         3
         8         9        10        11     9      180.000000       -0.405125         4
         8         9        10        36     9        0.000000       -0.049163         1
         8         9        10        36     9      180.000000       14.510425         2
         8         9        10        36     9        0.000000       -0.511394         3
         8         9        10        36     9      180.000000        0.135170         4
         8        29        12        11     9        0.000000       -0.088534         1
         8        29        12        11     9      180.000000       19.421656         2
         8        29        12        11     9        0.000000       -1.372015         3
         8        29        12        11     9      180.000000       -0.512777         4
         8        29        12        13     9        0.000000       -0.117504         1
         8        29        12        13     9      180.000000       16.310103         2
         8        29        12        13     9        0.000000       -0.287584         3
         8        29        12        13     9      180.000000       -0.435242         4
         9         8        29        12     9        0.000000       -0.056432         1
         9         8        29        12     9      180.000000       17.631724         2
         9         8        29        12     9        0.000000       -1.156989         3
         9         8        29        12     9      180.000000       -0.380293         4
         9         8        29        45     9        0.000000        0.097074         1
         9         8        29        45     9      180.000000       13.969413         2
         9         8        29        45     9        0.000000       -0.596710         3
         9         8        29        45     9      180.000000        0.033850         4
         9        10        11        12     9        0.000000        0.048729         1
         9        10        11        12     9      180.000000       18.130306         2
         9        10        11        12     9        0.000000       -1.351409         3
         9        10        11        12     9      180.000000       -0.427611         4
         9        10        11        37     9        0.000000        0.145761         1
         9        10        11        37     9      180.000000       14.161628         2
         9        10        11        37     9        0.000000       -0.660149         3
         9        10        11        37     9      180.000000        0.079006         4
        10         9         8        29     9        0.000000       -0.162136         1
        10         9         8        29     9      180.000000       17.899874         2
        10         9         8        29     9        0.000000       -1.327732         3
        10         9         8        29     9      180.000000       -0.351838         4
        10        11        12        13     9        0.000000        0.053547         1
        10        11        12        13     9      180.000000       15.887048         2
        10        11        12        13     9        0.000000       -0.316713         3
        10        11        12        13     9      180.000000       -0.265416         4
        10        11        12        29     9        0.000000       -0.151522         1
        10        11        12        29     9      180.000000       18.846662         2
        10        11        12        29     9        0.000000       -1.254828         3
        10        11        12        29     9      180.000000       -0.455850         4
        11        10         9        35     9        0.000000        0.007972         1
        11        10         9        35     9      180.000000       14.742953         2
        11        10         9        35     9        0.000000       -0.729682         3
        11        10         9        35     9      180.000000        0.116077         4
        11        12        13        14     9        0.000000        0.030565         1
        11        12        13        14     9      180.000000        0.258279         2
        11        12        13        14     9        0.000000        0.090888         3
        11        12        13        14     9      180.000000        0.036615         4
        11        12        13        38     9        0.000000       -0.023737         1
        11        12        13        38     9      180.000000       -0.040447         2
        11        12        13        38     9        0.000000        0.007767         3
        11        12        13        38     9      180.000000        0.008145         4
        11        12        13        39     9        0.000000       -0.023737         1
        11        12        13        39     9      180.000000       -0.040447         2
        11        12        13        39     9        0.000000        0.007767         3
        11        12        13        39     9      180.000000        0.008145         4
        11        12        29        45     9        0.000000       -0.070563         1
        11        12        29        45     9      180.000000       14.570774         2
        11        12        29        45     9        0.000000       -0.622452         3
        11        12        29        45     9      180.000000        0.027389         4
        12        11        10        36     9        0.000000        0.131673         1
        12        11        10        36     9      180.000000       14.689555         2
        12        11        10        36     9        0.000000       -0.643310         3
        12        11        10        36     9      180.000000        0.060174         4
        12        13        14        15     9        0.000000       -2.175337         1
        12        13        14        15     9      180.000000       -0.781816         2
        12        13        14        15     9        0.000000        0.239373         3
        12        13        14        15     9      180.000000       -0.039014         4
        12        13        14        19     9        0.000000       -0.294337         1
        12        13        14        19     9      180.000000       -1.944838         2
        12        13        14        19     9        0.000000        0.574462         3
        12        13        14        19     9      180.000000       -0.274890         4
        13        12        11        37     9        0.000000       -0.084029         1
        13        12        11        37     9      180.000000       13.043121         2
        13        12        11        37     9        0.000000       -0.439000         3
        13        12        11        37     9      180.000000        0.103644         4
        13        12        29        45     9        0.000000       -0.246462         1
        13        12        29        45     9      180.000000       13.209734         2
        13        12        29        45     9        0.000000       -0.513719         3
        13        12        29        45     9      180.000000        0.112039         4
        13        14        15        16     9        0.000000        2.135789         1
        13        14        15        16     9      180.000000       14.305035         2
        13        14        15        16     9        0.000000        0.842101         3
        13        14        15        16     9      180.000000       -0.491130         4
        13        14        19        18     9        0.000000        0.727261         1
        13        14        19        18     9      180.000000        9.246158         2
        13        14        19        18     9        0.000000        0.502600         3
        13        14        19        18     9      180.000000       -0.193507         4
        13        14        19        20     9        0.000000       -0.195297         1
        13        14        19        20     9      180.000000       10.127565         2
        13        14        19        20     9        0.000000       -1.045207         3
        13        14        19        20     9      180.000000        0.094587         4
        14        13        12        29     9        0.000000        0.151706         1
        14        13        12        29     9      180.000000        0.281530         2
        14        13        12        29     9        0.000000        0.030783         3
        14        13        12        29     9      180.000000        0.045644         4
        14        15        16        17     9        0.000000       -0.095195         1
        14        15        16        17     9      180.000000       35.957180         2
        14        15        16        17     9        0.000000       -0.620289         3
        14        15        16        17     9      180.000000       -1.050184         4
        14        15        16        21     9        0.000000       -0.084948         1
        14        15        16        21     9      180.000000       34.972014         2
        14        15        16        21     9        0.000000        1.945584         3
        14        15        16        21     9      180.000000       -1.589659         4
        14        19        18        17     9        0.000000        1.364779         1
        14        19        18        17     9      180.000000        2.014246         2
        14        19        18        17     9        0.000000        0.435102         3
        14        19        18        17     9      180.000000        0.007037         4
        14        19        18        41     9        0.000000        0.158353         1
        14        19        18        41     9      180.000000        4.595400         2
        14        19        18        41     9        0.000000       -0.019784         3
        14        19        18        41     9      180.000000        0.196144         4
        15        14        13        38     9        0.000000        0.298767         1
        15        14        13        38     9      180.000000        0.078292         2
        15        14        13        38     9        0.000000        0.019662         3
        15        14        13        38     9      180.000000        0.086536         4
        15        14        13        39     9        0.000000        0.298767         1
        15        14        13        39     9      180.000000        0.078292         2
        15        14        13        39     9        0.000000        0.019662         3
        15        14        13        39     9      180.000000        0.086536         4
        15        14        19        18     9        0.000000        1.359758         1
        15        14        19        18     9      180.000000        2.455735         2
        15        14        19        18     9        0.000000        0.532356         3
        15        14        19        18     9      180.000000        0.115454         4
        15        14        19        20     9        0.000000       -0.191705         1
        15        14        19        20     9      180.000000        9.009476         2
        15        14        19        20     9        0.000000       -0.415666         3
        15        14        19        20     9      180.000000       -0.488867         4
        15        16        17        18     9        0.000000       -0.206460         1
        15        16        17        18     9      180.000000       12.226660         2
        15        16        17        18     9        0.000000       -0.564200         3
        15        16        17        18     9      180.000000       -0.418999         4
        15        16        17        40     9        0.000000        0.005072         1
        15        16        17        40     9      180.000000        9.301369         2
        15        16        17        40     9        0.000000       -0.286036         3
        15        16        17        40     9      180.000000       -0.092564         4
        15        16        21        22     9        0.000000       -0.217068         1
        15        16        21        22     9      180.000000        3.789456         2
        15        16        21        22     9        0.000000        0.058358         3
        15        16        21        22     9      180.000000        0.006680         4
        15        16        21        28     9        0.000000       -0.217067         1
        15        16        21        28     9      180.000000        3.789456         2
        15        16        21        28     9        0.000000        0.058358         3
        15        16        21        28     9      180.000000        0.006680         4
        16        15        14        19     9        0.000000        2.064315         1
        16        15        14        19     9      180.000000        8.395512         2
        16        15        14        19     9        0.000000        0.337796         3
        16        15        14        19     9      180.000000       -0.016133         4
        16        17        18        19     9        0.000000       -0.116202         1
        16        17        18        19     9      180.000000       21.080768         2
        16        17        18        19     9        0.000000       -0.986321         3
        16        17        18        19     9      180.000000       -0.634462         4
        16        17        18        41     9        0.000000       -0.069936         1
        16        17        18        41     9      180.000000       17.292472         2
        16        17        18        41     9        0.000000       -0.374657         3
        16        17        18        41     9      180.000000       -0.069790         4
        16        21        22        23     9        0.000000        0.230762         1
        16        21        22        23     9      180.000000       16.209562         2
        16        21        22        23     9        0.000000       -0.089588         3
        16        21        22        23     9      180.000000       -0.387375         4
        16        21        22        42     9        0.000000       -0.081645         1
        16        21        22        42     9      180.000000       12.448686         2
        16        21        22        42     9        0.000000       -0.389032         3
        16        21        22        42     9      180.000000        0.225184         4
        16        21        28        26     9        0.000000        0.230763         1
        16        21        28        26     9      180.000000       16.209562         2
        16        21        28        26     9        0.000000       -0.089588         3
        16        21        28        26     9      180.000000       -0.387374         4
        16        21        28        44     9        0.000000       -0.081645         1
        16        21        28        44     9      180.000000       12.448684         2
        16        21        28        44     9        0.000000       -0.389032         3
        16        21        28        44     9      180.000000        0.225185         4
        17        16        21        22     9        0.000000        0.162649         1
        17        16        21        22     9      180.000000        3.891274         2
        17        16        21        22     9        0.000000        0.150493         3
        17        16        21        22     9      180.000000       -0.119046         4
        17        16        21        28     9        0.000000        0.162649         1
        17        16        21        28     9      180.000000        3.891274         2
        17        16        21        28     9        0.000000        0.150493         3
        17        16        21        28     9      180.000000       -0.119046         4
        17        18        19        20     9        0.000000        0.373567         1
        17        18        19        20     9      180.000000        6.488703         2
        17        18        19        20     9        0.000000        0.040900         3
        17        18        19        20     9      180.000000       -0.219160         4
        18        17        16        21     9        0.000000        0.033405         1
        18        17        16        21     9      180.000000       12.689562         2
        18        17        16        21     9        0.000000       -0.240009         3
        18        17        16        21     9      180.000000       -0.455245         4
        19        14        13        38     9        0.000000       -0.045616         1
        19        14        13        38     9      180.000000        0.147989         2
        19        14        13        38     9        0.000000        0.144977         3
        19        14        13        38     9      180.000000        0.114694         4
        19        14        13        39     9        0.000000       -0.045616         1
        19        14        13        39     9      180.000000        0.147989         2
        19        14        13        39     9        0.000000        0.144977         3
        19        14        13        39     9      180.000000        0.114694         4
        19        18        17        40     9        0.000000        0.380985         1
        19        18        17        40     9      180.000000       17.184468         2
        19        18        17        40     9        0.000000       -0.152610         3
        19        18        17        40     9      180.000000       -0.094194         4
        20        19        18        41     9        0.000000       -1.098767         1
        20        19        18        41     9      180.000000        8.614287         2
        20        19        18        41     9        0.000000       -0.424066         3
        20        19        18        41     9      180.000000       -0.304321         4
        21        16        17        40     9        0.000000        0.013891         1
        21        16        17        40     9      180.000000       11.598305         2
        21        16        17        40     9        0.000000       -0.325133         3
        21        16        17        40     9      180.000000        0.059480         4
        21        22        23        24     9        0.000000        0.430937         1
        21        22        23        24     9      180.000000       23.370776         2
        21        22        23        24     9        0.000000        0.760673         3
        21        22        23        24     9      180.000000       -0.889888         4
        21        22        23        25     9        0.000000        0.038045         1
        21        22        23        25     9      180.000000       17.837120         2
        21        22        23        25     9        0.000000       -1.166641         3
        21        22        23        25     9      180.000000       -0.381872         4
        21        28        26        25     9        0.000000        0.038045         1
        21        28        26        25     9      180.000000       17.837118         2
        21        28        26        25     9        0.000000       -1.166641         3
        21        28        26        25     9      180.000000       -0.381871         4
        21        28        26        27     9        0.000000        0.430936         1
        21        28        26        27     9      180.000000       23.370774         2
        21        28        26        27     9        0.000000        0.760672         3
        21        28        26        27     9      180.000000       -0.889889         4
        22        21        28        26     9        0.000000       -0.342302         1
        22        21        28        26     9      180.000000       18.810098         2
        22        21        28        26     9        0.000000       -1.588451         3
        22        21        28        26     9      180.000000       -0.363249         4
        22        21        28        44     9        0.000000       -0.052324         1
        22        21        28        44     9      180.000000       13.948479         2
        22        21        28        44     9        0.000000       -0.577384         3
        22        21        28        44     9      180.000000        0.093952         4
        22        23        25        26     9        0.000000       -0.143238         1
        22        23        25        26     9      180.000000       17.087450         2
        22        23        25        26     9        0.000000       -1.147459         3
        22        23        25        26     9      180.000000       -0.384531         4
        22        23        25        43     9        0.000000        0.098565         1
        22        23        25        43     9      180.000000       12.433916         2
        22        23        25        43     9        0.000000       -0.442854         3
        22        23        25        43     9      180.000000        0.130980         4
        23        22        21        28     9        0.000000       -0.342302         1
        23        22        21        28     9      180.000000       18.810096         2
        23        22        21        28     9        0.000000       -1.588451         3
        23        22        21        28     9      180.000000       -0.363249         4
        23        25        26        27     9        0.000000        0.347297         1
        23        25        26        27     9      180.000000       23.388429         2
        23        25        26        27     9        0.000000        0.623001         3
        23        25        26        27     9      180.000000       -0.798052         4
        23        25        26        28     9        0.000000       -0.143237         1
        23        25        26        28     9      180.000000       17.087450         2
        23        25        26        28     9        0.000000       -1.147458         3
        23        25        26        28     9      180.000000       -0.384531         4
        24        23        22        42     9        0.000000        0.333426         1
        24        23        22        42     9      180.000000       16.367779         2
        24        23        22        42     9        0.000000        0.313595         3
        24        23        22        42     9      180.000000        0.089407         4
        24        23        25        26     9        0.000000        0.347297         1
        24        23        25        26     9      180.000000       23.388433         2
        24        23        25        26     9        0.000000        0.623000         3
        24        23        25        26     9      180.000000       -0.798053         4
        24        23        25        43     9        0.000000        0.299382         1
        24        23        25        43     9      180.000000       15.175832         2
        24        23        25        43     9        0.000000        0.237322         3
        24        23        25        43     9      180.000000        0.215427         4
        25        23        22        42     9        0.000000        0.126935         1
        25        23        22        42     9      180.000000       13.436919         2
        25        23        22        42     9        0.000000       -0.581726         3
        25        23        22        42     9      180.000000        0.110637         4
        25        26        28        44     9        0.000000        0.126936         1
        25        26        28        44     9      180.000000       13.436919         2
        25        26        28        44     9        0.000000       -0.581726         3
        25        26        28        44     9      180.000000        0.110636         4
        27        26        25        43     9        0.000000        0.299383         1
        27        26        25        43     9      180.000000       15.175831         2
        27        26        25        43     9        0.000000        0.237322         3
        27        26        25        43     9      180.000000        0.215426         4
        27        26        28        44     9        0.000000        0.333425         1
        27        26        28        44     9      180.000000       16.367779         2
        27        26        28        44     9        0.000000        0.313595         3
        27        26        28        44     9      180.000000        0.089406         4
        28        21        22        42     9        0.000000       -0.052323         1
        28        21        22        42     9      180.000000       13.948481         2
        28        21        22        42     9        0.000000       -0.577384         3
        28        21        22        42     9      180.000000        0.093952         4
        28        26        25        43     9        0.000000        0.098564         1
        28        26        25        43     9      180.000000       12.433917         2
        28        26        25        43     9        0.000000       -0.442854         3
        28        26        25        43     9      180.000000        0.130980         4
        29         8         9        35     9        0.000000        0.005550         1
        29         8         9        35     9      180.000000       13.617099         2
        29         8         9        35     9        0.000000       -0.708127         3
        29         8         9        35     9      180.000000        0.107034         4
        29        12        11        37     9        0.000000       -0.033483         1
        29        12        11        37     9      180.000000       14.278979         2
        29        12        11        37     9        0.000000       -0.638918         3
        29        12        11        37     9      180.000000        0.005808         4
        29        12        13        38     9        0.000000       -0.052102         1
        29        12        13        38     9      180.000000       -0.013188         2
        29        12        13        38     9        0.000000       -0.043479         3
        29        12        13        38     9      180.000000        0.008194         4
        29        12        13        39     9        0.000000       -0.052102         1
        29        12        13        39     9      180.000000       -0.013188         2
        29        12        13        39     9        0.000000       -0.043479         3
        29        12        13        39     9      180.000000        0.008194         4
        35         9        10        36     9        0.000000       -0.223300         1
        35         9        10        36     9      180.000000       12.042313         2
        35         9        10        36     9        0.000000       -0.706432         3
        35         9        10        36     9      180.000000        0.374018         4
        36        10        11        37     9        0.000000       -0.085425         1
        36        10        11        37     9      180.000000       11.867551         2
        36        10        11        37     9        0.000000       -0.566930         3
        36        10        11        37     9      180.000000        0.229284         4
        40        17        18        41     9        0.000000       -0.176224         1
        40        17        18        41     9      180.000000       14.412884         2
        40        17        18        41     9        0.000000       -0.511875         3
        40        17        18        41     9      180.000000        0.397892         4

[ dihedrals ] ; impropers
;       ai        aj        ak        al funct           phase               k        pn
         3         2         4        33     4      180.000000        8.180395         2
         3         4        33         2     4      180.000000        8.180395         2
         3        33         2         4     4      180.000000        8.180395         2
         5         4         6         8     4      180.000000       27.893333         2
         5         6         8         4     4      180.000000       27.893333         2
         5         8         4         6     4      180.000000       27.893333         2
         7         2         6        34     4      180.000000        8.180395         2
         7         6        34         2     4      180.000000        8.180395         2
         7        34         2         6     4      180.000000        8.180395         2
        10         9        11        36     4      180.000000        2.822822         2
        10        11        36         9     4      180.000000        2.822822         2
        10        36         9        11     4      180.000000        2.822822         2
        11        10        12        37     4      180.000000        2.424298         2
        11        12        37        10     4      180.000000        2.424298         2
        11        37        10        12     4      180.000000        2.424298         2
        19        14        18        20     4      180.000000       27.780523         2
        19        18        20        14     4      180.000000       27.780523         2
        19        20        14        18     4      180.000000       27.780523         2
        23        22        24        25     4      180.000000        1.595244         2
        23        24        25        22     4      180.000000        1.595244         2
        23        25        22        24     4      180.000000        1.595244         2
        26        25        27        28     4      180.000000        1.595244         2
        26        27        28        25     4      180.000000        1.595244         2
        26        28        25        27     4      180.000000        1.595244         2
        29         8        12        45     4      180.000000        1.715332         2
        29        12        45         8     4      180.000000        1.715332         2
        29        45         8        12     4      180.000000        1.715332         2

[ pairs ]
;       ai        aj funct
         1         4     1
         1         6     1
         1        33     1
         1        34     1
         2         5     1
         3         6     1
         3         8     1
         3        30     1
         3        31     1
         3        32     1
         3        34     1
         4         7     1
         4         9     1
         4        29     1
         5        10     1
         5        12     1
         5        33     1
         5        34     1
         5        35     1
         5        45     1
         6         9     1
         6        29     1
         7         8     1
         7        30     1
         7        31     1
         7        32     1
         7        33     1
         8        11     1
         8        13     1
         8        36     1
         9        12     1
         9        37     1
         9        45     1
        10        13     1
        10        29     1
        11        14     1
        11        35     1
        11        38     1
        11        39     1
        11        45     1
        12        15     1
        12        19     1
        12        36     1
        13        16     1
        13        18     1
        13        20     1
        13        37     1
        13        45     1
        14        17     1
        14        21     1
        14        29     1
        14        41     1
        15        18     1
        15        20     1
        15        22     1
        15        28     1
        15        38     1
        15        39     1
        15        40     1
        16        19     1
        16        23     1
        16        26     1
        16        41     1
        16        42     1
        16        44     1
        17        20     1
        17        22     1
        17        28     1
        18        21     1
        19        38     1
        19        39     1
        19        40     1
        20        41     1
        21        24     1
        21        25     1
        21        27     1
        21        40     1
        22        26     1
        22        43     1
        22        44     1
        23        27     1
        23        28     1
        24        26     1
        24        42     1
        24        43     1
        25        42     1
        25        44     1
        27        43     1
        27        44     1
        28        42     1
        28        43     1
        29        35     1
        29        37     1
        29        38     1
        29        39     1
        35        36     1
        36        37     1
        40        41     1
