; ITP file created by ByteFF-ML, 2026-02-21 07:37:25.647230

[ atomtypes ]
;name           bonded.type        at.num        mass        charge   ptype           sigma         epsilon
 c0bf                                   6      0.0000       0.00000       A     3.39847e-01     4.51523e-01
 c1bf                                   6      0.0000       0.00000       A     3.31456e-01     4.11475e-01
 o2bf                                   8      0.0000       0.00000       A     3.15507e-01     3.05007e-01
 c3bf                                   6      0.0000       0.00000       A     3.31369e-01     4.12099e-01
 n4bf                                   7      0.0000       0.00000       A     3.38476e-01     3.93002e-01
 c5bf                                   6      0.0000       0.00000       A     3.31487e-01     4.12333e-01
 c6bf                                   6      0.0000       0.00000       A     3.31569e-01     4.11845e-01
 c7bf                                   6      0.0000       0.00000       A     3.31515e-01     4.12412e-01
 c8bf                                   6      0.0000       0.00000       A     3.31467e-01     4.13321e-01
 c9bf                                   6      0.0000       0.00000       A     3.31490e-01     4.12767e-01
 c10bf                                  6      0.0000       0.00000       A     3.31603e-01     4.14523e-01
 c11bf                                  6      0.0000       0.00000       A     3.39533e-01     4.50082e-01
 n12bf                                  7      0.0000       0.00000       A     3.18016e-01     6.86340e-01
 n13bf                                  7      0.0000       0.00000       A     3.38457e-01     3.91292e-01
 c14bf                                  6      0.0000       0.00000       A     3.31419e-01     4.13091e-01
 c15bf                                  6      0.0000       0.00000       A     3.31509e-01     4.14763e-01
 c16bf                                  6      0.0000       0.00000       A     3.31666e-01     4.12836e-01
 c17bf                                  6      0.0000       0.00000       A     3.31738e-01     4.11199e-01
 o18bf                                  8      0.0000       0.00000       A     3.04772e-01     6.11569e-01
 c19bf                                  6      0.0000       0.00000       A     3.31228e-01     4.12705e-01
 c20bf                                  6      0.0000       0.00000       A     3.31578e-01     4.12539e-01
 c21bf                                  6      0.0000       0.00000       A     3.31521e-01     4.13725e-01
 f22bf                                  9      0.0000       0.00000       A     3.03463e-01     3.48447e-01
 c23bf                                  6      0.0000       0.00000       A     3.31577e-01     4.12654e-01
 c24bf                                  6      0.0000       0.00000       A     3.31521e-01     4.13725e-01
 f25bf                                  9      0.0000       0.00000       A     3.03463e-01     3.48447e-01
 c26bf                                  6      0.0000       0.00000       A     3.31578e-01     4.12539e-01
 c27bf                                  6      0.0000       0.00000       A     3.31414e-01     4.13178e-01
 h28bf                                  1      0.0000       0.00000       A     2.60002e-01     8.75827e-02
 h29bf                                  1      0.0000       0.00000       A     2.60002e-01     8.75827e-02
 h30bf                                  1      0.0000       0.00000       A     2.60002e-01     8.75827e-02
 h31bf                                  1      0.0000       0.00000       A     2.54050e-01     6.73573e-02
 h32bf                                  1      0.0000       0.00000       A     2.62561e-01     6.75792e-02
 h33bf                                  1      0.0000       0.00000       A     2.62496e-01     6.74180e-02
 h34bf                                  1      0.0000       0.00000       A     2.62513e-01     6.77228e-02
 h35bf                                  1      0.0000       0.00000       A     2.41782e-01     8.82882e-02
 h36bf                                  1      0.0000       0.00000       A     2.41782e-01     8.82882e-02
 h37bf                                  1      0.0000       0.00000       A     2.62454e-01     6.74499e-02
 h38bf                                  1      0.0000       0.00000       A     2.62620e-01     6.80388e-02
 h39bf                                  1      0.0000       0.00000       A     2.62504e-01     6.74483e-02
 h40bf                                  1      0.0000       0.00000       A     2.62457e-01     6.72600e-02
 h41bf                                  1      0.0000       0.00000       A     2.62504e-01     6.74483e-02
 h42bf                                  1      0.0000       0.00000       A     2.62523e-01     6.79447e-02

[ moleculetype ]
;name             nrexcl
 CHEMBL3402749_500       3

[ atoms ]
;       nr            type      resi   res      atom      cgnr      charge          mass ; qtot
         1            c0bf         1   UNL        c0         1    -0.11882       12.0110 ; qtot   -0.119
         2            c1bf         1   UNL        c1         2     0.11923       12.0110 ; qtot    0.000
         3            o2bf         1   UNL        o2         3    -0.28025       15.9990 ; qtot   -0.280
         4            c3bf         1   UNL        c3         4     0.50235       12.0110 ; qtot    0.223
         5            n4bf         1   UNL        n4         5    -0.67343       14.0070 ; qtot   -0.451
         6            c5bf         1   UNL        c5         6     0.22839       12.0110 ; qtot   -0.223
         7            c6bf         1   UNL        c6         7    -0.13623       12.0110 ; qtot   -0.359
         8            c7bf         1   UNL        c7         8    -0.06956       12.0110 ; qtot   -0.428
         9            c8bf         1   UNL        c8         9    -0.11684       12.0110 ; qtot   -0.545
        10            c9bf         1   UNL        c9        10    -0.07712       12.0110 ; qtot   -0.622
        11           c10bf         1   UNL       c10        11    -0.13204       12.0110 ; qtot   -0.754
        12           c11bf         1   UNL       c11        12     0.15907       12.0110 ; qtot   -0.595
        13           n12bf         1   UNL       n12        13    -0.13332       14.0070 ; qtot   -0.729
        14           n13bf         1   UNL       n13        14    -0.41361       14.0070 ; qtot   -1.142
        15           c14bf         1   UNL       c14        15     0.38382       12.0110 ; qtot   -0.758
        16           c15bf         1   UNL       c15        16    -0.20483       12.0110 ; qtot   -0.963
        17           c16bf         1   UNL       c16        17    -0.27047       12.0110 ; qtot   -1.234
        18           c17bf         1   UNL       c17        18     0.53165       12.0110 ; qtot   -0.702
        19           o18bf         1   UNL       o18        19    -0.53905       15.9990 ; qtot   -1.241
        20           c19bf         1   UNL       c19        20    -0.06260       12.0110 ; qtot   -1.304
        21           c20bf         1   UNL       c20        21    -0.13315       12.0110 ; qtot   -1.437
        22           c21bf         1   UNL       c21        22     0.18511       12.0110 ; qtot   -1.252
        23           f22bf         1   UNL       f22        23    -0.17136       18.9980 ; qtot   -1.423
        24           c23bf         1   UNL       c23        24    -0.17623       12.0110 ; qtot   -1.599
        25           c24bf         1   UNL       c24        25     0.18511       12.0110 ; qtot   -1.414
        26           f25bf         1   UNL       f25        26    -0.17136       18.9980 ; qtot   -1.586
        27           c26bf         1   UNL       c26        27    -0.13315       12.0110 ; qtot   -1.719
        28           c27bf         1   UNL       c27        28    -0.04098       12.0110 ; qtot   -1.760
        29           h28bf         1   UNL       h28        29     0.05912        1.0080 ; qtot   -1.701
        30           h29bf         1   UNL       h29        30     0.05912        1.0080 ; qtot   -1.641
        31           h30bf         1   UNL       h30        31     0.05912        1.0080 ; qtot   -1.582
        32           h31bf         1   UNL       h31        32     0.04699        1.0080 ; qtot   -1.535
        33           h32bf         1   UNL       h32        33     0.13141        1.0080 ; qtot   -1.404
        34           h33bf         1   UNL       h33        34     0.11909        1.0080 ; qtot   -1.285
        35           h34bf         1   UNL       h34        35     0.12344        1.0080 ; qtot   -1.161
        36           h35bf         1   UNL       h35        36     0.08022        1.0080 ; qtot   -1.081
        37           h36bf         1   UNL       h36        37     0.08022        1.0080 ; qtot   -1.001
        38           h37bf         1   UNL       h37        38     0.20036        1.0080 ; qtot   -0.801
        39           h38bf         1   UNL       h38        39     0.21660        1.0080 ; qtot   -0.584
        40           h39bf         1   UNL       h39        40     0.14507        1.0080 ; qtot   -0.439
        41           h40bf         1   UNL       h40        41     0.15622        1.0080 ; qtot   -0.283
        42           h41bf         1   UNL       h41        42     0.14507        1.0080 ; qtot   -0.138
        43           h42bf         1   UNL       h42        43     0.13762        1.0080 ; qtot    0.000

[ bonds ]
;       ai        aj funct               r               k
         1         2     1        0.148716   236242.879492
         1        29     1        0.109382   303259.966699
         1        30     1        0.109382   303259.966699
         1        31     1        0.109382   303259.966699
         2         3     1        0.137988   208781.983057
         2         6     1        0.136460   393970.664893
         3         4     1        0.137213   188565.300586
         4         5     1        0.130558   392472.938965
         4         7     1        0.145965   230904.704297
         5         6     1        0.138800   243490.489893
         6        32     1        0.108134   337076.104785
         7         8     1        0.140612   290089.330225
         7        28     1        0.140409   291375.353516
         8         9     1        0.139442   320148.780762
         8        33     1        0.108436   324247.818799
         9        10     1        0.139822   307897.505762
         9        34     1        0.108616   319897.929736
        10        11     1        0.140187   291676.436035
        10        35     1        0.108639   318468.438965
        11        12     1        0.151530   196210.153491
        11        28     1        0.139623   304068.982324
        12        13     1        0.147609   170063.639307
        12        36     1        0.109005   307731.029346
        12        37     1        0.109005   307731.029346
        13        14     1        0.134329   260852.455518
        13        18     1        0.140843   163226.039966
        14        15     1        0.131532   385896.852393
        15        16     1        0.143758   228805.707129
        15        20     1        0.148335   209788.579297
        16        17     1        0.135943   427987.243750
        16        38     1        0.108511   322270.505957
        17        18     1        0.145315   222731.909961
        17        39     1        0.108453   327898.374121
        18        19     1        0.123473   582908.373145
        20        21     1        0.140422   291361.563477
        20        27     1        0.140422   291361.537939
        21        22     1        0.138920   313457.802734
        21        40     1        0.108416   325553.071533
        22        23     1        0.135453   293002.246143
        22        24     1        0.139184   305134.084082
        24        25     1        0.139184   305134.084082
        24        41     1        0.108383   329735.283936
        25        26     1        0.135453   293002.246143
        25        27     1        0.138920   313457.751660
        27        42     1        0.108416   325553.045996
        28        43     1        0.108500   322176.835840

[ angles ]
;       ai        aj        ak funct           theta             cth
         1         2         3     1      117.663246      600.445817
         1         2         6     1      135.472076      402.213942
         2         1        29     1      110.719437      497.850704
         2         1        30     1      110.719437      497.850704
         2         1        31     1      110.719437      497.850704
         2         3         4     1      105.413040      390.419596
         2         6         5     1      109.951355      167.360000
         2         6        32     1      128.585159      345.077022
         3         2         6     1      106.854935      167.360000
         3         4         5     1      112.957901      167.360000
         3         4         7     1      118.462868      518.166911
         4         5         6     1      105.017433      400.668148
         4         7         8     1      120.170670      529.055551
         4         7        28     1      119.990967      481.912738
         5         4         7     1      128.494324      364.498696
         5         6        32     1      121.842430      363.816982
         7         8         9     1      119.696411      687.632573
         7         8        33     1      119.467148      441.546421
         7        28        11     1      120.498451      685.169646
         7        28        43     1      119.018410      423.958567
         8         7        28     1      119.536819      650.159291
         8         9        10     1      120.338844      724.495646
         8         9        34     1      119.810951      437.645947
         9         8        33     1      120.678123      418.549743
         9        10        11     1      120.236984      696.850384
         9        10        35     1      120.141029      422.683786
        10         9        34     1      119.928040      433.398966
        10        11        12     1      120.327942      510.513279
        10        11        28     1      119.366356      731.697047
        11        10        35     1      119.684547      387.551204
        11        12        13     1      112.015259      481.800311
        11        12        36     1      110.908180      460.421920
        11        12        37     1      110.908180      460.421920
        11        28        43     1      119.823013      382.407072
        12        11        28     1      120.237953      466.123239
        12        13        14     1      115.048035      530.742085
        12        13        18     1      118.386681      582.385399
        13        12        36     1      106.576157      547.884572
        13        12        37     1      106.576157      547.884572
        13        14        15     1      118.961220      469.877609
        13        18        17     1      113.384048      841.521301
        13        18        19     1      120.897690      657.687567
        14        13        18     1      126.285873      626.788622
        14        15        16     1      120.957664      605.734233
        14        15        20     1      116.403854      474.728415
        15        16        17     1      119.772232      754.938561
        15        16        38     1      119.792664      413.722815
        15        20        21     1      120.173340      502.618769
        15        20        27     1      120.173340      502.618769
        16        15        20     1      122.132950      560.325422
        16        17        18     1      120.825829      851.397586
        16        17        39     1      122.663757      418.560373
        17        16        38     1      120.435448      423.448112
        17        18        19     1      125.412392      492.999259
        18        17        39     1      116.227783      462.415251
        20        21        22     1      118.851624      676.766086
        20        21        40     1      121.437241      415.867102
        20        27        25     1      118.851624      676.766086
        20        27        42     1      121.437241      415.867102
        21        20        27     1      119.538841      609.508937
        21        22        23     1      118.631714      539.458986
        21        22        24     1      123.013466      615.042573
        22        21        40     1      119.635216      433.104523
        22        24        25     1      116.444824      693.663161
        22        24        41     1      121.754539      420.766843
        23        22        24     1      118.254990      546.814568
        24        25        26     1      118.254990      546.814568
        24        25        27     1      123.013451      615.042573
        25        24        41     1      121.754562      420.766843
        25        27        42     1      119.635216      433.104523
        26        25        27     1      118.631699      539.458986
        29         1        30     1      108.253845      359.728427
        29         1        31     1      108.253845      359.728427
        30         1        31     1      108.253845      359.728427
        36        12        37     1      109.373024      342.641420

[ dihedrals ] ; propers for gromacs 4.5 or higher, use funct 9
;       ai        aj        ak        al funct           phase               k        pn
         1         2         3         4     9        0.000000        0.314119         1
         1         2         3         4     9      180.000000        8.284153         2
         1         2         3         4     9        0.000000        0.764972         3
         1         2         3         4     9      180.000000       -0.105321         4
         1         2         6         5     9        0.000000        0.536330         1
         1         2         6         5     9      180.000000       19.454671         2
         1         2         6         5     9        0.000000        0.082699         3
         1         2         6         5     9      180.000000       -1.332876         4
         1         2         6        32     9        0.000000       -0.114793         1
         1         2         6        32     9      180.000000       10.971807         2
         1         2         6        32     9        0.000000       -0.059714         3
         1         2         6        32     9      180.000000        0.039661         4
         2         3         4         5     9        0.000000       -0.428317         1
         2         3         4         5     9      180.000000       29.735687         2
         2         3         4         5     9        0.000000       -6.224395         3
         2         3         4         5     9      180.000000       -0.012829         4
         2         3         4         7     9        0.000000        0.209984         1
         2         3         4         7     9      180.000000       15.354828         2
         2         3         4         7     9        0.000000        0.648418         3
         2         3         4         7     9      180.000000       -0.766519         4
         2         6         5         4     9        0.000000       -0.159166         1
         2         6         5         4     9      180.000000       29.105757         2
         2         6         5         4     9        0.000000       -5.274523         3
         2         6         5         4     9      180.000000       -0.117600         4
         3         2         1        29     9        0.000000       -0.031578         1
         3         2         1        29     9      180.000000        0.053769         2
         3         2         1        29     9        0.000000        0.525473         3
         3         2         1        29     9      180.000000        0.020849         4
         3         2         1        30     9        0.000000       -0.031578         1
         3         2         1        30     9      180.000000        0.053769         2
         3         2         1        30     9        0.000000        0.525473         3
         3         2         1        30     9      180.000000        0.020849         4
         3         2         1        31     9        0.000000       -0.031578         1
         3         2         1        31     9      180.000000        0.053769         2
         3         2         1        31     9        0.000000        0.525473         3
         3         2         1        31     9      180.000000        0.020849         4
         3         2         6         5     9        0.000000       -0.173212         1
         3         2         6         5     9      180.000000       39.848848         2
         3         2         6         5     9        0.000000       -7.861893         3
         3         2         6         5     9      180.000000       -0.326747         4
         3         2         6        32     9        0.000000        0.337641         1
         3         2         6        32     9      180.000000       19.031615         2
         3         2         6        32     9        0.000000       -0.578827         3
         3         2         6        32     9      180.000000       -0.363791         4
         3         4         5         6     9        0.000000       -0.290817         1
         3         4         5         6     9      180.000000       39.931732         2
         3         4         5         6     9        0.000000       -5.541614         3
         3         4         5         6     9      180.000000        0.174837         4
         3         4         7         8     9        0.000000       -0.125484         1
         3         4         7         8     9      180.000000        3.786647         2
         3         4         7         8     9        0.000000       -0.086257         3
         3         4         7         8     9      180.000000        0.089854         4
         3         4         7        28     9        0.000000       -0.056051         1
         3         4         7        28     9      180.000000        3.818851         2
         3         4         7        28     9        0.000000       -0.044286         3
         3         4         7        28     9      180.000000        0.117456         4
         4         3         2         6     9        0.000000        0.160913         1
         4         3         2         6     9      180.000000       22.827281         2
         4         3         2         6     9        0.000000       -6.164354         3
         4         3         2         6     9      180.000000       -0.220650         4
         4         5         6        32     9        0.000000        1.844636         1
         4         5         6        32     9      180.000000       18.186923         2
         4         5         6        32     9        0.000000        0.454435         3
         4         5         6        32     9      180.000000       -0.619509         4
         4         7         8         9     9        0.000000        0.083497         1
         4         7         8         9     9      180.000000       15.092545         2
         4         7         8         9     9        0.000000       -0.314940         3
         4         7         8         9     9      180.000000       -0.273265         4
         4         7         8        33     9        0.000000       -0.111251         1
         4         7         8        33     9      180.000000       12.300543         2
         4         7         8        33     9        0.000000       -0.343243         3
         4         7         8        33     9      180.000000        0.143902         4
         4         7        28        11     9        0.000000        0.192539         1
         4         7        28        11     9      180.000000       15.117911         2
         4         7        28        11     9        0.000000       -0.229380         3
         4         7        28        11     9      180.000000       -0.304174         4
         4         7        28        43     9        0.000000       -0.049707         1
         4         7        28        43     9      180.000000       12.423886         2
         4         7        28        43     9        0.000000       -0.266353         3
         4         7        28        43     9      180.000000        0.141744         4
         5         4         7         8     9        0.000000        0.210753         1
         5         4         7         8     9      180.000000        3.526350         2
         5         4         7         8     9        0.000000        0.074351         3
         5         4         7         8     9      180.000000       -0.082615         4
         5         4         7        28     9        0.000000        0.174963         1
         5         4         7        28     9      180.000000        3.568211         2
         5         4         7        28     9        0.000000        0.071642         3
         5         4         7        28     9      180.000000       -0.060639         4
         6         2         1        29     9        0.000000       -0.025281         1
         6         2         1        29     9      180.000000       -0.041535         2
         6         2         1        29     9        0.000000       -0.220162         3
         6         2         1        29     9      180.000000        0.015344         4
         6         2         1        30     9        0.000000       -0.025281         1
         6         2         1        30     9      180.000000       -0.041535         2
         6         2         1        30     9        0.000000       -0.220162         3
         6         2         1        30     9      180.000000        0.015344         4
         6         2         1        31     9        0.000000       -0.025281         1
         6         2         1        31     9      180.000000       -0.041535         2
         6         2         1        31     9        0.000000       -0.220162         3
         6         2         1        31     9      180.000000        0.015344         4
         6         5         4         7     9        0.000000        0.309071         1
         6         5         4         7     9      180.000000       28.387296         2
         6         5         4         7     9        0.000000        1.211176         3
         6         5         4         7     9      180.000000       -0.933510         4
         7         8         9        10     9        0.000000       -0.066640         1
         7         8         9        10     9      180.000000       19.163468         2
         7         8         9        10     9        0.000000       -1.609927         3
         7         8         9        10     9      180.000000       -0.388392         4
         7         8         9        34     9        0.000000       -0.054449         1
         7         8         9        34     9      180.000000       15.043605         2
         7         8         9        34     9        0.000000       -0.500999         3
         7         8         9        34     9      180.000000        0.127913         4
         7        28        11        10     9        0.000000       -0.093355         1
         7        28        11        10     9      180.000000       19.349043         2
         7        28        11        10     9        0.000000       -1.418439         3
         7        28        11        10     9      180.000000       -0.480596         4
         7        28        11        12     9        0.000000       -0.014694         1
         7        28        11        12     9      180.000000       16.385056         2
         7        28        11        12     9        0.000000       -0.292556         3
         7        28        11        12     9      180.000000       -0.384732         4
         8         7        28        11     9        0.000000       -0.024624         1
         8         7        28        11     9      180.000000       17.462942         2
         8         7        28        11     9        0.000000       -1.206486         3
         8         7        28        11     9      180.000000       -0.365990         4
         8         7        28        43     9        0.000000        0.148847         1
         8         7        28        43     9      180.000000       13.357432         2
         8         7        28        43     9        0.000000       -0.579837         3
         8         7        28        43     9      180.000000        0.064893         4
         8         9        10        11     9        0.000000        0.095419         1
         8         9        10        11     9      180.000000       17.901753         2
         8         9        10        11     9        0.000000       -1.341618         3
         8         9        10        11     9      180.000000       -0.397165         4
         8         9        10        35     9        0.000000        0.166338         1
         8         9        10        35     9      180.000000       14.107367         2
         8         9        10        35     9        0.000000       -0.657039         3
         8         9        10        35     9      180.000000        0.082561         4
         9         8         7        28     9        0.000000       -0.138679         1
         9         8         7        28     9      180.000000       17.750450         2
         9         8         7        28     9        0.000000       -1.321739         3
         9         8         7        28     9      180.000000       -0.336717         4
         9        10        11        12     9        0.000000        0.062300         1
         9        10        11        12     9      180.000000       15.905862         2
         9        10        11        12     9        0.000000       -0.315845         3
         9        10        11        12     9      180.000000       -0.273629         4
         9        10        11        28     9        0.000000       -0.131527         1
         9        10        11        28     9      180.000000       18.673459         2
         9        10        11        28     9        0.000000       -1.215058         3
         9        10        11        28     9      180.000000       -0.429961         4
        10         9         8        33     9        0.000000        0.018516         1
        10         9         8        33     9      180.000000       14.855701         2
        10         9         8        33     9        0.000000       -0.697611         3
        10         9         8        33     9      180.000000        0.115488         4
        10        11        12        13     9        0.000000        0.029454         1
        10        11        12        13     9      180.000000        0.281469         2
        10        11        12        13     9        0.000000        0.078860         3
        10        11        12        13     9      180.000000        0.033001         4
        10        11        12        36     9        0.000000       -0.017006         1
        10        11        12        36     9      180.000000       -0.038045         2
        10        11        12        36     9        0.000000        0.001808         3
        10        11        12        36     9      180.000000        0.005890         4
        10        11        12        37     9        0.000000       -0.017006         1
        10        11        12        37     9      180.000000       -0.038045         2
        10        11        12        37     9        0.000000        0.001808         3
        10        11        12        37     9      180.000000        0.005890         4
        10        11        28        43     9        0.000000       -0.058529         1
        10        11        28        43     9      180.000000       14.561797         2
        10        11        28        43     9        0.000000       -0.639618         3
        10        11        28        43     9      180.000000        0.044877         4
        11        10         9        34     9        0.000000        0.124687         1
        11        10         9        34     9      180.000000       14.673405         2
        11        10         9        34     9        0.000000       -0.637149         3
        11        10         9        34     9      180.000000        0.065060         4
        11        12        13        14     9        0.000000       -2.106212         1
        11        12        13        14     9      180.000000       -0.797776         2
        11        12        13        14     9        0.000000        0.245747         3
        11        12        13        14     9      180.000000       -0.040733         4
        11        12        13        18     9        0.000000       -0.263737         1
        11        12        13        18     9      180.000000       -1.951786         2
        11        12        13        18     9        0.000000        0.583285         3
        11        12        13        18     9      180.000000       -0.278733         4
        12        11        10        35     9        0.000000       -0.086837         1
        12        11        10        35     9      180.000000       13.029073         2
        12        11        10        35     9        0.000000       -0.450657         3
        12        11        10        35     9      180.000000        0.109873         4
        12        11        28        43     9        0.000000       -0.214473         1
        12        11        28        43     9      180.000000       13.200661         2
        12        11        28        43     9        0.000000       -0.513062         3
        12        11        28        43     9      180.000000        0.153836         4
        12        13        14        15     9        0.000000        2.137356         1
        12        13        14        15     9      180.000000       14.311581         2
        12        13        14        15     9        0.000000        0.842812         3
        12        13        14        15     9      180.000000       -0.492492         4
        12        13        18        17     9        0.000000        0.724863         1
        12        13        18        17     9      180.000000        9.240876         2
        12        13        18        17     9        0.000000        0.501435         3
        12        13        18        17     9      180.000000       -0.193002         4
        12        13        18        19     9        0.000000       -0.194580         1
        12        13        18        19     9      180.000000       10.127987         2
        12        13        18        19     9        0.000000       -1.046514         3
        12        13        18        19     9      180.000000        0.094108         4
        13        12        11        28     9        0.000000        0.044687         1
        13        12        11        28     9      180.000000        0.342231         2
        13        12        11        28     9        0.000000        0.007066         3
        13        12        11        28     9      180.000000        0.047235         4
        13        14        15        16     9        0.000000       -0.095195         1
        13        14        15        16     9      180.000000       35.957180         2
        13        14        15        16     9        0.000000       -0.620289         3
        13        14        15        16     9      180.000000       -1.050184         4
        13        14        15        20     9        0.000000       -0.084948         1
        13        14        15        20     9      180.000000       34.972014         2
        13        14        15        20     9        0.000000        1.945584         3
        13        14        15        20     9      180.000000       -1.589659         4
        13        18        17        16     9        0.000000        1.364779         1
        13        18        17        16     9      180.000000        2.014246         2
        13        18        17        16     9        0.000000        0.435102         3
        13        18        17        16     9      180.000000        0.007037         4
        13        18        17        39     9        0.000000        0.158353         1
        13        18        17        39     9      180.000000        4.595400         2
        13        18        17        39     9        0.000000       -0.019784         3
        13        18        17        39     9      180.000000        0.196144         4
        14        13        12        36     9        0.000000        0.297991         1
        14        13        12        36     9      180.000000        0.078464         2
        14        13        12        36     9        0.000000        0.020180         3
        14        13        12        36     9      180.000000        0.085778         4
        14        13        12        37     9        0.000000        0.297991         1
        14        13        12        37     9      180.000000        0.078464         2
        14        13        12        37     9        0.000000        0.020180         3
        14        13        12        37     9      180.000000        0.085778         4
        14        13        18        17     9        0.000000        1.359758         1
        14        13        18        17     9      180.000000        2.455735         2
        14        13        18        17     9        0.000000        0.532356         3
        14        13        18        17     9      180.000000        0.115454         4
        14        13        18        19     9        0.000000       -0.191705         1
        14        13        18        19     9      180.000000        9.009476         2
        14        13        18        19     9        0.000000       -0.415666         3
        14        13        18        19     9      180.000000       -0.488867         4
        14        15        16        17     9        0.000000       -0.206460         1
        14        15        16        17     9      180.000000       12.226660         2
        14        15        16        17     9        0.000000       -0.564200         3
        14        15        16        17     9      180.000000       -0.418999         4
        14        15        16        38     9        0.000000        0.005072         1
        14        15        16        38     9      180.000000        9.301369         2
        14        15        16        38     9        0.000000       -0.286036         3
        14        15        16        38     9      180.000000       -0.092564         4
        14        15        20        21     9        0.000000       -0.217068         1
        14        15        20        21     9      180.000000        3.789456         2
        14        15        20        21     9        0.000000        0.058358         3
        14        15        20        21     9      180.000000        0.006680         4
        14        15        20        27     9        0.000000       -0.217067         1
        14        15        20        27     9      180.000000        3.789456         2
        14        15        20        27     9        0.000000        0.058358         3
        14        15        20        27     9      180.000000        0.006680         4
        15        14        13        18     9        0.000000        2.064315         1
        15        14        13        18     9      180.000000        8.395512         2
        15        14        13        18     9        0.000000        0.337796         3
        15        14        13        18     9      180.000000       -0.016133         4
        15        16        17        18     9        0.000000       -0.116202         1
        15        16        17        18     9      180.000000       21.080768         2
        15        16        17        18     9        0.000000       -0.986321         3
        15        16        17        18     9      180.000000       -0.634462         4
        15        16        17        39     9        0.000000       -0.069936         1
        15        16        17        39     9      180.000000       17.292472         2
        15        16        17        39     9        0.000000       -0.374657         3
        15        16        17        39     9      180.000000       -0.069790         4
        15        20        21        22     9        0.000000        0.230762         1
        15        20        21        22     9      180.000000       16.209562         2
        15        20        21        22     9        0.000000       -0.089588         3
        15        20        21        22     9      180.000000       -0.387375         4
        15        20        21        40     9        0.000000       -0.081645         1
        15        20        21        40     9      180.000000       12.448686         2
        15        20        21        40     9        0.000000       -0.389032         3
        15        20        21        40     9      180.000000        0.225184         4
        15        20        27        25     9        0.000000        0.230763         1
        15        20        27        25     9      180.000000       16.209562         2
        15        20        27        25     9        0.000000       -0.089588         3
        15        20        27        25     9      180.000000       -0.387374         4
        15        20        27        42     9        0.000000       -0.081645         1
        15        20        27        42     9      180.000000       12.448684         2
        15        20        27        42     9        0.000000       -0.389032         3
        15        20        27        42     9      180.000000        0.225185         4
        16        15        20        21     9        0.000000        0.162649         1
        16        15        20        21     9      180.000000        3.891274         2
        16        15        20        21     9        0.000000        0.150493         3
        16        15        20        21     9      180.000000       -0.119046         4
        16        15        20        27     9        0.000000        0.162649         1
        16        15        20        27     9      180.000000        3.891274         2
        16        15        20        27     9        0.000000        0.150493         3
        16        15        20        27     9      180.000000       -0.119046         4
        16        17        18        19     9        0.000000        0.373567         1
        16        17        18        19     9      180.000000        6.488703         2
        16        17        18        19     9        0.000000        0.040900         3
        16        17        18        19     9      180.000000       -0.219160         4
        17        16        15        20     9        0.000000        0.033405         1
        17        16        15        20     9      180.000000       12.689562         2
        17        16        15        20     9        0.000000       -0.240009         3
        17        16        15        20     9      180.000000       -0.455245         4
        18        13        12        36     9        0.000000       -0.044506         1
        18        13        12        36     9      180.000000        0.147445         2
        18        13        12        36     9        0.000000        0.145499         3
        18        13        12        36     9      180.000000        0.114507         4
        18        13        12        37     9        0.000000       -0.044506         1
        18        13        12        37     9      180.000000        0.147445         2
        18        13        12        37     9        0.000000        0.145499         3
        18        13        12        37     9      180.000000        0.114507         4
        18        17        16        38     9        0.000000        0.380985         1
        18        17        16        38     9      180.000000       17.184468         2
        18        17        16        38     9        0.000000       -0.152610         3
        18        17        16        38     9      180.000000       -0.094194         4
        19        18        17        39     9        0.000000       -1.098767         1
        19        18        17        39     9      180.000000        8.614287         2
        19        18        17        39     9        0.000000       -0.424066         3
        19        18        17        39     9      180.000000       -0.304321         4
        20        15        16        38     9        0.000000        0.013891         1
        20        15        16        38     9      180.000000       11.598305         2
        20        15        16        38     9        0.000000       -0.325133         3
        20        15        16        38     9      180.000000        0.059480         4
        20        21        22        23     9        0.000000        0.430937         1
        20        21        22        23     9      180.000000       23.370776         2
        20        21        22        23     9        0.000000        0.760673         3
        20        21        22        23     9      180.000000       -0.889888         4
        20        21        22        24     9        0.000000        0.038045         1
        20        21        22        24     9      180.000000       17.837120         2
        20        21        22        24     9        0.000000       -1.166641         3
        20        21        22        24     9      180.000000       -0.381872         4
        20        27        25        24     9        0.000000        0.038045         1
        20        27        25        24     9      180.000000       17.837118         2
        20        27        25        24     9        0.000000       -1.166641         3
        20        27        25        24     9      180.000000       -0.381871         4
        20        27        25        26     9        0.000000        0.430936         1
        20        27        25        26     9      180.000000       23.370774         2
        20        27        25        26     9        0.000000        0.760672         3
        20        27        25        26     9      180.000000       -0.889889         4
        21        20        27        25     9        0.000000       -0.342302         1
        21        20        27        25     9      180.000000       18.810098         2
        21        20        27        25     9        0.000000       -1.588451         3
        21        20        27        25     9      180.000000       -0.363249         4
        21        20        27        42     9        0.000000       -0.052324         1
        21        20        27        42     9      180.000000       13.948479         2
        21        20        27        42     9        0.000000       -0.577384         3
        21        20        27        42     9      180.000000        0.093952         4
        21        22        24        25     9        0.000000       -0.143238         1
        21        22        24        25     9      180.000000       17.087450         2
        21        22        24        25     9        0.000000       -1.147459         3
        21        22        24        25     9      180.000000       -0.384531         4
        21        22        24        41     9        0.000000        0.098565         1
        21        22        24        41     9      180.000000       12.433916         2
        21        22        24        41     9        0.000000       -0.442854         3
        21        22        24        41     9      180.000000        0.130980         4
        22        21        20        27     9        0.000000       -0.342302         1
        22        21        20        27     9      180.000000       18.810096         2
        22        21        20        27     9        0.000000       -1.588451         3
        22        21        20        27     9      180.000000       -0.363249         4
        22        24        25        26     9        0.000000        0.347297         1
        22        24        25        26     9      180.000000       23.388429         2
        22        24        25        26     9        0.000000        0.623001         3
        22        24        25        26     9      180.000000       -0.798052         4
        22        24        25        27     9        0.000000       -0.143237         1
        22        24        25        27     9      180.000000       17.087450         2
        22        24        25        27     9        0.000000       -1.147458         3
        22        24        25        27     9      180.000000       -0.384531         4
        23        22        21        40     9        0.000000        0.333426         1
        23        22        21        40     9      180.000000       16.367779         2
        23        22        21        40     9        0.000000        0.313595         3
        23        22        21        40     9      180.000000        0.089407         4
        23        22        24        25     9        0.000000        0.347297         1
        23        22        24        25     9      180.000000       23.388433         2
        23        22        24        25     9        0.000000        0.623000         3
        23        22        24        25     9      180.000000       -0.798053         4
        23        22        24        41     9        0.000000        0.299382         1
        23        22        24        41     9      180.000000       15.175832         2
        23        22        24        41     9        0.000000        0.237322         3
        23        22        24        41     9      180.000000        0.215427         4
        24        22        21        40     9        0.000000        0.126935         1
        24        22        21        40     9      180.000000       13.436919         2
        24        22        21        40     9        0.000000       -0.581726         3
        24        22        21        40     9      180.000000        0.110637         4
        24        25        27        42     9        0.000000        0.126936         1
        24        25        27        42     9      180.000000       13.436919         2
        24        25        27        42     9        0.000000       -0.581726         3
        24        25        27        42     9      180.000000        0.110636         4
        26        25        24        41     9        0.000000        0.299383         1
        26        25        24        41     9      180.000000       15.175831         2
        26        25        24        41     9        0.000000        0.237322         3
        26        25        24        41     9      180.000000        0.215426         4
        26        25        27        42     9        0.000000        0.333425         1
        26        25        27        42     9      180.000000       16.367779         2
        26        25        27        42     9        0.000000        0.313595         3
        26        25        27        42     9      180.000000        0.089406         4
        27        20        21        40     9        0.000000       -0.052323         1
        27        20        21        40     9      180.000000       13.948481         2
        27        20        21        40     9        0.000000       -0.577384         3
        27        20        21        40     9      180.000000        0.093952         4
        27        25        24        41     9        0.000000        0.098564         1
        27        25        24        41     9      180.000000       12.433917         2
        27        25        24        41     9        0.000000       -0.442854         3
        27        25        24        41     9      180.000000        0.130980         4
        28         7         8        33     9        0.000000       -0.009643         1
        28         7         8        33     9      180.000000       13.299405         2
        28         7         8        33     9        0.000000       -0.654723         3
        28         7         8        33     9      180.000000        0.084615         4
        28        11        10        35     9        0.000000       -0.032279         1
        28        11        10        35     9      180.000000       14.231488         2
        28        11        10        35     9        0.000000       -0.593331         3
        28        11        10        35     9      180.000000        0.003867         4
        28        11        12        36     9        0.000000       -0.017013         1
        28        11        12        36     9      180.000000       -0.006375         2
        28        11        12        36     9        0.000000       -0.061975         3
        28        11        12        36     9      180.000000        0.002132         4
        28        11        12        37     9        0.000000       -0.017013         1
        28        11        12        37     9      180.000000       -0.006375         2
        28        11        12        37     9        0.000000       -0.061975         3
        28        11        12        37     9      180.000000        0.002132         4
        33         8         9        34     9        0.000000       -0.240706         1
        33         8         9        34     9      180.000000       12.129191         2
        33         8         9        34     9        0.000000       -0.709691         3
        33         8         9        34     9      180.000000        0.342903         4
        34         9        10        35     9        0.000000       -0.102741         1
        34         9        10        35     9      180.000000       11.831449         2
        34         9        10        35     9        0.000000       -0.581766         3
        34         9        10        35     9      180.000000        0.228337         4
        38        16        17        39     9        0.000000       -0.176224         1
        38        16        17        39     9      180.000000       14.412884         2
        38        16        17        39     9        0.000000       -0.511875         3
        38        16        17        39     9      180.000000        0.397892         4

[ dihedrals ] ; impropers
;       ai        aj        ak        al funct           phase               k        pn
         4         3         5         7     4      180.000000        2.660701         2
         4         5         7         3     4      180.000000        2.660701         2
         4         7         3         5     4      180.000000        2.660701         2
         9         8        10        34     4      180.000000        2.776535         2
         9        10        34         8     4      180.000000        2.776535         2
         9        34         8        10     4      180.000000        2.776535         2
        10         9        11        35     4      180.000000        2.695277         2
        10        11        35         9     4      180.000000        2.695277         2
        10        35         9        11     4      180.000000        2.695277         2
        18        13        17        19     4      180.000000       27.780523         2
        18        17        19        13     4      180.000000       27.780523         2
        18        19        13        17     4      180.000000       27.780523         2
        22        21        23        24     4      180.000000        1.595244         2
        22        23        24        21     4      180.000000        1.595244         2
        22        24        21        23     4      180.000000        1.595244         2
        25        24        26        27     4      180.000000        1.595244         2
        25        26        27        24     4      180.000000        1.595244         2
        25        27        24        26     4      180.000000        1.595244         2
        28         7        11        43     4      180.000000        0.824346         2
        28        11        43         7     4      180.000000        0.824346         2
        28        43         7        11     4      180.000000        0.824346         2

[ pairs ]
;       ai        aj funct
         1         4     1
         1         5     1
         1        32     1
         2         7     1
         3         8     1
         3        28     1
         3        29     1
         3        30     1
         3        31     1
         3        32     1
         4         9     1
         4        11     1
         4        32     1
         4        33     1
         4        43     1
         5         8     1
         5        28     1
         6         7     1
         6        29     1
         6        30     1
         6        31     1
         7        10     1
         7        12     1
         7        34     1
         8        11     1
         8        35     1
         8        43     1
         9        12     1
         9        28     1
        10        13     1
        10        33     1
        10        36     1
        10        37     1
        10        43     1
        11        14     1
        11        18     1
        11        34     1
        12        15     1
        12        17     1
        12        19     1
        12        35     1
        12        43     1
        13        16     1
        13        20     1
        13        28     1
        13        39     1
        14        17     1
        14        19     1
        14        21     1
        14        27     1
        14        36     1
        14        37     1
        14        38     1
        15        18     1
        15        22     1
        15        25     1
        15        39     1
        15        40     1
        15        42     1
        16        19     1
        16        21     1
        16        27     1
        17        20     1
        18        36     1
        18        37     1
        18        38     1
        19        39     1
        20        23     1
        20        24     1
        20        26     1
        20        38     1
        21        25     1
        21        41     1
        21        42     1
        22        26     1
        22        27     1
        23        25     1
        23        40     1
        23        41     1
        24        40     1
        24        42     1
        26        41     1
        26        42     1
        27        40     1
        27        41     1
        28        33     1
        28        35     1
        28        36     1
        28        37     1
        33        34     1
        34        35     1
        38        39     1
