; ITP file created by ByteFF-ML, 2026-02-21 07:37:02.943663

[ atomtypes ]
;name           bonded.type        at.num        mass        charge   ptype           sigma         epsilon
 o0bf                                   8      0.0000       0.00000       A     3.04772e-01     6.11569e-01
 c1bf                                   6      0.0000       0.00000       A     3.31738e-01     4.11199e-01
 c2bf                                   6      0.0000       0.00000       A     3.31666e-01     4.12836e-01
 c3bf                                   6      0.0000       0.00000       A     3.31509e-01     4.14763e-01
 c4bf                                   6      0.0000       0.00000       A     3.31426e-01     4.13151e-01
 n5bf                                   7      0.0000       0.00000       A     3.38457e-01     3.91292e-01
 n6bf                                   7      0.0000       0.00000       A     3.18016e-01     6.86340e-01
 c7bf                                   6      0.0000       0.00000       A     3.39539e-01     4.50071e-01
 c8bf                                   6      0.0000       0.00000       A     3.31591e-01     4.14389e-01
 c9bf                                   6      0.0000       0.00000       A     3.31490e-01     4.12791e-01
 c10bf                                  6      0.0000       0.00000       A     3.31487e-01     4.13500e-01
 c11bf                                  6      0.0000       0.00000       A     3.31529e-01     4.13423e-01
 c12bf                                  6      0.0000       0.00000       A     3.31504e-01     4.11795e-01
 c13bf                                  6      0.0000       0.00000       A     3.31436e-01     4.13623e-01
 c14bf                                  6      0.0000       0.00000       A     3.31282e-01     4.12504e-01
 n15bf                                  7      0.0000       0.00000       A     3.38442e-01     3.92395e-01
 c16bf                                  6      0.0000       0.00000       A     3.31559e-01     4.12876e-01
 c17bf                                  6      0.0000       0.00000       A     3.31252e-01     4.12238e-01
 o18bf                                  8      0.0000       0.00000       A     3.15867e-01     3.04476e-01
 c19bf                                  6      0.0000       0.00000       A     3.39856e-01     4.52451e-01
 c20bf                                  6      0.0000       0.00000       A     3.39647e-01     4.50093e-01
 n21bf                                  7      0.0000       0.00000       A     3.36939e-01     3.58772e-01
 c22bf                                  6      0.0000       0.00000       A     3.39712e-01     4.49544e-01
 c23bf                                  6      0.0000       0.00000       A     3.39674e-01     4.51613e-01
 o24bf                                  8      0.0000       0.00000       A     3.15633e-01     3.04457e-01
 c25bf                                  6      0.0000       0.00000       A     3.39674e-01     4.51613e-01
 c26bf                                  6      0.0000       0.00000       A     3.39712e-01     4.49544e-01
 c27bf                                  6      0.0000       0.00000       A     3.31559e-01     4.12876e-01
 n28bf                                  7      0.0000       0.00000       A     3.38442e-01     3.92395e-01
 c29bf                                  6      0.0000       0.00000       A     3.31273e-01     4.12581e-01
 c30bf                                  6      0.0000       0.00000       A     3.31453e-01     4.12450e-01
 c31bf                                  6      0.0000       0.00000       A     3.31536e-01     4.13168e-01
 c32bf                                  6      0.0000       0.00000       A     3.31480e-01     4.13404e-01
 c33bf                                  6      0.0000       0.00000       A     3.31554e-01     4.14913e-01
 c34bf                                  6      0.0000       0.00000       A     3.31451e-01     4.12918e-01
 c35bf                                  6      0.0000       0.00000       A     3.48221e-01     6.70140e-01
 n36bf                                  7      0.0000       0.00000       A     3.27424e-01     4.58546e-01
 h37bf                                  1      0.0000       0.00000       A     2.62620e-01     6.80388e-02
 h38bf                                  1      0.0000       0.00000       A     2.62454e-01     6.74499e-02
 h39bf                                  1      0.0000       0.00000       A     2.41782e-01     8.82882e-02
 h40bf                                  1      0.0000       0.00000       A     2.41782e-01     8.82882e-02
 h41bf                                  1      0.0000       0.00000       A     2.62513e-01     6.77228e-02
 h42bf                                  1      0.0000       0.00000       A     2.62500e-01     6.73765e-02
 h43bf                                  1      0.0000       0.00000       A     2.62520e-01     6.73030e-02
 h44bf                                  1      0.0000       0.00000       A     2.62546e-01     6.76510e-02
 h45bf                                  1      0.0000       0.00000       A     2.53555e-01     6.66566e-02
 h46bf                                  1      0.0000       0.00000       A     2.42130e-01     8.75045e-02
 h47bf                                  1      0.0000       0.00000       A     2.42130e-01     8.75045e-02
 h48bf                                  1      0.0000       0.00000       A     2.42250e-01     8.72539e-02
 h49bf                                  1      0.0000       0.00000       A     2.42250e-01     8.72539e-02
 h50bf                                  1      0.0000       0.00000       A     2.42081e-01     8.72587e-02
 h51bf                                  1      0.0000       0.00000       A     2.42081e-01     8.72587e-02
 h52bf                                  1      0.0000       0.00000       A     2.42066e-01     8.75731e-02
 h53bf                                  1      0.0000       0.00000       A     2.42066e-01     8.75731e-02
 h54bf                                  1      0.0000       0.00000       A     2.42066e-01     8.75731e-02
 h55bf                                  1      0.0000       0.00000       A     2.42066e-01     8.75731e-02
 h56bf                                  1      0.0000       0.00000       A     2.42081e-01     8.72587e-02
 h57bf                                  1      0.0000       0.00000       A     2.42081e-01     8.72587e-02
 h58bf                                  1      0.0000       0.00000       A     2.53555e-01     6.66566e-02
 h59bf                                  1      0.0000       0.00000       A     2.62488e-01     6.75042e-02
 h60bf                                  1      0.0000       0.00000       A     2.62540e-01     6.75504e-02
 h61bf                                  1      0.0000       0.00000       A     2.62439e-01     6.70764e-02
 h62bf                                  1      0.0000       0.00000       A     2.62394e-01     6.75744e-02

[ moleculetype ]
;name             nrexcl
 CHEMBL3402761_1_redocked       3

[ atoms ]
;       nr            type      resi   res      atom      cgnr      charge          mass ; qtot
         1            o0bf         1   UNL        o0         1    -0.53905       15.9990 ; qtot   -0.539
         2            c1bf         1   UNL        c1         2     0.53165       12.0110 ; qtot   -0.007
         3            c2bf         1   UNL        c2         3    -0.27047       12.0110 ; qtot   -0.278
         4            c3bf         1   UNL        c3         4    -0.20511       12.0110 ; qtot   -0.483
         5            c4bf         1   UNL        c4         5     0.38405       12.0110 ; qtot   -0.099
         6            n5bf         1   UNL        n5         6    -0.41710       14.0070 ; qtot   -0.516
         7            n6bf         1   UNL        n6         7    -0.13331       14.0070 ; qtot   -0.649
         8            c7bf         1   UNL        c7         8     0.15914       12.0110 ; qtot   -0.490
         9            c8bf         1   UNL        c8         9    -0.13750       12.0110 ; qtot   -0.628
        10            c9bf         1   UNL        c9        10    -0.07941       12.0110 ; qtot   -0.707
        11           c10bf         1   UNL       c10        11    -0.12394       12.0110 ; qtot   -0.831
        12           c11bf         1   UNL       c11        12    -0.06104       12.0110 ; qtot   -0.892
        13           c12bf         1   UNL       c12        13    -0.15729       12.0110 ; qtot   -1.049
        14           c13bf         1   UNL       c13        14    -0.03283       12.0110 ; qtot   -1.082
        15           c14bf         1   UNL       c14        15     0.16879       12.0110 ; qtot   -0.913
        16           n15bf         1   UNL       n15        16    -0.15555       14.0070 ; qtot   -1.069
        17           c16bf         1   UNL       c16        17     0.05784       12.0110 ; qtot   -1.011
        18           c17bf         1   UNL       c17        18     0.03819       12.0110 ; qtot   -0.973
        19           o18bf         1   UNL       o18        19    -0.32995       15.9990 ; qtot   -1.303
        20           c19bf         1   UNL       c19        20     0.15399       12.0110 ; qtot   -1.149
        21           c20bf         1   UNL       c20        21     0.15645       12.0110 ; qtot   -0.992
        22           n21bf         1   UNL       n21        22    -0.73322       14.0070 ; qtot   -1.726
        23           c22bf         1   UNL       c22        23     0.13483       12.0110 ; qtot   -1.591
        24           c23bf         1   UNL       c23        24     0.13883       12.0110 ; qtot   -1.452
        25           o24bf         1   UNL       o24        25    -0.46169       15.9990 ; qtot   -1.914
        26           c25bf         1   UNL       c25        26     0.13883       12.0110 ; qtot   -1.775
        27           c26bf         1   UNL       c26        27     0.13483       12.0110 ; qtot   -1.640
        28           c27bf         1   UNL       c27        28     0.05784       12.0110 ; qtot   -1.582
        29           n28bf         1   UNL       n28        29    -0.15555       14.0070 ; qtot   -1.738
        30           c29bf         1   UNL       c29        30    -0.11675       12.0110 ; qtot   -1.854
        31           c30bf         1   UNL       c30        31    -0.06042       12.0110 ; qtot   -1.915
        32           c31bf         1   UNL       c31        32    -0.12051       12.0110 ; qtot   -2.035
        33           c32bf         1   UNL       c32        33    -0.06477       12.0110 ; qtot   -2.100
        34           c33bf         1   UNL       c33        34    -0.01845       12.0110 ; qtot   -2.119
        35           c34bf         1   UNL       c34        35    -0.04387       12.0110 ; qtot   -2.163
        36           c35bf         1   UNL       c35        36     0.31461       12.0110 ; qtot   -1.848
        37           n36bf         1   UNL       n36        37    -0.44246       14.0070 ; qtot   -2.290
        38           h37bf         1   UNL       h37        38     0.21660        1.0080 ; qtot   -2.074
        39           h38bf         1   UNL       h38        39     0.20036        1.0080 ; qtot   -1.873
        40           h39bf         1   UNL       h39        40     0.08014        1.0080 ; qtot   -1.793
        41           h40bf         1   UNL       h40        41     0.08014        1.0080 ; qtot   -1.713
        42           h41bf         1   UNL       h41        42     0.12316        1.0080 ; qtot   -1.590
        43           h42bf         1   UNL       h42        43     0.11635        1.0080 ; qtot   -1.474
        44           h43bf         1   UNL       h43        44     0.13364        1.0080 ; qtot   -1.340
        45           h44bf         1   UNL       h44        45     0.13962        1.0080 ; qtot   -1.200
        46           h45bf         1   UNL       h45        46     0.03802        1.0080 ; qtot   -1.162
        47           h46bf         1   UNL       h46        47     0.05132        1.0080 ; qtot   -1.111
        48           h47bf         1   UNL       h47        48     0.05132        1.0080 ; qtot   -1.060
        49           h48bf         1   UNL       h48        49     0.04575        1.0080 ; qtot   -1.014
        50           h49bf         1   UNL       h49        50     0.04575        1.0080 ; qtot   -0.968
        51           h50bf         1   UNL       h50        51     0.05117        1.0080 ; qtot   -0.917
        52           h51bf         1   UNL       h51        52     0.05117        1.0080 ; qtot   -0.866
        53           h52bf         1   UNL       h52        53     0.05014        1.0080 ; qtot   -0.816
        54           h53bf         1   UNL       h53        54     0.05014        1.0080 ; qtot   -0.766
        55           h54bf         1   UNL       h54        55     0.05014        1.0080 ; qtot   -0.715
        56           h55bf         1   UNL       h55        56     0.05014        1.0080 ; qtot   -0.665
        57           h56bf         1   UNL       h56        57     0.05117        1.0080 ; qtot   -0.614
        58           h57bf         1   UNL       h57        58     0.05117        1.0080 ; qtot   -0.563
        59           h58bf         1   UNL       h58        59     0.03802        1.0080 ; qtot   -0.525
        60           h59bf         1   UNL       h59        60     0.12693        1.0080 ; qtot   -0.398
        61           h60bf         1   UNL       h60        61     0.12882        1.0080 ; qtot   -0.269
        62           h61bf         1   UNL       h61        62     0.13048        1.0080 ; qtot   -0.139
        63           h62bf         1   UNL       h62        63     0.13871        1.0080 ; qtot    0.000

[ bonds ]
;       ai        aj funct               r               k
         1         2     1        0.123473   582908.322070
         2         3     1        0.145315   222731.909961
         2         7     1        0.140843   163226.039966
         3         4     1        0.135943   427987.243750
         3        38     1        0.108453   327898.374121
         4         5     1        0.143764   228458.147070
         4        39     1        0.108511   322270.480420
         5         6     1        0.131529   385871.596191
         5        30     1        0.148297   210252.052295
         6         7     1        0.134329   260852.455518
         7         8     1        0.147613   169992.863208
         8         9     1        0.151528   196206.042017
         8        40     1        0.109005   307715.094189
         8        41     1        0.109005   307715.094189
         9        10     1        0.140196   291895.084766
         9        14     1        0.139683   302833.624658
        10        11     1        0.139822   308159.771875
        10        42     1        0.108642   318341.519531
        11        12     1        0.139464   319479.861719
        11        43     1        0.108635   319128.624316
        12        13     1        0.140606   289246.733301
        12        44     1        0.108404   325012.297705
        13        14     1        0.140413   290599.561670
        13        15     1        0.148253   201473.722021
        14        45     1        0.108475   322864.116064
        15        16     1        0.134640   264702.506738
        15        29     1        0.134640   264702.532275
        16        17     1        0.133366   343073.035254
        17        18     1        0.140156   279150.075293
        17        46     1        0.108731   317364.980469
        18        19     1        0.136127   282335.497705
        18        28     1        0.140156   279150.075293
        19        20     1        0.143375   186829.594336
        20        21     1        0.153089   183876.891602
        20        47     1        0.109580   293086.697363
        20        48     1        0.109580   293086.697363
        21        22     1        0.146022   197182.415088
        21        49     1        0.109882   283990.174707
        21        50     1        0.109882   283990.174707
        22        23     1        0.147024   188317.526782
        22        27     1        0.147024   188317.526782
        23        24     1        0.152824   183615.251147
        23        51     1        0.109798   285766.970166
        23        52     1        0.109798   285766.970166
        24        25     1        0.143083   197384.554077
        24        53     1        0.109656   290631.559668
        24        54     1        0.109656   290631.559668
        25        26     1        0.143083   197384.554077
        26        27     1        0.152824   183615.251147
        26        55     1        0.109656   290631.559668
        26        56     1        0.109656   290631.559668
        27        57     1        0.109798   285766.970166
        27        58     1        0.109798   285766.970166
        28        29     1        0.133366   343073.035254
        28        59     1        0.108731   317365.031543
        30        31     1        0.140545   286992.521582
        30        35     1        0.140143   293007.302490
        31        32     1        0.139671   316560.587061
        31        60     1        0.108503   322172.239160
        32        33     1        0.139490   313891.856982
        32        61     1        0.108550   322931.176514
        33        34     1        0.140619   290044.231689
        33        62     1        0.108482   325629.197656
        34        35     1        0.140332   298407.737158
        34        36     1        0.143713   269609.028174
        35        63     1        0.108437   325210.950879
        36        37     1        0.116528  1106543.378906

[ angles ]
;       ai        aj        ak funct           theta             cth
         1         2         3     1      125.412392      492.999259
         1         2         7     1      120.897690      657.687567
         2         3         4     1      120.825829      851.397650
         2         3        38     1      116.227783      462.415315
         2         7         6     1      126.285873      626.788622
         2         7         8     1      118.388550      582.347795
         3         2         7     1      113.384048      841.521301
         3         4         5     1      119.793900      756.275876
         3         4        39     1      120.435448      423.448112
         4         3        38     1      122.663757      418.560373
         4         5         6     1      120.904129      609.316323
         4         5        30     1      122.136948      554.816493
         5         4        39     1      119.783630      413.823942
         5         6         7     1      118.964516      468.646912
         5        30        31     1      120.747513      512.592702
         5        30        35     1      120.435585      485.398139
         6         5        30     1      116.440292      472.216585
         6         7         8     1      115.047546      530.677572
         7         8         9     1      112.024643      482.191763
         7         8        40     1      106.570786      547.892042
         7         8        41     1      106.570786      547.892042
         8         9        10     1      120.333595      511.641604
         8         9        14     1      120.296829      468.954475
         9         8        40     1      110.926590      460.266878
         9         8        41     1      110.926590      460.266878
         9        10        11     1      120.169945      693.599446
         9        10        42     1      119.704689      387.328041
         9        14        13     1      120.774254      672.801705
         9        14        45     1      120.039597      376.201523
        10         9        14     1      119.303223      734.428240
        10        11        12     1      120.256760      725.564182
        10        11        43     1      119.922340      434.291488
        11        10        42     1      120.187279      423.550228
        11        12        13     1      119.979965      674.456637
        11        12        44     1      120.924561      410.330497
        12        11        43     1      119.903481      440.262639
        12        13        14     1      119.321045      655.708569
        12        13        15     1      120.346436      528.756160
        13        12        44     1      118.940369      422.657515
        13        14        45     1      118.453026      404.020596
        13        15        16     1      117.760376      476.262397
        13        15        29     1      117.760376      476.262397
        14        13        15     1      120.176895      484.683674
        15        16        17     1      117.835739      811.227713
        15        29        28     1      117.835739      811.227713
        16        15        29     1      124.311020      600.584164
        16        17        18     1      121.960190      818.357610
        16        17        46     1      117.037987      381.335631
        17        18        19     1      122.165466      598.435025
        17        18        28     1      116.064171      578.747637
        18        17        46     1      121.222450      401.732950
        18        19        20     1      118.496277      529.963810
        18        28        29     1      121.960190      818.357610
        18        28        59     1      121.222450      401.732982
        19        18        28     1      122.165466      598.435025
        19        20        21     1      109.680809      603.866130
        19        20        47     1      108.906189      458.466352
        19        20        48     1      108.906189      458.466352
        20        21        22     1      113.290123      524.941746
        20        21        49     1      108.157654      487.616962
        20        21        50     1      108.157654      487.616962
        21        20        47     1      110.623047      490.833106
        21        20        48     1      110.623047      490.833106
        21        22        23     1      113.710190      631.216885
        21        22        27     1      113.710190      631.216885
        22        21        49     1      109.853348      486.075191
        22        21        50     1      109.853348      486.075191
        22        23        24     1      111.103561      662.791541
        22        23        51     1      110.123619      435.388626
        22        23        52     1      110.123619      435.388626
        22        27        26     1      111.103561      662.791541
        22        27        57     1      110.123619      435.388626
        22        27        58     1      110.123619      435.388626
        23        22        27     1      111.213341      562.921908
        23        24        25     1      111.813461      641.249074
        23        24        53     1      110.214737      503.534945
        23        24        54     1      110.214737      503.534945
        24        23        51     1      109.168289      499.421491
        24        23        52     1      109.168289      499.421491
        24        25        26     1      112.401810      596.854661
        25        24        53     1      108.089088      463.506260
        25        24        54     1      108.089088      463.506260
        25        26        27     1      111.813461      641.249074
        25        26        55     1      108.089088      463.506260
        25        26        56     1      108.089088      463.506260
        26        27        57     1      109.168289      499.421491
        26        27        58     1      109.168289      499.421491
        27        26        55     1      110.214737      503.534945
        27        26        56     1      110.214737      503.534945
        29        28        59     1      117.037987      381.335631
        30        31        32     1      120.777267      709.872905
        30        31        60     1      119.527542      423.722380
        30        35        34     1      120.266434      657.083231
        30        35        63     1      120.220322      411.897741
        31        30        35     1      118.812851      651.133979
        31        32        33     1      120.358742      734.250247
        31        32        61     1      119.908157      436.042057
        32        31        60     1      119.737770      418.668714
        32        33        34     1      119.179398      651.996558
        32        33        62     1      121.033249      417.291785
        33        32        61     1      119.847595      440.202243
        33        34        35     1      120.362038      706.968570
        33        34        36     1      119.806053      484.258417
        34        33        62     1      119.829506      421.049922
        34        35        63     1      119.545639      411.396416
        34        36        37     1      179.619339      167.360000
        35        34        36     1      119.657616      462.735837
        40         8        41     1      109.371140      342.649336
        47        20        48     1      108.415627      344.439935
        49        21        50     1      106.808884      351.265046
        51        23        52     1      107.194313      346.982984
        53        24        54     1      108.300125      339.195985
        55        26        56     1      108.300125      339.195985
        57        27        58     1      107.194313      346.982984

[ dihedrals ] ; propers for gromacs 4.5 or higher, use funct 9
;       ai        aj        ak        al funct           phase               k        pn
         1         2         3         4     9        0.000000        0.373568         1
         1         2         3         4     9      180.000000        6.488704         2
         1         2         3         4     9        0.000000        0.040900         3
         1         2         3         4     9      180.000000       -0.219160         4
         1         2         3        38     9        0.000000       -1.098767         1
         1         2         3        38     9      180.000000        8.614286         2
         1         2         3        38     9        0.000000       -0.424066         3
         1         2         3        38     9      180.000000       -0.304321         4
         1         2         7         6     9        0.000000       -0.191704         1
         1         2         7         6     9      180.000000        9.009476         2
         1         2         7         6     9        0.000000       -0.415667         3
         1         2         7         6     9      180.000000       -0.488867         4
         1         2         7         8     9        0.000000       -0.195296         1
         1         2         7         8     9      180.000000       10.127567         2
         1         2         7         8     9        0.000000       -1.045207         3
         1         2         7         8     9      180.000000        0.094586         4
         2         3         4         5     9        0.000000       -0.109861         1
         2         3         4         5     9      180.000000       21.075593         2
         2         3         4         5     9        0.000000       -0.976334         3
         2         3         4         5     9      180.000000       -0.633941         4
         2         3         4        39     9        0.000000        0.380985         1
         2         3         4        39     9      180.000000       17.184470         2
         2         3         4        39     9        0.000000       -0.152609         3
         2         3         4        39     9      180.000000       -0.094195         4
         2         7         6         5     9        0.000000        2.140357         1
         2         7         6         5     9      180.000000        8.406791         2
         2         7         6         5     9        0.000000        0.352107         3
         2         7         6         5     9      180.000000       -0.020829         4
         2         7         8         9     9        0.000000       -0.294337         1
         2         7         8         9     9      180.000000       -1.944837         2
         2         7         8         9     9        0.000000        0.574462         3
         2         7         8         9     9      180.000000       -0.274890         4
         2         7         8        40     9        0.000000       -0.045617         1
         2         7         8        40     9      180.000000        0.147989         2
         2         7         8        40     9        0.000000        0.144977         3
         2         7         8        40     9      180.000000        0.114694         4
         2         7         8        41     9        0.000000       -0.045617         1
         2         7         8        41     9      180.000000        0.147989         2
         2         7         8        41     9        0.000000        0.144977         3
         2         7         8        41     9      180.000000        0.114694         4
         3         2         7         6     9        0.000000        1.359756         1
         3         2         7         6     9      180.000000        2.455734         2
         3         2         7         6     9        0.000000        0.532356         3
         3         2         7         6     9      180.000000        0.115453         4
         3         2         7         8     9        0.000000        0.727261         1
         3         2         7         8     9      180.000000        9.246158         2
         3         2         7         8     9        0.000000        0.502600         3
         3         2         7         8     9      180.000000       -0.193507         4
         3         4         5         6     9        0.000000       -0.195892         1
         3         4         5         6     9      180.000000       12.112470         2
         3         4         5         6     9        0.000000       -0.538333         3
         3         4         5         6     9      180.000000       -0.419916         4
         3         4         5        30     9        0.000000        0.070651         1
         3         4         5        30     9      180.000000       12.787657         2
         3         4         5        30     9        0.000000       -0.190552         3
         3         4         5        30     9      180.000000       -0.475418         4
         4         3         2         7     9        0.000000        1.364780         1
         4         3         2         7     9      180.000000        2.014244         2
         4         3         2         7     9        0.000000        0.435103         3
         4         3         2         7     9      180.000000        0.007037         4
         4         5         6         7     9        0.000000       -0.101649         1
         4         5         6         7     9      180.000000       35.886510         2
         4         5         6         7     9        0.000000       -0.622940         3
         4         5         6         7     9      180.000000       -1.055692         4
         4         5        30        31     9        0.000000       -0.013043         1
         4         5        30        31     9      180.000000        3.955284         2
         4         5        30        31     9        0.000000        0.146685         3
         4         5        30        31     9      180.000000       -0.100290         4
         4         5        30        35     9        0.000000       -0.072455         1
         4         5        30        35     9      180.000000        3.978857         2
         4         5        30        35     9        0.000000        0.135787         3
         4         5        30        35     9      180.000000       -0.103767         4
         5         4         3        38     9        0.000000       -0.071017         1
         5         4         3        38     9      180.000000       17.277295         2
         5         4         3        38     9        0.000000       -0.360906         3
         5         4         3        38     9      180.000000       -0.063456         4
         5         6         7         8     9        0.000000        2.219232         1
         5         6         7         8     9      180.000000       14.227514         2
         5         6         7         8     9        0.000000        0.842090         3
         5         6         7         8     9      180.000000       -0.482320         4
         5        30        31        32     9        0.000000        0.178909         1
         5        30        31        32     9      180.000000       15.668937         2
         5        30        31        32     9        0.000000       -0.124830         3
         5        30        31        32     9      180.000000       -0.213121         4
         5        30        31        60     9        0.000000       -0.121235         1
         5        30        31        60     9      180.000000       12.379197         2
         5        30        31        60     9        0.000000       -0.322770         3
         5        30        31        60     9      180.000000        0.187057         4
         5        30        35        34     9        0.000000        0.134777         1
         5        30        35        34     9      180.000000       15.996790         2
         5        30        35        34     9        0.000000       -0.098193         3
         5        30        35        34     9      180.000000       -0.330952         4
         5        30        35        63     9        0.000000       -0.170458         1
         5        30        35        63     9      180.000000       12.376859         2
         5        30        35        63     9        0.000000       -0.305662         3
         5        30        35        63     9      180.000000        0.231765         4
         6         5         4        39     9        0.000000       -0.013453         1
         6         5         4        39     9      180.000000        9.192946         2
         6         5         4        39     9        0.000000       -0.281104         3
         6         5         4        39     9      180.000000       -0.087077         4
         6         5        30        31     9        0.000000        0.000774         1
         6         5        30        31     9      180.000000        3.789659         2
         6         5        30        31     9        0.000000        0.107493         3
         6         5        30        31     9      180.000000        0.008994         4
         6         5        30        35     9        0.000000        0.323635         1
         6         5        30        35     9      180.000000        3.837026         2
         6         5        30        35     9        0.000000        0.134186         3
         6         5        30        35     9      180.000000        0.016524         4
         6         7         8         9     9        0.000000       -2.175336         1
         6         7         8         9     9      180.000000       -0.781816         2
         6         7         8         9     9        0.000000        0.239373         3
         6         7         8         9     9      180.000000       -0.039014         4
         6         7         8        40     9        0.000000        0.298767         1
         6         7         8        40     9      180.000000        0.078292         2
         6         7         8        40     9        0.000000        0.019662         3
         6         7         8        40     9      180.000000        0.086536         4
         6         7         8        41     9        0.000000        0.298767         1
         6         7         8        41     9      180.000000        0.078292         2
         6         7         8        41     9        0.000000        0.019662         3
         6         7         8        41     9      180.000000        0.086536         4
         7         2         3        38     9        0.000000        0.158353         1
         7         2         3        38     9      180.000000        4.595398         2
         7         2         3        38     9        0.000000       -0.019784         3
         7         2         3        38     9      180.000000        0.196144         4
         7         6         5        30     9        0.000000       -0.114129         1
         7         6         5        30     9      180.000000       35.160362         2
         7         6         5        30     9        0.000000        2.093472         3
         7         6         5        30     9      180.000000       -1.645612         4
         7         8         9        10     9        0.000000        0.030565         1
         7         8         9        10     9      180.000000        0.258279         2
         7         8         9        10     9        0.000000        0.090888         3
         7         8         9        10     9      180.000000        0.036615         4
         7         8         9        14     9        0.000000        0.151706         1
         7         8         9        14     9      180.000000        0.281531         2
         7         8         9        14     9        0.000000        0.030783         3
         7         8         9        14     9      180.000000        0.045644         4
         8         9        10        11     9        0.000000        0.053547         1
         8         9        10        11     9      180.000000       15.887051         2
         8         9        10        11     9        0.000000       -0.316713         3
         8         9        10        11     9      180.000000       -0.265416         4
         8         9        10        42     9        0.000000       -0.084029         1
         8         9        10        42     9      180.000000       13.043121         2
         8         9        10        42     9        0.000000       -0.439001         3
         8         9        10        42     9      180.000000        0.103644         4
         8         9        14        13     9        0.000000       -0.117504         1
         8         9        14        13     9      180.000000       16.310102         2
         8         9        14        13     9        0.000000       -0.287584         3
         8         9        14        13     9      180.000000       -0.435241         4
         8         9        14        45     9        0.000000       -0.246461         1
         8         9        14        45     9      180.000000       13.209735         2
         8         9        14        45     9        0.000000       -0.513720         3
         8         9        14        45     9      180.000000        0.112039         4
         9        10        11        12     9        0.000000        0.048728         1
         9        10        11        12     9      180.000000       18.130306         2
         9        10        11        12     9        0.000000       -1.351408         3
         9        10        11        12     9      180.000000       -0.427612         4
         9        10        11        43     9        0.000000        0.131673         1
         9        10        11        43     9      180.000000       14.689555         2
         9        10        11        43     9        0.000000       -0.643310         3
         9        10        11        43     9      180.000000        0.060174         4
         9        14        13        12     9        0.000000       -0.056433         1
         9        14        13        12     9      180.000000       17.631724         2
         9        14        13        12     9        0.000000       -1.156990         3
         9        14        13        12     9      180.000000       -0.380293         4
         9        14        13        15     9        0.000000       -0.003436         1
         9        14        13        15     9      180.000000       15.141860         2
         9        14        13        15     9        0.000000       -0.344450         3
         9        14        13        15     9      180.000000       -0.335944         4
        10         9         8        40     9        0.000000       -0.023738         1
        10         9         8        40     9      180.000000       -0.040447         2
        10         9         8        40     9        0.000000        0.007768         3
        10         9         8        40     9      180.000000        0.008145         4
        10         9         8        41     9        0.000000       -0.023738         1
        10         9         8        41     9      180.000000       -0.040447         2
        10         9         8        41     9        0.000000        0.007768         3
        10         9         8        41     9      180.000000        0.008145         4
        10         9        14        13     9        0.000000       -0.088535         1
        10         9        14        13     9      180.000000       19.421658         2
        10         9        14        13     9        0.000000       -1.372015         3
        10         9        14        13     9      180.000000       -0.512777         4
        10         9        14        45     9        0.000000       -0.070564         1
        10         9        14        45     9      180.000000       14.570774         2
        10         9        14        45     9        0.000000       -0.622452         3
        10         9        14        45     9      180.000000        0.027389         4
        10        11        12        13     9        0.000000       -0.024264         1
        10        11        12        13     9      180.000000       19.080275         2
        10        11        12        13     9        0.000000       -1.608946         3
        10        11        12        13     9      180.000000       -0.405125         4
        10        11        12        44     9        0.000000        0.007972         1
        10        11        12        44     9      180.000000       14.742950         2
        10        11        12        44     9        0.000000       -0.729683         3
        10        11        12        44     9      180.000000        0.116077         4
        11        10         9        14     9        0.000000       -0.151523         1
        11        10         9        14     9      180.000000       18.846658         2
        11        10         9        14     9        0.000000       -1.254828         3
        11        10         9        14     9      180.000000       -0.455849         4
        11        12        13        14     9        0.000000       -0.162136         1
        11        12        13        14     9      180.000000       17.899870         2
        11        12        13        14     9        0.000000       -1.327731         3
        11        12        13        14     9      180.000000       -0.351838         4
        11        12        13        15     9        0.000000       -0.103906         1
        11        12        13        15     9      180.000000       15.017340         2
        11        12        13        15     9        0.000000       -0.376857         3
        11        12        13        15     9      180.000000       -0.301391         4
        12        11        10        42     9        0.000000        0.145761         1
        12        11        10        42     9      180.000000       14.161630         2
        12        11        10        42     9        0.000000       -0.660149         3
        12        11        10        42     9      180.000000        0.079005         4
        12        13        14        45     9        0.000000        0.097073         1
        12        13        14        45     9      180.000000       13.969411         2
        12        13        14        45     9        0.000000       -0.596710         3
        12        13        14        45     9      180.000000        0.033851         4
        12        13        15        16     9        0.000000       -0.150156         1
        12        13        15        16     9      180.000000        5.296820         2
        12        13        15        16     9        0.000000        0.065735         3
        12        13        15        16     9      180.000000        0.028830         4
        12        13        15        29     9        0.000000       -0.150156         1
        12        13        15        29     9      180.000000        5.296820         2
        12        13        15        29     9        0.000000        0.065735         3
        12        13        15        29     9      180.000000        0.028830         4
        13        12        11        43     9        0.000000       -0.049162         1
        13        12        11        43     9      180.000000       14.510427         2
        13        12        11        43     9        0.000000       -0.511394         3
        13        12        11        43     9      180.000000        0.135170         4
        13        15        16        17     9        0.000000        0.956319         1
        13        15        16        17     9      180.000000       16.662367         2
        13        15        16        17     9        0.000000        0.465373         3
        13        15        16        17     9      180.000000       -0.798973         4
        13        15        29        28     9        0.000000        0.956319         1
        13        15        29        28     9      180.000000       16.662367         2
        13        15        29        28     9        0.000000        0.465373         3
        13        15        29        28     9      180.000000       -0.798973         4
        14         9         8        40     9        0.000000       -0.052101         1
        14         9         8        40     9      180.000000       -0.013188         2
        14         9         8        40     9        0.000000       -0.043478         3
        14         9         8        40     9      180.000000        0.008194         4
        14         9         8        41     9        0.000000       -0.052101         1
        14         9         8        41     9      180.000000       -0.013188         2
        14         9         8        41     9        0.000000       -0.043478         3
        14         9         8        41     9      180.000000        0.008194         4
        14         9        10        42     9        0.000000       -0.033483         1
        14         9        10        42     9      180.000000       14.278976         2
        14         9        10        42     9        0.000000       -0.638918         3
        14         9        10        42     9      180.000000        0.005808         4
        14        13        12        44     9        0.000000        0.005551         1
        14        13        12        44     9      180.000000       13.617097         2
        14        13        12        44     9        0.000000       -0.708127         3
        14        13        12        44     9      180.000000        0.107034         4
        14        13        15        16     9        0.000000       -0.297678         1
        14        13        15        16     9      180.000000        5.258440         2
        14        13        15        16     9        0.000000        0.011333         3
        14        13        15        16     9      180.000000        0.052447         4
        14        13        15        29     9        0.000000       -0.297678         1
        14        13        15        29     9      180.000000        5.258440         2
        14        13        15        29     9        0.000000        0.011333         3
        14        13        15        29     9      180.000000        0.052447         4
        15        13        12        44     9        0.000000       -0.154818         1
        15        13        12        44     9      180.000000       12.171942         2
        15        13        12        44     9        0.000000       -0.452430         3
        15        13        12        44     9      180.000000        0.109926         4
        15        13        14        45     9        0.000000       -0.138620         1
        15        13        14        45     9      180.000000       12.428054         2
        15        13        14        45     9        0.000000       -0.399633         3
        15        13        14        45     9      180.000000        0.084362         4
        15        16        17        18     9        0.000000       -0.375605         1
        15        16        17        18     9      180.000000       20.431551         2
        15        16        17        18     9        0.000000       -1.094936         3
        15        16        17        18     9      180.000000       -0.351761         4
        15        16        17        46     9        0.000000        0.036837         1
        15        16        17        46     9      180.000000       18.011016         2
        15        16        17        46     9        0.000000       -0.117048         3
        15        16        17        46     9      180.000000       -0.175088         4
        15        29        28        18     9        0.000000       -0.375605         1
        15        29        28        18     9      180.000000       20.431551         2
        15        29        28        18     9        0.000000       -1.094936         3
        15        29        28        18     9      180.000000       -0.351761         4
        15        29        28        59     9        0.000000        0.036837         1
        15        29        28        59     9      180.000000       18.011018         2
        15        29        28        59     9        0.000000       -0.117048         3
        15        29        28        59     9      180.000000       -0.175087         4
        16        15        29        28     9        0.000000       -0.471337         1
        16        15        29        28     9      180.000000       13.587511         2
        16        15        29        28     9        0.000000        0.508181         3
        16        15        29        28     9      180.000000       -0.510855         4
        16        17        18        19     9        0.000000        0.501606         1
        16        17        18        19     9      180.000000       15.583986         2
        16        17        18        19     9        0.000000        0.572743         3
        16        17        18        19     9      180.000000       -0.534057         4
        16        17        18        28     9        0.000000       -0.010966         1
        16        17        18        28     9      180.000000       12.724272         2
        16        17        18        28     9        0.000000       -0.096441         3
        16        17        18        28     9      180.000000       -0.162936         4
        17        16        15        29     9        0.000000       -0.471337         1
        17        16        15        29     9      180.000000       13.587511         2
        17        16        15        29     9        0.000000        0.508181         3
        17        16        15        29     9      180.000000       -0.510855         4
        17        18        19        20     9        0.000000        0.528161         1
        17        18        19        20     9      180.000000        4.367332         2
        17        18        19        20     9        0.000000        0.078603         3
        17        18        19        20     9      180.000000        0.274772         4
        17        18        28        29     9        0.000000       -0.010966         1
        17        18        28        29     9      180.000000       12.724272         2
        17        18        28        29     9        0.000000       -0.096441         3
        17        18        28        29     9      180.000000       -0.162936         4
        17        18        28        59     9        0.000000        0.176675         1
        17        18        28        59     9      180.000000       11.844942         2
        17        18        28        59     9        0.000000       -0.274937         3
        17        18        28        59     9      180.000000        0.089043         4
        18        19        20        21     9        0.000000        0.636807         1
        18        19        20        21     9      180.000000       -0.275189         2
        18        19        20        21     9        0.000000        0.668471         3
        18        19        20        21     9      180.000000       -0.002771         4
        18        19        20        47     9        0.000000       -0.192867         1
        18        19        20        47     9      180.000000       -0.022778         2
        18        19        20        47     9        0.000000        0.770554         3
        18        19        20        47     9      180.000000       -0.048740         4
        18        19        20        48     9        0.000000       -0.192867         1
        18        19        20        48     9      180.000000       -0.022778         2
        18        19        20        48     9        0.000000        0.770554         3
        18        19        20        48     9      180.000000       -0.048740         4
        19        18        17        46     9        0.000000        0.186762         1
        19        18        17        46     9      180.000000       12.911627         2
        19        18        17        46     9        0.000000        0.056946         3
        19        18        17        46     9      180.000000        0.203186         4
        19        18        28        29     9        0.000000        0.501606         1
        19        18        28        29     9      180.000000       15.583986         2
        19        18        28        29     9        0.000000        0.572743         3
        19        18        28        29     9      180.000000       -0.534057         4
        19        18        28        59     9        0.000000        0.186762         1
        19        18        28        59     9      180.000000       12.911626         2
        19        18        28        59     9        0.000000        0.056946         3
        19        18        28        59     9      180.000000        0.203186         4
        19        20        21        22     9        0.000000       -4.102201         1
        19        20        21        22     9      180.000000       -0.879733         2
        19        20        21        22     9        0.000000        0.500492         3
        19        20        21        22     9      180.000000       -0.061029         4
        19        20        21        49     9        0.000000        0.217794         1
        19        20        21        49     9      180.000000        0.117788         2
        19        20        21        49     9        0.000000        0.604612         3
        19        20        21        49     9      180.000000        0.082910         4
        19        20        21        50     9        0.000000        0.217794         1
        19        20        21        50     9      180.000000        0.117788         2
        19        20        21        50     9        0.000000        0.604612         3
        19        20        21        50     9      180.000000        0.082910         4
        20        19        18        28     9        0.000000        0.528161         1
        20        19        18        28     9      180.000000        4.367332         2
        20        19        18        28     9        0.000000        0.078603         3
        20        19        18        28     9      180.000000        0.274772         4
        20        21        22        23     9        0.000000        3.742496         1
        20        21        22        23     9      180.000000       -1.617229         2
        20        21        22        23     9        0.000000        0.783113         3
        20        21        22        23     9      180.000000       -0.075654         4
        20        21        22        27     9        0.000000        3.742496         1
        20        21        22        27     9      180.000000       -1.617229         2
        20        21        22        27     9        0.000000        0.783113         3
        20        21        22        27     9      180.000000       -0.075654         4
        21        22        23        24     9        0.000000        1.346800         1
        21        22        23        24     9      180.000000        0.750380         2
        21        22        23        24     9        0.000000        0.476432         3
        21        22        23        24     9      180.000000        0.739761         4
        21        22        23        51     9        0.000000       -0.020265         1
        21        22        23        51     9      180.000000       -0.050046         2
        21        22        23        51     9        0.000000        0.964025         3
        21        22        23        51     9      180.000000       -0.371122         4
        21        22        23        52     9        0.000000       -0.020265         1
        21        22        23        52     9      180.000000       -0.050046         2
        21        22        23        52     9        0.000000        0.964025         3
        21        22        23        52     9      180.000000       -0.371122         4
        21        22        27        26     9        0.000000        1.346800         1
        21        22        27        26     9      180.000000        0.750380         2
        21        22        27        26     9        0.000000        0.476432         3
        21        22        27        26     9      180.000000        0.739761         4
        21        22        27        57     9        0.000000       -0.020265         1
        21        22        27        57     9      180.000000       -0.050046         2
        21        22        27        57     9        0.000000        0.964025         3
        21        22        27        57     9      180.000000       -0.371122         4
        21        22        27        58     9        0.000000       -0.020265         1
        21        22        27        58     9      180.000000       -0.050046         2
        21        22        27        58     9        0.000000        0.964025         3
        21        22        27        58     9      180.000000       -0.371122         4
        22        21        20        47     9        0.000000        0.028588         1
        22        21        20        47     9      180.000000        0.134926         2
        22        21        20        47     9        0.000000        0.626057         3
        22        21        20        47     9      180.000000        0.150299         4
        22        21        20        48     9        0.000000        0.028588         1
        22        21        20        48     9      180.000000        0.134926         2
        22        21        20        48     9        0.000000        0.626057         3
        22        21        20        48     9      180.000000        0.150299         4
        22        23        24        25     9        0.000000       -0.556534         1
        22        23        24        25     9      180.000000       -0.788295         2
        22        23        24        25     9        0.000000        0.402527         3
        22        23        24        25     9      180.000000       -0.190727         4
        22        23        24        53     9        0.000000       -0.034235         1
        22        23        24        53     9      180.000000        0.048393         2
        22        23        24        53     9        0.000000        0.346112         3
        22        23        24        53     9      180.000000        0.030086         4
        22        23        24        54     9        0.000000       -0.034235         1
        22        23        24        54     9      180.000000        0.048393         2
        22        23        24        54     9        0.000000        0.346112         3
        22        23        24        54     9      180.000000        0.030086         4
        22        27        26        25     9        0.000000       -0.556534         1
        22        27        26        25     9      180.000000       -0.788295         2
        22        27        26        25     9        0.000000        0.402527         3
        22        27        26        25     9      180.000000       -0.190727         4
        22        27        26        55     9        0.000000       -0.034235         1
        22        27        26        55     9      180.000000        0.048393         2
        22        27        26        55     9        0.000000        0.346112         3
        22        27        26        55     9      180.000000        0.030086         4
        22        27        26        56     9        0.000000       -0.034235         1
        22        27        26        56     9      180.000000        0.048393         2
        22        27        26        56     9        0.000000        0.346112         3
        22        27        26        56     9      180.000000        0.030086         4
        23        22        21        49     9        0.000000       -0.320202         1
        23        22        21        49     9      180.000000        0.150402         2
        23        22        21        49     9        0.000000        0.901925         3
        23        22        21        49     9      180.000000        0.101072         4
        23        22        21        50     9        0.000000       -0.320202         1
        23        22        21        50     9      180.000000        0.150402         2
        23        22        21        50     9        0.000000        0.901925         3
        23        22        21        50     9      180.000000        0.101072         4
        23        22        27        26     9        0.000000        1.955565         1
        23        22        27        26     9      180.000000       -1.953327         2
        23        22        27        26     9        0.000000        0.820526         3
        23        22        27        26     9      180.000000        0.180559         4
        23        22        27        57     9        0.000000       -0.039519         1
        23        22        27        57     9      180.000000        0.076783         2
        23        22        27        57     9        0.000000        0.779099         3
        23        22        27        57     9      180.000000       -0.050417         4
        23        22        27        58     9        0.000000       -0.039519         1
        23        22        27        58     9      180.000000        0.076783         2
        23        22        27        58     9        0.000000        0.779099         3
        23        22        27        58     9      180.000000       -0.050417         4
        23        24        25        26     9        0.000000        0.613678         1
        23        24        25        26     9      180.000000       -1.118565         2
        23        24        25        26     9        0.000000        0.550051         3
        23        24        25        26     9      180.000000        0.024017         4
        24        23        22        27     9        0.000000        1.955565         1
        24        23        22        27     9      180.000000       -1.953327         2
        24        23        22        27     9        0.000000        0.820526         3
        24        23        22        27     9      180.000000        0.180559         4
        24        25        26        27     9        0.000000        0.613678         1
        24        25        26        27     9      180.000000       -1.118565         2
        24        25        26        27     9        0.000000        0.550051         3
        24        25        26        27     9      180.000000        0.024017         4
        24        25        26        55     9        0.000000       -0.071723         1
        24        25        26        55     9      180.000000        0.061997         2
        24        25        26        55     9        0.000000        0.390508         3
        24        25        26        55     9      180.000000        0.013737         4
        24        25        26        56     9        0.000000       -0.071723         1
        24        25        26        56     9      180.000000        0.061997         2
        24        25        26        56     9        0.000000        0.390508         3
        24        25        26        56     9      180.000000        0.013737         4
        25        24        23        51     9        0.000000       -0.052296         1
        25        24        23        51     9      180.000000        0.067159         2
        25        24        23        51     9        0.000000        0.314425         3
        25        24        23        51     9      180.000000        0.008995         4
        25        24        23        52     9        0.000000       -0.052296         1
        25        24        23        52     9      180.000000        0.067159         2
        25        24        23        52     9        0.000000        0.314425         3
        25        24        23        52     9      180.000000        0.008995         4
        25        26        27        57     9        0.000000       -0.052296         1
        25        26        27        57     9      180.000000        0.067159         2
        25        26        27        57     9        0.000000        0.314425         3
        25        26        27        57     9      180.000000        0.008995         4
        25        26        27        58     9        0.000000       -0.052296         1
        25        26        27        58     9      180.000000        0.067159         2
        25        26        27        58     9        0.000000        0.314425         3
        25        26        27        58     9      180.000000        0.008995         4
        26        25        24        53     9        0.000000       -0.071723         1
        26        25        24        53     9      180.000000        0.061997         2
        26        25        24        53     9        0.000000        0.390508         3
        26        25        24        53     9      180.000000        0.013737         4
        26        25        24        54     9        0.000000       -0.071723         1
        26        25        24        54     9      180.000000        0.061997         2
        26        25        24        54     9        0.000000        0.390508         3
        26        25        24        54     9      180.000000        0.013737         4
        27        22        21        49     9        0.000000       -0.320202         1
        27        22        21        49     9      180.000000        0.150402         2
        27        22        21        49     9        0.000000        0.901925         3
        27        22        21        49     9      180.000000        0.101072         4
        27        22        21        50     9        0.000000       -0.320202         1
        27        22        21        50     9      180.000000        0.150402         2
        27        22        21        50     9        0.000000        0.901925         3
        27        22        21        50     9      180.000000        0.101072         4
        27        22        23        51     9        0.000000       -0.039519         1
        27        22        23        51     9      180.000000        0.076783         2
        27        22        23        51     9        0.000000        0.779099         3
        27        22        23        51     9      180.000000       -0.050417         4
        27        22        23        52     9        0.000000       -0.039519         1
        27        22        23        52     9      180.000000        0.076783         2
        27        22        23        52     9        0.000000        0.779099         3
        27        22        23        52     9      180.000000       -0.050417         4
        28        18        17        46     9        0.000000        0.176675         1
        28        18        17        46     9      180.000000       11.844942         2
        28        18        17        46     9        0.000000       -0.274936         3
        28        18        17        46     9      180.000000        0.089043         4
        30         5         4        39     9        0.000000        0.018119         1
        30         5         4        39     9      180.000000       11.555986         2
        30         5         4        39     9        0.000000       -0.318106         3
        30         5         4        39     9      180.000000        0.063131         4
        30        31        32        33     9        0.000000        0.020623         1
        30        31        32        33     9      180.000000       19.347682         2
        30        31        32        33     9        0.000000       -1.494913         3
        30        31        32        33     9      180.000000       -0.471089         4
        30        31        32        61     9        0.000000       -0.048070         1
        30        31        32        61     9      180.000000       15.254794         2
        30        31        32        61     9        0.000000       -0.527447         3
        30        31        32        61     9      180.000000        0.019762         4
        30        35        34        33     9        0.000000       -0.081805         1
        30        35        34        33     9      180.000000       18.859676         2
        30        35        34        33     9        0.000000       -1.528327         3
        30        35        34        33     9      180.000000       -0.471040         4
        30        35        34        36     9        0.000000        0.025547         1
        30        35        34        36     9      180.000000       16.956423         2
        30        35        34        36     9        0.000000        0.040972         3
        30        35        34        36     9      180.000000       -0.392488         4
        31        30        35        34     9        0.000000       -0.232570         1
        31        30        35        34     9      180.000000       18.523683         2
        31        30        35        34     9        0.000000       -1.265259         3
        31        30        35        34     9      180.000000       -0.412998         4
        31        30        35        63     9        0.000000       -0.108779         1
        31        30        35        63     9      180.000000       14.088725         2
        31        30        35        63     9        0.000000       -0.569941         3
        31        30        35        63     9      180.000000        0.050935         4
        31        32        33        34     9        0.000000       -0.121582         1
        31        32        33        34     9      180.000000       19.028353         2
        31        32        33        34     9        0.000000       -1.418465         3
        31        32        33        34     9      180.000000       -0.498814         4
        31        32        33        62     9        0.000000       -0.058622         1
        31        32        33        62     9      180.000000       14.442881         2
        31        32        33        62     9        0.000000       -0.631881         3
        31        32        33        62     9      180.000000        0.067666         4
        32        31        30        35     9        0.000000       -0.124933         1
        32        31        30        35     9      180.000000       18.260063         2
        32        31        30        35     9        0.000000       -1.290862         3
        32        31        30        35     9      180.000000       -0.387636         4
        32        33        34        35     9        0.000000       -0.087998         1
        32        33        34        35     9      180.000000       18.264799         2
        32        33        34        35     9        0.000000       -1.474811         3
        32        33        34        35     9      180.000000       -0.447063         4
        32        33        34        36     9        0.000000        0.047617         1
        32        33        34        36     9      180.000000       16.765669         2
        32        33        34        36     9        0.000000       -0.031737         3
        32        33        34        36     9      180.000000       -0.265730         4
        33        32        31        60     9        0.000000        0.013714         1
        33        32        31        60     9      180.000000       14.892016         2
        33        32        31        60     9        0.000000       -0.613553         3
        33        32        31        60     9      180.000000        0.112630         4
        33        34        35        63     9        0.000000       -0.027643         1
        33        34        35        63     9      180.000000       14.392649         2
        33        34        35        63     9        0.000000       -0.678698         3
        33        34        35        63     9      180.000000        0.049647         4
        33        34        36        37     9        0.000000        0.000000         1
        33        34        36        37     9      180.000000        0.000000         2
        33        34        36        37     9        0.000000        0.000000         3
        33        34        36        37     9      180.000000        0.000000         4
        34        33        32        61     9        0.000000       -0.067862         1
        34        33        32        61     9      180.000000       14.630630         2
        34        33        32        61     9        0.000000       -0.558798         3
        34        33        32        61     9      180.000000        0.087065         4
        35        30        31        60     9        0.000000       -0.160447         1
        35        30        31        60     9      180.000000       13.973308         2
        35        30        31        60     9        0.000000       -0.571701         3
        35        30        31        60     9      180.000000        0.069584         4
        35        34        33        62     9        0.000000       -0.080683         1
        35        34        33        62     9      180.000000       14.175279         2
        35        34        33        62     9        0.000000       -0.659334         3
        35        34        33        62     9      180.000000       -0.006251         4
        35        34        36        37     9        0.000000        0.000000         1
        35        34        36        37     9      180.000000        0.000000         2
        35        34        36        37     9        0.000000        0.000000         3
        35        34        36        37     9      180.000000        0.000000         4
        36        34        33        62     9        0.000000        0.051171         1
        36        34        33        62     9      180.000000       12.879461         2
        36        34        33        62     9        0.000000       -0.288707         3
        36        34        33        62     9      180.000000        0.120152         4
        36        34        35        63     9        0.000000        0.039239         1
        36        34        35        63     9      180.000000       12.980993         2
        36        34        35        63     9        0.000000       -0.222725         3
        36        34        35        63     9      180.000000        0.170097         4
        38         3         4        39     9        0.000000       -0.176226         1
        38         3         4        39     9      180.000000       14.412883         2
        38         3         4        39     9        0.000000       -0.511875         3
        38         3         4        39     9      180.000000        0.397892         4
        42        10        11        43     9        0.000000       -0.085425         1
        42        10        11        43     9      180.000000       11.867554         2
        42        10        11        43     9        0.000000       -0.566930         3
        42        10        11        43     9      180.000000        0.229284         4
        43        11        12        44     9        0.000000       -0.223300         1
        43        11        12        44     9      180.000000       12.042312         2
        43        11        12        44     9        0.000000       -0.706432         3
        43        11        12        44     9      180.000000        0.374018         4
        47        20        21        49     9        0.000000       -0.068955         1
        47        20        21        49     9      180.000000       -0.033761         2
        47        20        21        49     9        0.000000        0.720249         3
        47        20        21        49     9      180.000000       -0.065226         4
        47        20        21        50     9        0.000000       -0.068955         1
        47        20        21        50     9      180.000000       -0.033761         2
        47        20        21        50     9        0.000000        0.720249         3
        47        20        21        50     9      180.000000       -0.065226         4
        48        20        21        49     9        0.000000       -0.068955         1
        48        20        21        49     9      180.000000       -0.033761         2
        48        20        21        49     9        0.000000        0.720249         3
        48        20        21        49     9      180.000000       -0.065226         4
        48        20        21        50     9        0.000000       -0.068955         1
        48        20        21        50     9      180.000000       -0.033761         2
        48        20        21        50     9        0.000000        0.720249         3
        48        20        21        50     9      180.000000       -0.065226         4
        51        23        24        53     9        0.000000       -0.006616         1
        51        23        24        53     9      180.000000       -0.019069         2
        51        23        24        53     9        0.000000        0.237310         3
        51        23        24        53     9      180.000000        0.028417         4
        51        23        24        54     9        0.000000       -0.006616         1
        51        23        24        54     9      180.000000       -0.019069         2
        51        23        24        54     9        0.000000        0.237310         3
        51        23        24        54     9      180.000000        0.028417         4
        52        23        24        53     9        0.000000       -0.006616         1
        52        23        24        53     9      180.000000       -0.019069         2
        52        23        24        53     9        0.000000        0.237310         3
        52        23        24        53     9      180.000000        0.028417         4
        52        23        24        54     9        0.000000       -0.006616         1
        52        23        24        54     9      180.000000       -0.019069         2
        52        23        24        54     9        0.000000        0.237310         3
        52        23        24        54     9      180.000000        0.028417         4
        55        26        27        57     9        0.000000       -0.006616         1
        55        26        27        57     9      180.000000       -0.019069         2
        55        26        27        57     9        0.000000        0.237310         3
        55        26        27        57     9      180.000000        0.028417         4
        55        26        27        58     9        0.000000       -0.006616         1
        55        26        27        58     9      180.000000       -0.019069         2
        55        26        27        58     9        0.000000        0.237310         3
        55        26        27        58     9      180.000000        0.028417         4
        56        26        27        57     9        0.000000       -0.006616         1
        56        26        27        57     9      180.000000       -0.019069         2
        56        26        27        57     9        0.000000        0.237310         3
        56        26        27        57     9      180.000000        0.028417         4
        56        26        27        58     9        0.000000       -0.006616         1
        56        26        27        58     9      180.000000       -0.019069         2
        56        26        27        58     9        0.000000        0.237310         3
        56        26        27        58     9      180.000000        0.028417         4
        60        31        32        61     9        0.000000       -0.201849         1
        60        31        32        61     9      180.000000       12.179521         2
        60        31        32        61     9        0.000000       -0.686558         3
        60        31        32        61     9      180.000000        0.316921         4
        61        32        33        62     9        0.000000       -0.197386         1
        61        32        33        62     9      180.000000       11.713986         2
        61        32        33        62     9        0.000000       -0.625679         3
        61        32        33        62     9      180.000000        0.290561         4

[ dihedrals ] ; impropers
;       ai        aj        ak        al funct           phase               k        pn
         2         1         3         7     4      180.000000       27.780518         2
         2         3         7         1     4      180.000000       27.780518         2
         2         7         1         3     4      180.000000       27.780518         2
        10         9        11        42     4      180.000000        2.424296         2
        10        11        42         9     4      180.000000        2.424296         2
        10        42         9        11     4      180.000000        2.424296         2
        11        10        12        43     4      180.000000        2.822821         2
        11        12        43        10     4      180.000000        2.822821         2
        11        43        10        12     4      180.000000        2.822821         2
        14         9        13        45     4      180.000000        1.715332         2
        14        13        45         9     4      180.000000        1.715332         2
        14        45         9        13     4      180.000000        1.715332         2
        15        13        16        29     4      180.000000       27.893333         2
        15        16        29        13     4      180.000000       27.893333         2
        15        29        13        16     4      180.000000       27.893333         2
        17        16        18        46     4      180.000000        5.783948         2
        17        18        46        16     4      180.000000        5.783948         2
        17        46        16        18     4      180.000000        5.783948         2
        28        18        29        59     4      180.000000        5.783948         2
        28        29        59        18     4      180.000000        5.783948         2
        28        59        18        29     4      180.000000        5.783948         2

[ pairs ]
;       ai        aj funct
         1         4     1
         1         6     1
         1         8     1
         1        38     1
         2         5     1
         2         9     1
         2        39     1
         2        40     1
         2        41     1
         3         6     1
         3         8     1
         3        30     1
         4         7     1
         4        31     1
         4        35     1
         5         8     1
         5        32     1
         5        34     1
         5        38     1
         5        60     1
         5        63     1
         6         9     1
         6        31     1
         6        35     1
         6        39     1
         6        40     1
         6        41     1
         7        10     1
         7        14     1
         7        30     1
         7        38     1
         8        11     1
         8        13     1
         8        42     1
         8        45     1
         9        12     1
         9        15     1
         9        43     1
        10        13     1
        10        40     1
        10        41     1
        10        44     1
        10        45     1
        11        14     1
        11        15     1
        12        16     1
        12        29     1
        12        42     1
        12        45     1
        13        17     1
        13        28     1
        13        43     1
        14        16     1
        14        29     1
        14        40     1
        14        41     1
        14        42     1
        14        44     1
        15        18     1
        15        44     1
        15        45     1
        15        46     1
        15        59     1
        16        19     1
        16        28     1
        17        20     1
        17        29     1
        17        59     1
        18        21     1
        18        47     1
        18        48     1
        19        22     1
        19        29     1
        19        46     1
        19        49     1
        19        50     1
        19        59     1
        20        23     1
        20        27     1
        20        28     1
        21        24     1
        21        26     1
        21        51     1
        21        52     1
        21        57     1
        21        58     1
        22        25     1
        22        47     1
        22        48     1
        22        53     1
        22        54     1
        22        55     1
        22        56     1
        23        26     1
        23        49     1
        23        50     1
        23        57     1
        23        58     1
        24        27     1
        24        55     1
        24        56     1
        25        51     1
        25        52     1
        25        57     1
        25        58     1
        26        53     1
        26        54     1
        27        49     1
        27        50     1
        27        51     1
        27        52     1
        28        46     1
        30        33     1
        30        36     1
        30        39     1
        30        61     1
        31        34     1
        31        62     1
        31        63     1
        32        35     1
        32        36     1
        33        37     1
        33        60     1
        33        63     1
        34        61     1
        35        37     1
        35        60     1
        35        62     1
        36        62     1
        36        63     1
        38        39     1
        42        43     1
        43        44     1
        47        49     1
        47        50     1
        48        49     1
        48        50     1
        51        53     1
        51        54     1
        52        53     1
        52        54     1
        55        57     1
        55        58     1
        56        57     1
        56        58     1
        60        61     1
        61        62     1
