; ITP file created by ByteFF-ML, 2026-02-21 07:37:28.944162

[ atomtypes ]
;name           bonded.type        at.num        mass        charge   ptype           sigma         epsilon
 c0bf                                   6      0.0000       0.00000       A     3.39672e-01     4.50163e-01
 n1bf                                   7      0.0000       0.00000       A     2.58385e-01     1.06580e+01
 c2bf                                   6      0.0000       0.00000       A     3.39729e-01     4.50183e-01
 c3bf                                   6      0.0000       0.00000       A     3.39689e-01     4.48333e-01
 c4bf                                   6      0.0000       0.00000       A     3.40134e-01     4.50222e-01
 c5bf                                   6      0.0000       0.00000       A     3.39810e-01     4.52235e-01
 o6bf                                   8      0.0000       0.00000       A     3.15803e-01     3.03237e-01
 c7bf                                   6      0.0000       0.00000       A     3.31203e-01     4.11936e-01
 c8bf                                   6      0.0000       0.00000       A     3.31563e-01     4.13007e-01
 n9bf                                   7      0.0000       0.00000       A     3.38442e-01     3.92395e-01
 c10bf                                  6      0.0000       0.00000       A     3.31282e-01     4.12504e-01
 n11bf                                  7      0.0000       0.00000       A     3.38442e-01     3.92395e-01
 c12bf                                  6      0.0000       0.00000       A     3.31563e-01     4.13007e-01
 c13bf                                  6      0.0000       0.00000       A     3.31504e-01     4.11795e-01
 c14bf                                  6      0.0000       0.00000       A     3.31529e-01     4.13423e-01
 c15bf                                  6      0.0000       0.00000       A     3.31487e-01     4.13502e-01
 c16bf                                  6      0.0000       0.00000       A     3.31490e-01     4.12791e-01
 c17bf                                  6      0.0000       0.00000       A     3.31591e-01     4.14389e-01
 c18bf                                  6      0.0000       0.00000       A     3.39539e-01     4.50071e-01
 n19bf                                  7      0.0000       0.00000       A     3.18016e-01     6.86340e-01
 n20bf                                  7      0.0000       0.00000       A     3.38457e-01     3.91292e-01
 c21bf                                  6      0.0000       0.00000       A     3.31426e-01     4.13151e-01
 c22bf                                  6      0.0000       0.00000       A     3.31509e-01     4.14763e-01
 c23bf                                  6      0.0000       0.00000       A     3.31666e-01     4.12836e-01
 c24bf                                  6      0.0000       0.00000       A     3.31738e-01     4.11199e-01
 o25bf                                  8      0.0000       0.00000       A     3.04772e-01     6.11569e-01
 c26bf                                  6      0.0000       0.00000       A     3.31273e-01     4.12581e-01
 c27bf                                  6      0.0000       0.00000       A     3.31453e-01     4.12450e-01
 c28bf                                  6      0.0000       0.00000       A     3.31536e-01     4.13168e-01
 c29bf                                  6      0.0000       0.00000       A     3.31480e-01     4.13404e-01
 c30bf                                  6      0.0000       0.00000       A     3.31554e-01     4.14913e-01
 c31bf                                  6      0.0000       0.00000       A     3.31451e-01     4.12918e-01
 c32bf                                  6      0.0000       0.00000       A     3.48221e-01     6.70140e-01
 n33bf                                  7      0.0000       0.00000       A     3.27424e-01     4.58548e-01
 c34bf                                  6      0.0000       0.00000       A     3.31436e-01     4.13623e-01
 c35bf                                  6      0.0000       0.00000       A     3.39689e-01     4.48333e-01
 c36bf                                  6      0.0000       0.00000       A     3.39729e-01     4.50183e-01
 h37bf                                  1      0.0000       0.00000       A     1.88367e-01     8.68900e-02
 h38bf                                  1      0.0000       0.00000       A     1.88367e-01     8.68900e-02
 h39bf                                  1      0.0000       0.00000       A     1.88367e-01     8.68900e-02
 h40bf                                  1      0.0000       0.00000       A     1.88314e-01     8.66729e-02
 h41bf                                  1      0.0000       0.00000       A     1.88314e-01     8.66729e-02
 h42bf                                  1      0.0000       0.00000       A     2.59911e-01     8.86744e-02
 h43bf                                  1      0.0000       0.00000       A     2.59911e-01     8.86744e-02
 h44bf                                  1      0.0000       0.00000       A     2.60232e-01     8.57105e-02
 h45bf                                  1      0.0000       0.00000       A     2.42436e-01     8.72683e-02
 h46bf                                  1      0.0000       0.00000       A     2.42436e-01     8.72683e-02
 h47bf                                  1      0.0000       0.00000       A     2.53555e-01     6.66566e-02
 h48bf                                  1      0.0000       0.00000       A     2.53555e-01     6.66566e-02
 h49bf                                  1      0.0000       0.00000       A     2.62520e-01     6.73030e-02
 h50bf                                  1      0.0000       0.00000       A     2.62500e-01     6.73765e-02
 h51bf                                  1      0.0000       0.00000       A     2.62513e-01     6.77228e-02
 h52bf                                  1      0.0000       0.00000       A     2.41782e-01     8.82882e-02
 h53bf                                  1      0.0000       0.00000       A     2.41782e-01     8.82882e-02
 h54bf                                  1      0.0000       0.00000       A     2.62454e-01     6.74499e-02
 h55bf                                  1      0.0000       0.00000       A     2.62620e-01     6.80388e-02
 h56bf                                  1      0.0000       0.00000       A     2.62488e-01     6.75042e-02
 h57bf                                  1      0.0000       0.00000       A     2.62540e-01     6.75504e-02
 h58bf                                  1      0.0000       0.00000       A     2.62439e-01     6.70764e-02
 h59bf                                  1      0.0000       0.00000       A     2.62394e-01     6.75744e-02
 h60bf                                  1      0.0000       0.00000       A     2.62546e-01     6.76510e-02
 h61bf                                  1      0.0000       0.00000       A     2.59911e-01     8.86744e-02
 h62bf                                  1      0.0000       0.00000       A     2.59911e-01     8.86744e-02
 h63bf                                  1      0.0000       0.00000       A     1.88314e-01     8.66729e-02
 h64bf                                  1      0.0000       0.00000       A     1.88315e-01     8.66714e-02
 h65bf                                  1      0.0000       0.00000       A     1.10621e-01     4.17356e-02

[ moleculetype ]
;name             nrexcl
 CHEMBL3402762_1_redocked       3

[ atoms ]
;       nr            type      resi   res      atom      cgnr      charge          mass ; qtot
         1            c0bf         1   UNL        c0         1     0.08609       12.0110 ; qtot    0.086
         2            n1bf         1   UNL        n1         2    -0.68935       14.0070 ; qtot   -0.603
         3            c2bf         1   UNL        c2         3     0.11198       12.0110 ; qtot   -0.491
         4            c3bf         1   UNL        c3         4    -0.09665       12.0110 ; qtot   -0.588
         5            c4bf         1   UNL        c4         5    -0.07230       12.0110 ; qtot   -0.660
         6            c5bf         1   UNL        c5         6     0.16576       12.0110 ; qtot   -0.494
         7            o6bf         1   UNL        o6         7    -0.33480       15.9990 ; qtot   -0.829
         8            c7bf         1   UNL        c7         8     0.03620       12.0110 ; qtot   -0.793
         9            c8bf         1   UNL        c8         9     0.05869       12.0110 ; qtot   -0.734
        10            n9bf         1   UNL        n9        10    -0.15557       14.0070 ; qtot   -0.890
        11           c10bf         1   UNL       c10        11     0.16879       12.0110 ; qtot   -0.721
        12           n11bf         1   UNL       n11        12    -0.15557       14.0070 ; qtot   -0.877
        13           c12bf         1   UNL       c12        13     0.05869       12.0110 ; qtot   -0.818
        14           c13bf         1   UNL       c13        14    -0.15729       12.0110 ; qtot   -0.975
        15           c14bf         1   UNL       c14        15    -0.06104       12.0110 ; qtot   -1.036
        16           c15bf         1   UNL       c15        16    -0.12394       12.0110 ; qtot   -1.160
        17           c16bf         1   UNL       c16        17    -0.07941       12.0110 ; qtot   -1.240
        18           c17bf         1   UNL       c17        18    -0.13750       12.0110 ; qtot   -1.377
        19           c18bf         1   UNL       c18        19     0.15914       12.0110 ; qtot   -1.218
        20           n19bf         1   UNL       n19        20    -0.13331       14.0070 ; qtot   -1.351
        21           n20bf         1   UNL       n20        21    -0.41710       14.0070 ; qtot   -1.768
        22           c21bf         1   UNL       c21        22     0.38405       12.0110 ; qtot   -1.384
        23           c22bf         1   UNL       c22        23    -0.20511       12.0110 ; qtot   -1.590
        24           c23bf         1   UNL       c23        24    -0.27047       12.0110 ; qtot   -1.860
        25           c24bf         1   UNL       c24        25     0.53165       12.0110 ; qtot   -1.328
        26           o25bf         1   UNL       o25        26    -0.53905       15.9990 ; qtot   -1.867
        27           c26bf         1   UNL       c26        27    -0.11675       12.0110 ; qtot   -1.984
        28           c27bf         1   UNL       c27        28    -0.06042       12.0110 ; qtot   -2.045
        29           c28bf         1   UNL       c28        29    -0.12051       12.0110 ; qtot   -2.165
        30           c29bf         1   UNL       c29        30    -0.06477       12.0110 ; qtot   -2.230
        31           c30bf         1   UNL       c30        31    -0.01845       12.0110 ; qtot   -2.248
        32           c31bf         1   UNL       c31        32    -0.04387       12.0110 ; qtot   -2.292
        33           c32bf         1   UNL       c32        33     0.31461       12.0110 ; qtot   -1.978
        34           n33bf         1   UNL       n33        34    -0.44246       14.0070 ; qtot   -2.420
        35           c34bf         1   UNL       c34        35    -0.03283       12.0110 ; qtot   -2.453
        36           c35bf         1   UNL       c35        36    -0.09665       12.0110 ; qtot   -2.550
        37           c36bf         1   UNL       c36        37     0.11198       12.0110 ; qtot   -2.438
        38           h37bf         1   UNL       h37        38     0.10338        1.0080 ; qtot   -2.334
        39           h38bf         1   UNL       h38        39     0.10338        1.0080 ; qtot   -2.231
        40           h39bf         1   UNL       h39        40     0.10338        1.0080 ; qtot   -2.127
        41           h40bf         1   UNL       h40        41     0.09983        1.0080 ; qtot   -2.028
        42           h41bf         1   UNL       h41        42     0.09983        1.0080 ; qtot   -1.928
        43           h42bf         1   UNL       h42        43     0.08674        1.0080 ; qtot   -1.841
        44           h43bf         1   UNL       h43        44     0.08674        1.0080 ; qtot   -1.754
        45           h44bf         1   UNL       h44        45     0.08466        1.0080 ; qtot   -1.670
        46           h45bf         1   UNL       h45        46     0.05213        1.0080 ; qtot   -1.617
        47           h46bf         1   UNL       h46        47     0.05213        1.0080 ; qtot   -1.565
        48           h47bf         1   UNL       h47        48     0.03799        1.0080 ; qtot   -1.527
        49           h48bf         1   UNL       h48        49     0.03799        1.0080 ; qtot   -1.489
        50           h49bf         1   UNL       h49        50     0.13364        1.0080 ; qtot   -1.356
        51           h50bf         1   UNL       h50        51     0.11635        1.0080 ; qtot   -1.239
        52           h51bf         1   UNL       h51        52     0.12316        1.0080 ; qtot   -1.116
        53           h52bf         1   UNL       h52        53     0.08014        1.0080 ; qtot   -1.036
        54           h53bf         1   UNL       h53        54     0.08014        1.0080 ; qtot   -0.956
        55           h54bf         1   UNL       h54        55     0.20036        1.0080 ; qtot   -0.756
        56           h55bf         1   UNL       h55        56     0.21660        1.0080 ; qtot   -0.539
        57           h56bf         1   UNL       h56        57     0.12693        1.0080 ; qtot   -0.412
        58           h57bf         1   UNL       h57        58     0.12882        1.0080 ; qtot   -0.283
        59           h58bf         1   UNL       h58        59     0.13048        1.0080 ; qtot   -0.153
        60           h59bf         1   UNL       h59        60     0.13866        1.0080 ; qtot   -0.014
        61           h60bf         1   UNL       h60        61     0.13962        1.0080 ; qtot    0.126
        62           h61bf         1   UNL       h61        62     0.08674        1.0080 ; qtot    0.212
        63           h62bf         1   UNL       h62        63     0.08674        1.0080 ; qtot    0.299
        64           h63bf         1   UNL       h63        64     0.09983        1.0080 ; qtot    0.399
        65           h64bf         1   UNL       h64        65     0.09983        1.0080 ; qtot    0.499
        66           h65bf         1   UNL       h65        66     0.50132        1.0080 ; qtot    1.000

[ bonds ]
;       ai        aj funct               r               k
         1         2     1        0.150303   160773.034619
         1        38     1        0.108913   317522.135840
         1        39     1        0.108913   317522.135840
         1        40     1        0.108913   317522.135840
         2         3     1        0.152273   128106.015381
         2        37     1        0.152273   128106.015381
         2        66     1        0.102557   384556.639355
         3         4     1        0.152715   188974.328467
         3        41     1        0.109099   310399.120996
         3        42     1        0.109099   310399.120996
         4         5     1        0.154298   170532.487866
         4        43     1        0.109371   302381.566748
         4        44     1        0.109371   302381.566748
         5         6     1        0.153035   181813.059033
         5        36     1        0.154298   170532.487866
         5        45     1        0.109596   301337.916162
         6         7     1        0.143339   187547.634009
         6        46     1        0.109662   291131.959326
         6        47     1        0.109662   291131.959326
         7         8     1        0.136042   283229.475293
         8         9     1        0.140141   279381.007373
         8        13     1        0.140141   279381.007373
         9        10     1        0.133369   343100.921777
         9        48     1        0.108731   317358.647266
        10        11     1        0.134640   264702.506738
        11        12     1        0.134640   264702.506738
        11        14     1        0.148253   201473.696484
        12        13     1        0.133369   343100.921777
        13        49     1        0.108731   317358.647266
        14        15     1        0.140606   289246.733301
        14        35     1        0.140413   290599.561670
        15        16     1        0.139464   319479.861719
        15        50     1        0.108404   325012.297705
        16        17     1        0.139822   308159.771875
        16        51     1        0.108635   319128.598779
        17        18     1        0.140196   291895.084766
        17        52     1        0.108642   318341.519531
        18        19     1        0.151528   196206.042017
        18        35     1        0.139683   302833.599121
        19        20     1        0.147613   169992.875977
        19        53     1        0.109005   307715.094189
        19        54     1        0.109005   307715.094189
        20        21     1        0.134329   260852.455518
        20        25     1        0.140843   163226.027197
        21        22     1        0.131529   385871.596191
        22        23     1        0.143764   228458.147070
        22        27     1        0.148297   210252.065063
        23        24     1        0.135943   427987.243750
        23        55     1        0.108511   322270.505957
        24        25     1        0.145315   222731.909961
        24        56     1        0.108453   327898.374121
        25        26     1        0.123473   582908.424219
        27        28     1        0.140545   286992.521582
        27        32     1        0.140143   293007.276953
        28        29     1        0.139671   316560.561523
        28        57     1        0.108503   322172.290234
        29        30     1        0.139490   313891.856982
        29        58     1        0.108550   322931.176514
        30        31     1        0.140619   290044.231689
        30        59     1        0.108482   325629.197656
        31        32     1        0.140332   298407.737158
        31        33     1        0.143713   269609.053711
        32        60     1        0.108437   325210.925342
        33        34     1        0.116528  1106543.276758
        35        61     1        0.108475   322864.116064
        36        37     1        0.152715   188974.341235
        36        62     1        0.109371   302381.566748
        36        63     1        0.109371   302381.566748
        37        64     1        0.109099   310399.146533
        37        65     1        0.109099   310399.146533

[ angles ]
;       ai        aj        ak funct           theta             cth
         1         2         3     1      112.241684      611.770631
         1         2        37     1      112.241684      611.770631
         1         2        66     1      107.400589      517.372036
         2         1        38     1      108.813438      542.240680
         2         1        39     1      108.813438      542.240680
         2         1        40     1      108.813438      542.240680
         2         3         4     1      110.770462      717.978001
         2         3        41     1      106.529068      513.928963
         2         3        42     1      106.529068      513.928963
         2        37        36     1      110.770462      717.978001
         2        37        64     1      106.529068      513.928963
         2        37        65     1      106.529068      513.928963
         3         2        37     1      111.243820      598.654836
         3         2        66     1      106.669907      499.864081
         3         4         5     1      111.934471      652.673866
         3         4        43     1      108.752159      506.371575
         3         4        44     1      108.752159      506.371575
         4         3        41     1      112.063881      482.790225
         4         3        42     1      112.063881      482.790225
         4         5         6     1      111.335648      619.069201
         4         5        36     1      109.764893      570.280681
         4         5        45     1      108.120384      491.972859
         5         4        43     1      110.428871      473.455294
         5         4        44     1      110.428871      473.455294
         5         6         7     1      108.751732      601.059665
         5         6        46     1      110.666100      485.944633
         5         6        47     1      110.666100      485.944633
         5        36        37     1      111.934471      652.673866
         5        36        62     1      110.428871      473.455294
         5        36        63     1      110.428871      473.455294
         6         5        36     1      111.335648      619.069201
         6         5        45     1      107.083496      520.840231
         6         7         8     1      118.355141      530.238685
         7         6        46     1      108.965012      455.519274
         7         6        47     1      108.965012      455.519274
         7         8         9     1      122.248314      595.110157
         7         8        13     1      122.248314      595.110157
         8         9        10     1      121.939987      819.797712
         8         9        48     1      121.205238      400.562265
         8        13        12     1      121.939987      819.797712
         8        13        49     1      121.205238      400.562265
         9         8        13     1      116.046120      583.513437
         9        10        11     1      117.832779      811.732773
        10         9        48     1      117.048729      380.819494
        10        11        12     1      124.311020      600.584164
        10        11        14     1      117.760376      476.262397
        11        12        13     1      117.832779      811.732773
        11        14        15     1      120.346436      528.756224
        11        14        35     1      120.176895      484.683674
        12        11        14     1      117.760376      476.262397
        12        13        49     1      117.048729      380.819494
        14        15        16     1      119.979965      674.456637
        14        15        50     1      118.940353      422.657483
        14        35        18     1      120.774254      672.801705
        14        35        61     1      118.453026      404.020564
        15        14        35     1      119.321045      655.708569
        15        16        17     1      120.256760      725.564182
        15        16        51     1      119.903481      440.262639
        16        15        50     1      120.924561      410.330497
        16        17        18     1      120.169945      693.599446
        16        17        52     1      120.187279      423.550260
        17        16        51     1      119.922340      434.291488
        17        18        19     1      120.333595      511.641604
        17        18        35     1      119.303223      734.428240
        18        17        52     1      119.704689      387.328041
        18        19        20     1      112.024643      482.191763
        18        19        53     1      110.926590      460.266878
        18        19        54     1      110.926590      460.266878
        18        35        61     1      120.039597      376.201523
        19        18        35     1      120.296829      468.954475
        19        20        21     1      115.047531      530.677636
        19        20        25     1      118.388550      582.347795
        20        19        53     1      106.570786      547.891978
        20        19        54     1      106.570786      547.891978
        20        21        22     1      118.964516      468.646976
        20        25        24     1      113.384048      841.521173
        20        25        26     1      120.897705      657.687503
        21        20        25     1      126.285873      626.788686
        21        22        23     1      120.904129      609.316323
        21        22        27     1      116.440292      472.216585
        22        23        24     1      119.793900      756.275876
        22        23        55     1      119.783630      413.823910
        22        27        28     1      120.747513      512.592702
        22        27        32     1      120.435585      485.398139
        23        22        27     1      122.136963      554.816557
        23        24        25     1      120.825829      851.397650
        23        24        56     1      122.663757      418.560405
        24        23        55     1      120.435448      423.448112
        24        25        26     1      125.412392      492.999323
        25        24        56     1      116.227783      462.415251
        27        28        29     1      120.777267      709.873033
        27        28        57     1      119.527542      423.722380
        27        32        31     1      120.266434      657.083231
        27        32        60     1      120.220322      411.897741
        28        27        32     1      118.812851      651.133979
        28        29        30     1      120.358742      734.250247
        28        29        58     1      119.908157      436.042057
        29        28        57     1      119.737770      418.668714
        29        30        31     1      119.179398      651.996558
        29        30        59     1      121.033249      417.291785
        30        29        58     1      119.847595      440.202243
        30        31        32     1      120.362038      706.968570
        30        31        33     1      119.806053      484.258417
        31        30        59     1      119.829506      421.049922
        31        32        60     1      119.545639      411.396416
        31        33        34     1      179.619339      167.360000
        32        31        33     1      119.657616      462.735837
        36         5        45     1      108.120384      491.972859
        36        37        64     1      112.063889      482.790193
        36        37        65     1      112.063889      482.790193
        37         2        66     1      106.669899      499.864081
        37        36        62     1      108.752174      506.371575
        37        36        63     1      108.752174      506.371575
        38         1        39     1      110.199875      347.283396
        38         1        40     1      110.199875      347.283396
        39         1        40     1      110.199875      347.283396
        41         3        42     1      108.526138      346.252750
        43         4        44     1      106.363205      361.430603
        46         6        47     1      108.140701      345.353046
        53        19        54     1      109.371140      342.649304
        62        36        63     1      106.363205      361.430603
        64        37        65     1      108.526138      346.252750

[ dihedrals ] ; propers for gromacs 4.5 or higher, use funct 9
;       ai        aj        ak        al funct           phase               k        pn
         1         2         3         4     9        0.000000       -0.056762         1
         1         2         3         4     9      180.000000        0.329521         2
         1         2         3         4     9        0.000000        0.508522         3
         1         2         3         4     9      180.000000        0.054590         4
         1         2         3        41     9        0.000000       -0.021228         1
         1         2         3        41     9      180.000000       -0.026951         2
         1         2         3        41     9        0.000000        0.605120         3
         1         2         3        41     9      180.000000       -0.030869         4
         1         2         3        42     9        0.000000       -0.021228         1
         1         2         3        42     9      180.000000       -0.026951         2
         1         2         3        42     9        0.000000        0.605120         3
         1         2         3        42     9      180.000000       -0.030869         4
         1         2        37        36     9        0.000000       -0.056762         1
         1         2        37        36     9      180.000000        0.329521         2
         1         2        37        36     9        0.000000        0.508522         3
         1         2        37        36     9      180.000000        0.054590         4
         1         2        37        64     9        0.000000       -0.021228         1
         1         2        37        64     9      180.000000       -0.026951         2
         1         2        37        64     9        0.000000        0.605120         3
         1         2        37        64     9      180.000000       -0.030869         4
         1         2        37        65     9        0.000000       -0.021228         1
         1         2        37        65     9      180.000000       -0.026951         2
         1         2        37        65     9        0.000000        0.605120         3
         1         2        37        65     9      180.000000       -0.030869         4
         2         3         4         5     9        0.000000        3.218904         1
         2         3         4         5     9      180.000000       -1.081419         2
         2         3         4         5     9        0.000000        0.407706         3
         2         3         4         5     9      180.000000       -0.099922         4
         2         3         4        43     9        0.000000       -0.060342         1
         2         3         4        43     9      180.000000        0.018598         2
         2         3         4        43     9        0.000000        0.322598         3
         2         3         4        43     9      180.000000       -0.009147         4
         2         3         4        44     9        0.000000       -0.060342         1
         2         3         4        44     9      180.000000        0.018598         2
         2         3         4        44     9        0.000000        0.322598         3
         2         3         4        44     9      180.000000       -0.009147         4
         2        37        36         5     9        0.000000        3.218904         1
         2        37        36         5     9      180.000000       -1.081419         2
         2        37        36         5     9        0.000000        0.407706         3
         2        37        36         5     9      180.000000       -0.099922         4
         2        37        36        62     9        0.000000       -0.060342         1
         2        37        36        62     9      180.000000        0.018598         2
         2        37        36        62     9        0.000000        0.322598         3
         2        37        36        62     9      180.000000       -0.009147         4
         2        37        36        63     9        0.000000       -0.060342         1
         2        37        36        63     9      180.000000        0.018598         2
         2        37        36        63     9        0.000000        0.322598         3
         2        37        36        63     9      180.000000       -0.009147         4
         3         2         1        38     9        0.000000       -0.012778         1
         3         2         1        38     9      180.000000        0.035588         2
         3         2         1        38     9        0.000000        0.651244         3
         3         2         1        38     9      180.000000       -0.023663         4
         3         2         1        39     9        0.000000       -0.012778         1
         3         2         1        39     9      180.000000        0.035588         2
         3         2         1        39     9        0.000000        0.651244         3
         3         2         1        39     9      180.000000       -0.023663         4
         3         2         1        40     9        0.000000       -0.012778         1
         3         2         1        40     9      180.000000        0.035588         2
         3         2         1        40     9        0.000000        0.651244         3
         3         2         1        40     9      180.000000       -0.023663         4
         3         2        37        36     9        0.000000        0.701765         1
         3         2        37        36     9      180.000000       -0.506626         2
         3         2        37        36     9        0.000000        0.261787         3
         3         2        37        36     9      180.000000        0.034172         4
         3         2        37        64     9        0.000000       -0.045854         1
         3         2        37        64     9      180.000000        0.042927         2
         3         2        37        64     9        0.000000        0.435632         3
         3         2        37        64     9      180.000000       -0.055805         4
         3         2        37        65     9        0.000000       -0.045854         1
         3         2        37        65     9      180.000000        0.042927         2
         3         2        37        65     9        0.000000        0.435632         3
         3         2        37        65     9      180.000000       -0.055805         4
         3         4         5         6     9        0.000000       -0.403973         1
         3         4         5         6     9      180.000000        0.341611         2
         3         4         5         6     9        0.000000        0.100151         3
         3         4         5         6     9      180.000000        0.074794         4
         3         4         5        36     9        0.000000        0.468519         1
         3         4         5        36     9      180.000000       -0.430420         2
         3         4         5        36     9        0.000000        0.199140         3
         3         4         5        36     9      180.000000        0.007682         4
         3         4         5        45     9        0.000000       -0.633420         1
         3         4         5        45     9      180.000000       -0.141226         2
         3         4         5        45     9        0.000000        0.199092         3
         3         4         5        45     9      180.000000        0.075646         4
         4         3         2        37     9        0.000000        0.701765         1
         4         3         2        37     9      180.000000       -0.506626         2
         4         3         2        37     9        0.000000        0.261787         3
         4         3         2        37     9      180.000000        0.034172         4
         4         3         2        66     9        0.000000       -0.193516         1
         4         3         2        66     9      180.000000       -0.129210         2
         4         3         2        66     9        0.000000        0.375506         3
         4         3         2        66     9      180.000000        0.013396         4
         4         5         6         7     9        0.000000        0.292444         1
         4         5         6         7     9      180.000000        0.394644         2
         4         5         6         7     9        0.000000        0.560042         3
         4         5         6         7     9      180.000000       -0.026330         4
         4         5         6        46     9        0.000000       -0.022066         1
         4         5         6        46     9      180.000000        0.053292         2
         4         5         6        46     9        0.000000        0.657798         3
         4         5         6        46     9      180.000000        0.018667         4
         4         5         6        47     9        0.000000       -0.022066         1
         4         5         6        47     9      180.000000        0.053292         2
         4         5         6        47     9        0.000000        0.657798         3
         4         5         6        47     9      180.000000        0.018667         4
         4         5        36        37     9        0.000000        0.468519         1
         4         5        36        37     9      180.000000       -0.430420         2
         4         5        36        37     9        0.000000        0.199140         3
         4         5        36        37     9      180.000000        0.007682         4
         4         5        36        62     9        0.000000       -0.025620         1
         4         5        36        62     9      180.000000       -0.007914         2
         4         5        36        62     9        0.000000        0.248834         3
         4         5        36        62     9      180.000000        0.008845         4
         4         5        36        63     9        0.000000       -0.025620         1
         4         5        36        63     9      180.000000       -0.007914         2
         4         5        36        63     9        0.000000        0.248834         3
         4         5        36        63     9      180.000000        0.008845         4
         5         4         3        41     9        0.000000       -0.108586         1
         5         4         3        41     9      180.000000        0.021556         2
         5         4         3        41     9        0.000000        0.411950         3
         5         4         3        41     9      180.000000        0.034960         4
         5         4         3        42     9        0.000000       -0.108586         1
         5         4         3        42     9      180.000000        0.021556         2
         5         4         3        42     9        0.000000        0.411950         3
         5         4         3        42     9      180.000000        0.034960         4
         5         6         7         8     9        0.000000       -0.217730         1
         5         6         7         8     9      180.000000        0.643463         2
         5         6         7         8     9        0.000000        0.567507         3
         5         6         7         8     9      180.000000        0.013674         4
         5        36        37        64     9        0.000000       -0.108586         1
         5        36        37        64     9      180.000000        0.021556         2
         5        36        37        64     9        0.000000        0.411950         3
         5        36        37        64     9      180.000000        0.034960         4
         5        36        37        65     9        0.000000       -0.108586         1
         5        36        37        65     9      180.000000        0.021556         2
         5        36        37        65     9        0.000000        0.411950         3
         5        36        37        65     9      180.000000        0.034960         4
         6         5         4        43     9        0.000000       -0.016801         1
         6         5         4        43     9      180.000000       -0.022209         2
         6         5         4        43     9        0.000000        0.227242         3
         6         5         4        43     9      180.000000       -0.008230         4
         6         5         4        44     9        0.000000       -0.016801         1
         6         5         4        44     9      180.000000       -0.022209         2
         6         5         4        44     9        0.000000        0.227242         3
         6         5         4        44     9      180.000000       -0.008230         4
         6         5        36        37     9        0.000000       -0.403973         1
         6         5        36        37     9      180.000000        0.341611         2
         6         5        36        37     9        0.000000        0.100151         3
         6         5        36        37     9      180.000000        0.074794         4
         6         5        36        62     9        0.000000       -0.016801         1
         6         5        36        62     9      180.000000       -0.022209         2
         6         5        36        62     9        0.000000        0.227242         3
         6         5        36        62     9      180.000000       -0.008230         4
         6         5        36        63     9        0.000000       -0.016801         1
         6         5        36        63     9      180.000000       -0.022209         2
         6         5        36        63     9        0.000000        0.227242         3
         6         5        36        63     9      180.000000       -0.008230         4
         6         7         8         9     9        0.000000        0.517934         1
         6         7         8         9     9      180.000000        4.317183         2
         6         7         8         9     9        0.000000        0.084174         3
         6         7         8         9     9      180.000000        0.282091         4
         6         7         8        13     9        0.000000        0.517934         1
         6         7         8        13     9      180.000000        4.317183         2
         6         7         8        13     9        0.000000        0.084174         3
         6         7         8        13     9      180.000000        0.282091         4
         7         6         5        36     9        0.000000        0.292444         1
         7         6         5        36     9      180.000000        0.394644         2
         7         6         5        36     9        0.000000        0.560042         3
         7         6         5        36     9      180.000000       -0.026330         4
         7         6         5        45     9        0.000000        0.149188         1
         7         6         5        45     9      180.000000        0.066360         2
         7         6         5        45     9        0.000000        0.516607         3
         7         6         5        45     9      180.000000        0.056069         4
         7         8         9        10     9        0.000000        0.487704         1
         7         8         9        10     9      180.000000       15.568335         2
         7         8         9        10     9        0.000000        0.598904         3
         7         8         9        10     9      180.000000       -0.517944         4
         7         8         9        48     9        0.000000        0.229889         1
         7         8         9        48     9      180.000000       12.912799         2
         7         8         9        48     9        0.000000        0.054148         3
         7         8         9        48     9      180.000000        0.209678         4
         7         8        13        12     9        0.000000        0.487704         1
         7         8        13        12     9      180.000000       15.568335         2
         7         8        13        12     9        0.000000        0.598904         3
         7         8        13        12     9      180.000000       -0.517944         4
         7         8        13        49     9        0.000000        0.229889         1
         7         8        13        49     9      180.000000       12.912799         2
         7         8        13        49     9        0.000000        0.054148         3
         7         8        13        49     9      180.000000        0.209678         4
         8         7         6        46     9        0.000000       -0.129701         1
         8         7         6        46     9      180.000000       -0.009551         2
         8         7         6        46     9        0.000000        0.786508         3
         8         7         6        46     9      180.000000       -0.068953         4
         8         7         6        47     9        0.000000       -0.129701         1
         8         7         6        47     9      180.000000       -0.009551         2
         8         7         6        47     9        0.000000        0.786508         3
         8         7         6        47     9      180.000000       -0.068953         4
         8         9        10        11     9        0.000000       -0.364110         1
         8         9        10        11     9      180.000000       20.353154         2
         8         9        10        11     9        0.000000       -1.065339         3
         8         9        10        11     9      180.000000       -0.329256         4
         8        13        12        11     9        0.000000       -0.364110         1
         8        13        12        11     9      180.000000       20.353154         2
         8        13        12        11     9        0.000000       -1.065339         3
         8        13        12        11     9      180.000000       -0.329256         4
         9         8        13        12     9        0.000000       -0.012569         1
         9         8        13        12     9      180.000000       12.740994         2
         9         8        13        12     9        0.000000       -0.087880         3
         9         8        13        12     9      180.000000       -0.164661         4
         9         8        13        49     9        0.000000        0.178443         1
         9         8        13        49     9      180.000000       11.837788         2
         9         8        13        49     9        0.000000       -0.254565         3
         9         8        13        49     9      180.000000        0.092794         4
         9        10        11        12     9        0.000000       -0.467050         1
         9        10        11        12     9      180.000000       13.598370         2
         9        10        11        12     9        0.000000        0.507732         3
         9        10        11        12     9      180.000000       -0.508145         4
         9        10        11        14     9        0.000000        0.963323         1
         9        10        11        14     9      180.000000       16.649359         2
         9        10        11        14     9        0.000000        0.471591         3
         9        10        11        14     9      180.000000       -0.798386         4
        10         9         8        13     9        0.000000       -0.012569         1
        10         9         8        13     9      180.000000       12.740994         2
        10         9         8        13     9        0.000000       -0.087880         3
        10         9         8        13     9      180.000000       -0.164661         4
        10        11        12        13     9        0.000000       -0.467050         1
        10        11        12        13     9      180.000000       13.598370         2
        10        11        12        13     9        0.000000        0.507732         3
        10        11        12        13     9      180.000000       -0.508145         4
        10        11        14        15     9        0.000000       -0.150156         1
        10        11        14        15     9      180.000000        5.296820         2
        10        11        14        15     9        0.000000        0.065735         3
        10        11        14        15     9      180.000000        0.028830         4
        10        11        14        35     9        0.000000       -0.297678         1
        10        11        14        35     9      180.000000        5.258441         2
        10        11        14        35     9        0.000000        0.011333         3
        10        11        14        35     9      180.000000        0.052447         4
        11        10         9        48     9        0.000000        0.034630         1
        11        10         9        48     9      180.000000       18.021883         2
        11        10         9        48     9        0.000000       -0.116685         3
        11        10         9        48     9      180.000000       -0.170615         4
        11        12        13        49     9        0.000000        0.034630         1
        11        12        13        49     9      180.000000       18.021883         2
        11        12        13        49     9        0.000000       -0.116685         3
        11        12        13        49     9      180.000000       -0.170615         4
        11        14        15        16     9        0.000000       -0.103906         1
        11        14        15        16     9      180.000000       15.017342         2
        11        14        15        16     9        0.000000       -0.376856         3
        11        14        15        16     9      180.000000       -0.301391         4
        11        14        15        50     9        0.000000       -0.154818         1
        11        14        15        50     9      180.000000       12.171941         2
        11        14        15        50     9        0.000000       -0.452430         3
        11        14        15        50     9      180.000000        0.109925         4
        11        14        35        18     9        0.000000       -0.003436         1
        11        14        35        18     9      180.000000       15.141860         2
        11        14        35        18     9        0.000000       -0.344450         3
        11        14        35        18     9      180.000000       -0.335944         4
        11        14        35        61     9        0.000000       -0.138620         1
        11        14        35        61     9      180.000000       12.428054         2
        11        14        35        61     9        0.000000       -0.399634         3
        11        14        35        61     9      180.000000        0.084363         4
        12        11        14        15     9        0.000000       -0.150156         1
        12        11        14        15     9      180.000000        5.296820         2
        12        11        14        15     9        0.000000        0.065735         3
        12        11        14        15     9      180.000000        0.028830         4
        12        11        14        35     9        0.000000       -0.297678         1
        12        11        14        35     9      180.000000        5.258441         2
        12        11        14        35     9        0.000000        0.011333         3
        12        11        14        35     9      180.000000        0.052447         4
        13         8         9        48     9        0.000000        0.178443         1
        13         8         9        48     9      180.000000       11.837788         2
        13         8         9        48     9        0.000000       -0.254565         3
        13         8         9        48     9      180.000000        0.092794         4
        13        12        11        14     9        0.000000        0.963323         1
        13        12        11        14     9      180.000000       16.649359         2
        13        12        11        14     9        0.000000        0.471591         3
        13        12        11        14     9      180.000000       -0.798386         4
        14        15        16        17     9        0.000000       -0.024264         1
        14        15        16        17     9      180.000000       19.080273         2
        14        15        16        17     9        0.000000       -1.608946         3
        14        15        16        17     9      180.000000       -0.405125         4
        14        15        16        51     9        0.000000       -0.049163         1
        14        15        16        51     9      180.000000       14.510427         2
        14        15        16        51     9        0.000000       -0.511394         3
        14        15        16        51     9      180.000000        0.135171         4
        14        35        18        17     9        0.000000       -0.088535         1
        14        35        18        17     9      180.000000       19.421654         2
        14        35        18        17     9        0.000000       -1.372015         3
        14        35        18        17     9      180.000000       -0.512778         4
        14        35        18        19     9        0.000000       -0.117504         1
        14        35        18        19     9      180.000000       16.310102         2
        14        35        18        19     9        0.000000       -0.287584         3
        14        35        18        19     9      180.000000       -0.435241         4
        15        14        35        18     9        0.000000       -0.056433         1
        15        14        35        18     9      180.000000       17.631722         2
        15        14        35        18     9        0.000000       -1.156990         3
        15        14        35        18     9      180.000000       -0.380292         4
        15        14        35        61     9        0.000000        0.097073         1
        15        14        35        61     9      180.000000       13.969415         2
        15        14        35        61     9        0.000000       -0.596710         3
        15        14        35        61     9      180.000000        0.033850         4
        15        16        17        18     9        0.000000        0.048728         1
        15        16        17        18     9      180.000000       18.130306         2
        15        16        17        18     9        0.000000       -1.351408         3
        15        16        17        18     9      180.000000       -0.427612         4
        15        16        17        52     9        0.000000        0.145761         1
        15        16        17        52     9      180.000000       14.161630         2
        15        16        17        52     9        0.000000       -0.660149         3
        15        16        17        52     9      180.000000        0.079006         4
        16        15        14        35     9        0.000000       -0.162136         1
        16        15        14        35     9      180.000000       17.899872         2
        16        15        14        35     9        0.000000       -1.327732         3
        16        15        14        35     9      180.000000       -0.351838         4
        16        17        18        19     9        0.000000        0.053547         1
        16        17        18        19     9      180.000000       15.887048         2
        16        17        18        19     9        0.000000       -0.316713         3
        16        17        18        19     9      180.000000       -0.265416         4
        16        17        18        35     9        0.000000       -0.151524         1
        16        17        18        35     9      180.000000       18.846664         2
        16        17        18        35     9        0.000000       -1.254828         3
        16        17        18        35     9      180.000000       -0.455850         4
        17        16        15        50     9        0.000000        0.007972         1
        17        16        15        50     9      180.000000       14.742953         2
        17        16        15        50     9        0.000000       -0.729683         3
        17        16        15        50     9      180.000000        0.116077         4
        17        18        19        20     9        0.000000        0.030564         1
        17        18        19        20     9      180.000000        0.258279         2
        17        18        19        20     9        0.000000        0.090887         3
        17        18        19        20     9      180.000000        0.036616         4
        17        18        19        53     9        0.000000       -0.023737         1
        17        18        19        53     9      180.000000       -0.040447         2
        17        18        19        53     9        0.000000        0.007768         3
        17        18        19        53     9      180.000000        0.008144         4
        17        18        19        54     9        0.000000       -0.023737         1
        17        18        19        54     9      180.000000       -0.040447         2
        17        18        19        54     9        0.000000        0.007768         3
        17        18        19        54     9      180.000000        0.008144         4
        17        18        35        61     9        0.000000       -0.070563         1
        17        18        35        61     9      180.000000       14.570774         2
        17        18        35        61     9        0.000000       -0.622453         3
        17        18        35        61     9      180.000000        0.027389         4
        18        17        16        51     9        0.000000        0.131673         1
        18        17        16        51     9      180.000000       14.689557         2
        18        17        16        51     9        0.000000       -0.643310         3
        18        17        16        51     9      180.000000        0.060173         4
        18        19        20        21     9        0.000000       -2.175337         1
        18        19        20        21     9      180.000000       -0.781815         2
        18        19        20        21     9        0.000000        0.239373         3
        18        19        20        21     9      180.000000       -0.039013         4
        18        19        20        25     9        0.000000       -0.294338         1
        18        19        20        25     9      180.000000       -1.944838         2
        18        19        20        25     9        0.000000        0.574463         3
        18        19        20        25     9      180.000000       -0.274890         4
        19        18        17        52     9        0.000000       -0.084029         1
        19        18        17        52     9      180.000000       13.043121         2
        19        18        17        52     9        0.000000       -0.439001         3
        19        18        17        52     9      180.000000        0.103644         4
        19        18        35        61     9        0.000000       -0.246462         1
        19        18        35        61     9      180.000000       13.209735         2
        19        18        35        61     9        0.000000       -0.513719         3
        19        18        35        61     9      180.000000        0.112039         4
        19        20        21        22     9        0.000000        2.219232         1
        19        20        21        22     9      180.000000       14.227514         2
        19        20        21        22     9        0.000000        0.842091         3
        19        20        21        22     9      180.000000       -0.482320         4
        19        20        25        24     9        0.000000        0.727260         1
        19        20        25        24     9      180.000000        9.246156         2
        19        20        25        24     9        0.000000        0.502600         3
        19        20        25        24     9      180.000000       -0.193507         4
        19        20        25        26     9        0.000000       -0.195296         1
        19        20        25        26     9      180.000000       10.127566         2
        19        20        25        26     9        0.000000       -1.045207         3
        19        20        25        26     9      180.000000        0.094586         4
        20        19        18        35     9        0.000000        0.151706         1
        20        19        18        35     9      180.000000        0.281531         2
        20        19        18        35     9        0.000000        0.030784         3
        20        19        18        35     9      180.000000        0.045644         4
        20        21        22        23     9        0.000000       -0.101650         1
        20        21        22        23     9      180.000000       35.886522         2
        20        21        22        23     9        0.000000       -0.622939         3
        20        21        22        23     9      180.000000       -1.055693         4
        20        21        22        27     9        0.000000       -0.114133         1
        20        21        22        27     9      180.000000       35.160366         2
        20        21        22        27     9        0.000000        2.093472         3
        20        21        22        27     9      180.000000       -1.645611         4
        20        25        24        23     9        0.000000        1.364779         1
        20        25        24        23     9      180.000000        2.014246         2
        20        25        24        23     9        0.000000        0.435102         3
        20        25        24        23     9      180.000000        0.007037         4
        20        25        24        56     9        0.000000        0.158352         1
        20        25        24        56     9      180.000000        4.595399         2
        20        25        24        56     9        0.000000       -0.019784         3
        20        25        24        56     9      180.000000        0.196144         4
        21        20        19        53     9        0.000000        0.298767         1
        21        20        19        53     9      180.000000        0.078292         2
        21        20        19        53     9        0.000000        0.019662         3
        21        20        19        53     9      180.000000        0.086536         4
        21        20        19        54     9        0.000000        0.298767         1
        21        20        19        54     9      180.000000        0.078292         2
        21        20        19        54     9        0.000000        0.019662         3
        21        20        19        54     9      180.000000        0.086536         4
        21        20        25        24     9        0.000000        1.359758         1
        21        20        25        24     9      180.000000        2.455735         2
        21        20        25        24     9        0.000000        0.532356         3
        21        20        25        24     9      180.000000        0.115454         4
        21        20        25        26     9        0.000000       -0.191706         1
        21        20        25        26     9      180.000000        9.009476         2
        21        20        25        26     9        0.000000       -0.415666         3
        21        20        25        26     9      180.000000       -0.488868         4
        21        22        23        24     9        0.000000       -0.195892         1
        21        22        23        24     9      180.000000       12.112472         2
        21        22        23        24     9        0.000000       -0.538333         3
        21        22        23        24     9      180.000000       -0.419916         4
        21        22        23        55     9        0.000000       -0.013453         1
        21        22        23        55     9      180.000000        9.192949         2
        21        22        23        55     9        0.000000       -0.281104         3
        21        22        23        55     9      180.000000       -0.087076         4
        21        22        27        28     9        0.000000        0.000775         1
        21        22        27        28     9      180.000000        3.789659         2
        21        22        27        28     9        0.000000        0.107493         3
        21        22        27        28     9      180.000000        0.008995         4
        21        22        27        32     9        0.000000        0.323635         1
        21        22        27        32     9      180.000000        3.837026         2
        21        22        27        32     9        0.000000        0.134186         3
        21        22        27        32     9      180.000000        0.016524         4
        22        21        20        25     9        0.000000        2.140359         1
        22        21        20        25     9      180.000000        8.406787         2
        22        21        20        25     9        0.000000        0.352108         3
        22        21        20        25     9      180.000000       -0.020829         4
        22        23        24        25     9        0.000000       -0.109862         1
        22        23        24        25     9      180.000000       21.075593         2
        22        23        24        25     9        0.000000       -0.976334         3
        22        23        24        25     9      180.000000       -0.633940         4
        22        23        24        56     9        0.000000       -0.071018         1
        22        23        24        56     9      180.000000       17.277295         2
        22        23        24        56     9        0.000000       -0.360906         3
        22        23        24        56     9      180.000000       -0.063455         4
        22        27        28        29     9        0.000000        0.178909         1
        22        27        28        29     9      180.000000       15.668937         2
        22        27        28        29     9        0.000000       -0.124829         3
        22        27        28        29     9      180.000000       -0.213120         4
        22        27        28        57     9        0.000000       -0.121235         1
        22        27        28        57     9      180.000000       12.379196         2
        22        27        28        57     9        0.000000       -0.322769         3
        22        27        28        57     9      180.000000        0.187057         4
        22        27        32        31     9        0.000000        0.134777         1
        22        27        32        31     9      180.000000       15.996790         2
        22        27        32        31     9        0.000000       -0.098193         3
        22        27        32        31     9      180.000000       -0.330953         4
        22        27        32        60     9        0.000000       -0.170458         1
        22        27        32        60     9      180.000000       12.376861         2
        22        27        32        60     9        0.000000       -0.305662         3
        22        27        32        60     9      180.000000        0.231765         4
        23        22        27        28     9        0.000000       -0.013042         1
        23        22        27        28     9      180.000000        3.955284         2
        23        22        27        28     9        0.000000        0.146684         3
        23        22        27        28     9      180.000000       -0.100290         4
        23        22        27        32     9        0.000000       -0.072454         1
        23        22        27        32     9      180.000000        3.978858         2
        23        22        27        32     9        0.000000        0.135788         3
        23        22        27        32     9      180.000000       -0.103767         4
        23        24        25        26     9        0.000000        0.373567         1
        23        24        25        26     9      180.000000        6.488702         2
        23        24        25        26     9        0.000000        0.040900         3
        23        24        25        26     9      180.000000       -0.219160         4
        24        23        22        27     9        0.000000        0.070649         1
        24        23        22        27     9      180.000000       12.787657         2
        24        23        22        27     9        0.000000       -0.190552         3
        24        23        22        27     9      180.000000       -0.475417         4
        25        20        19        53     9        0.000000       -0.045616         1
        25        20        19        53     9      180.000000        0.147989         2
        25        20        19        53     9        0.000000        0.144977         3
        25        20        19        53     9      180.000000        0.114694         4
        25        20        19        54     9        0.000000       -0.045616         1
        25        20        19        54     9      180.000000        0.147989         2
        25        20        19        54     9        0.000000        0.144977         3
        25        20        19        54     9      180.000000        0.114694         4
        25        24        23        55     9        0.000000        0.380984         1
        25        24        23        55     9      180.000000       17.184470         2
        25        24        23        55     9        0.000000       -0.152610         3
        25        24        23        55     9      180.000000       -0.094195         4
        26        25        24        56     9        0.000000       -1.098766         1
        26        25        24        56     9      180.000000        8.614289         2
        26        25        24        56     9        0.000000       -0.424066         3
        26        25        24        56     9      180.000000       -0.304321         4
        27        22        23        55     9        0.000000        0.018117         1
        27        22        23        55     9      180.000000       11.555986         2
        27        22        23        55     9        0.000000       -0.318106         3
        27        22        23        55     9      180.000000        0.063131         4
        27        28        29        30     9        0.000000        0.020622         1
        27        28        29        30     9      180.000000       19.347684         2
        27        28        29        30     9        0.000000       -1.494912         3
        27        28        29        30     9      180.000000       -0.471089         4
        27        28        29        58     9        0.000000       -0.048072         1
        27        28        29        58     9      180.000000       15.254794         2
        27        28        29        58     9        0.000000       -0.527448         3
        27        28        29        58     9      180.000000        0.019762         4
        27        32        31        30     9        0.000000       -0.081805         1
        27        32        31        30     9      180.000000       18.859676         2
        27        32        31        30     9        0.000000       -1.528327         3
        27        32        31        30     9      180.000000       -0.471040         4
        27        32        31        33     9        0.000000        0.025548         1
        27        32        31        33     9      180.000000       16.956423         2
        27        32        31        33     9        0.000000        0.040972         3
        27        32        31        33     9      180.000000       -0.392489         4
        28        27        32        31     9        0.000000       -0.232570         1
        28        27        32        31     9      180.000000       18.523687         2
        28        27        32        31     9        0.000000       -1.265259         3
        28        27        32        31     9      180.000000       -0.412999         4
        28        27        32        60     9        0.000000       -0.108779         1
        28        27        32        60     9      180.000000       14.088727         2
        28        27        32        60     9        0.000000       -0.569941         3
        28        27        32        60     9      180.000000        0.050935         4
        28        29        30        31     9        0.000000       -0.121584         1
        28        29        30        31     9      180.000000       19.028355         2
        28        29        30        31     9        0.000000       -1.418465         3
        28        29        30        31     9      180.000000       -0.498814         4
        28        29        30        59     9        0.000000       -0.058622         1
        28        29        30        59     9      180.000000       14.442881         2
        28        29        30        59     9        0.000000       -0.631880         3
        28        29        30        59     9      180.000000        0.067666         4
        29        28        27        32     9        0.000000       -0.124932         1
        29        28        27        32     9      180.000000       18.260065         2
        29        28        27        32     9        0.000000       -1.290863         3
        29        28        27        32     9      180.000000       -0.387636         4
        29        30        31        32     9        0.000000       -0.087998         1
        29        30        31        32     9      180.000000       18.264801         2
        29        30        31        32     9        0.000000       -1.474812         3
        29        30        31        32     9      180.000000       -0.447063         4
        29        30        31        33     9        0.000000        0.047618         1
        29        30        31        33     9      180.000000       16.765671         2
        29        30        31        33     9        0.000000       -0.031737         3
        29        30        31        33     9      180.000000       -0.265730         4
        30        29        28        57     9        0.000000        0.013715         1
        30        29        28        57     9      180.000000       14.892018         2
        30        29        28        57     9        0.000000       -0.613553         3
        30        29        28        57     9      180.000000        0.112630         4
        30        31        32        60     9        0.000000       -0.027643         1
        30        31        32        60     9      180.000000       14.392653         2
        30        31        32        60     9        0.000000       -0.678699         3
        30        31        32        60     9      180.000000        0.049647         4
        30        31        33        34     9        0.000000        0.000000         1
        30        31        33        34     9      180.000000        0.000000         2
        30        31        33        34     9        0.000000        0.000000         3
        30        31        33        34     9      180.000000        0.000000         4
        31        30        29        58     9        0.000000       -0.067862         1
        31        30        29        58     9      180.000000       14.630630         2
        31        30        29        58     9        0.000000       -0.558798         3
        31        30        29        58     9      180.000000        0.087065         4
        32        27        28        57     9        0.000000       -0.160447         1
        32        27        28        57     9      180.000000       13.973310         2
        32        27        28        57     9        0.000000       -0.571702         3
        32        27        28        57     9      180.000000        0.069584         4
        32        31        30        59     9        0.000000       -0.080682         1
        32        31        30        59     9      180.000000       14.175282         2
        32        31        30        59     9        0.000000       -0.659334         3
        32        31        30        59     9      180.000000       -0.006251         4
        32        31        33        34     9        0.000000        0.000000         1
        32        31        33        34     9      180.000000        0.000000         2
        32        31        33        34     9        0.000000        0.000000         3
        32        31        33        34     9      180.000000        0.000000         4
        33        31        30        59     9        0.000000        0.051172         1
        33        31        30        59     9      180.000000       12.879460         2
        33        31        30        59     9        0.000000       -0.288708         3
        33        31        30        59     9      180.000000        0.120152         4
        33        31        32        60     9        0.000000        0.039239         1
        33        31        32        60     9      180.000000       12.980994         2
        33        31        32        60     9        0.000000       -0.222725         3
        33        31        32        60     9      180.000000        0.170098         4
        35        14        15        50     9        0.000000        0.005551         1
        35        14        15        50     9      180.000000       13.617099         2
        35        14        15        50     9        0.000000       -0.708127         3
        35        14        15        50     9      180.000000        0.107035         4
        35        18        17        52     9        0.000000       -0.033482         1
        35        18        17        52     9      180.000000       14.278977         2
        35        18        17        52     9        0.000000       -0.638917         3
        35        18        17        52     9      180.000000        0.005808         4
        35        18        19        53     9        0.000000       -0.052102         1
        35        18        19        53     9      180.000000       -0.013188         2
        35        18        19        53     9        0.000000       -0.043478         3
        35        18        19        53     9      180.000000        0.008194         4
        35        18        19        54     9        0.000000       -0.052102         1
        35        18        19        54     9      180.000000       -0.013188         2
        35        18        19        54     9        0.000000       -0.043478         3
        35        18        19        54     9      180.000000        0.008194         4
        36         5         4        43     9        0.000000       -0.025620         1
        36         5         4        43     9      180.000000       -0.007914         2
        36         5         4        43     9        0.000000        0.248834         3
        36         5         4        43     9      180.000000        0.008845         4
        36         5         4        44     9        0.000000       -0.025620         1
        36         5         4        44     9      180.000000       -0.007914         2
        36         5         4        44     9        0.000000        0.248834         3
        36         5         4        44     9      180.000000        0.008845         4
        36         5         6        46     9        0.000000       -0.022066         1
        36         5         6        46     9      180.000000        0.053292         2
        36         5         6        46     9        0.000000        0.657798         3
        36         5         6        46     9      180.000000        0.018667         4
        36         5         6        47     9        0.000000       -0.022066         1
        36         5         6        47     9      180.000000        0.053292         2
        36         5         6        47     9        0.000000        0.657798         3
        36         5         6        47     9      180.000000        0.018667         4
        36        37         2        66     9        0.000000       -0.193516         1
        36        37         2        66     9      180.000000       -0.129210         2
        36        37         2        66     9        0.000000        0.375506         3
        36        37         2        66     9      180.000000        0.013396         4
        37         2         1        38     9        0.000000       -0.012778         1
        37         2         1        38     9      180.000000        0.035588         2
        37         2         1        38     9        0.000000        0.651244         3
        37         2         1        38     9      180.000000       -0.023663         4
        37         2         1        39     9        0.000000       -0.012778         1
        37         2         1        39     9      180.000000        0.035588         2
        37         2         1        39     9        0.000000        0.651244         3
        37         2         1        39     9      180.000000       -0.023663         4
        37         2         1        40     9        0.000000       -0.012778         1
        37         2         1        40     9      180.000000        0.035588         2
        37         2         1        40     9        0.000000        0.651244         3
        37         2         1        40     9      180.000000       -0.023663         4
        37         2         3        41     9        0.000000       -0.045854         1
        37         2         3        41     9      180.000000        0.042927         2
        37         2         3        41     9        0.000000        0.435632         3
        37         2         3        41     9      180.000000       -0.055805         4
        37         2         3        42     9        0.000000       -0.045854         1
        37         2         3        42     9      180.000000        0.042927         2
        37         2         3        42     9        0.000000        0.435632         3
        37         2         3        42     9      180.000000       -0.055805         4
        37        36         5        45     9        0.000000       -0.633420         1
        37        36         5        45     9      180.000000       -0.141226         2
        37        36         5        45     9        0.000000        0.199092         3
        37        36         5        45     9      180.000000        0.075646         4
        38         1         2        66     9        0.000000       -0.196999         1
        38         1         2        66     9      180.000000        0.156670         2
        38         1         2        66     9        0.000000        0.564155         3
        38         1         2        66     9      180.000000        0.020999         4
        39         1         2        66     9        0.000000       -0.196999         1
        39         1         2        66     9      180.000000        0.156670         2
        39         1         2        66     9        0.000000        0.564155         3
        39         1         2        66     9      180.000000        0.020999         4
        40         1         2        66     9        0.000000       -0.196999         1
        40         1         2        66     9      180.000000        0.156670         2
        40         1         2        66     9        0.000000        0.564155         3
        40         1         2        66     9      180.000000        0.020999         4
        41         3         2        66     9        0.000000       -0.037651         1
        41         3         2        66     9      180.000000        0.145012         2
        41         3         2        66     9        0.000000        0.470440         3
        41         3         2        66     9      180.000000       -0.025821         4
        41         3         4        43     9        0.000000       -0.002169         1
        41         3         4        43     9      180.000000        0.020192         2
        41         3         4        43     9        0.000000        0.439257         3
        41         3         4        43     9      180.000000        0.001681         4
        41         3         4        44     9        0.000000       -0.002169         1
        41         3         4        44     9      180.000000        0.020192         2
        41         3         4        44     9        0.000000        0.439257         3
        41         3         4        44     9      180.000000        0.001681         4
        42         3         2        66     9        0.000000       -0.037651         1
        42         3         2        66     9      180.000000        0.145012         2
        42         3         2        66     9        0.000000        0.470440         3
        42         3         2        66     9      180.000000       -0.025821         4
        42         3         4        43     9        0.000000       -0.002169         1
        42         3         4        43     9      180.000000        0.020192         2
        42         3         4        43     9        0.000000        0.439257         3
        42         3         4        43     9      180.000000        0.001681         4
        42         3         4        44     9        0.000000       -0.002169         1
        42         3         4        44     9      180.000000        0.020192         2
        42         3         4        44     9        0.000000        0.439257         3
        42         3         4        44     9      180.000000        0.001681         4
        43         4         5        45     9        0.000000        0.051946         1
        43         4         5        45     9      180.000000       -0.004034         2
        43         4         5        45     9        0.000000        0.373458         3
        43         4         5        45     9      180.000000       -0.020472         4
        44         4         5        45     9        0.000000        0.051946         1
        44         4         5        45     9      180.000000       -0.004034         2
        44         4         5        45     9        0.000000        0.373458         3
        44         4         5        45     9      180.000000       -0.020472         4
        45         5         6        46     9        0.000000        0.067531         1
        45         5         6        46     9      180.000000        0.021265         2
        45         5         6        46     9        0.000000        0.654716         3
        45         5         6        46     9      180.000000       -0.058660         4
        45         5         6        47     9        0.000000        0.067531         1
        45         5         6        47     9      180.000000        0.021265         2
        45         5         6        47     9        0.000000        0.654716         3
        45         5         6        47     9      180.000000       -0.058660         4
        45         5        36        62     9        0.000000        0.051946         1
        45         5        36        62     9      180.000000       -0.004034         2
        45         5        36        62     9        0.000000        0.373458         3
        45         5        36        62     9      180.000000       -0.020472         4
        45         5        36        63     9        0.000000        0.051946         1
        45         5        36        63     9      180.000000       -0.004034         2
        45         5        36        63     9        0.000000        0.373458         3
        45         5        36        63     9      180.000000       -0.020472         4
        50        15        16        51     9        0.000000       -0.223301         1
        50        15        16        51     9      180.000000       12.042311         2
        50        15        16        51     9        0.000000       -0.706433         3
        50        15        16        51     9      180.000000        0.374018         4
        51        16        17        52     9        0.000000       -0.085425         1
        51        16        17        52     9      180.000000       11.867550         2
        51        16        17        52     9        0.000000       -0.566931         3
        51        16        17        52     9      180.000000        0.229284         4
        55        23        24        56     9        0.000000       -0.176226         1
        55        23        24        56     9      180.000000       14.412884         2
        55        23        24        56     9        0.000000       -0.511875         3
        55        23        24        56     9      180.000000        0.397893         4
        57        28        29        58     9        0.000000       -0.201850         1
        57        28        29        58     9      180.000000       12.179519         2
        57        28        29        58     9        0.000000       -0.686559         3
        57        28        29        58     9      180.000000        0.316921         4
        58        29        30        59     9        0.000000       -0.197386         1
        58        29        30        59     9      180.000000       11.713987         2
        58        29        30        59     9        0.000000       -0.625679         3
        58        29        30        59     9      180.000000        0.290560         4
        62        36        37        64     9        0.000000       -0.002169         1
        62        36        37        64     9      180.000000        0.020192         2
        62        36        37        64     9        0.000000        0.439257         3
        62        36        37        64     9      180.000000        0.001681         4
        62        36        37        65     9        0.000000       -0.002169         1
        62        36        37        65     9      180.000000        0.020192         2
        62        36        37        65     9        0.000000        0.439257         3
        62        36        37        65     9      180.000000        0.001681         4
        63        36        37        64     9        0.000000       -0.002169         1
        63        36        37        64     9      180.000000        0.020192         2
        63        36        37        64     9        0.000000        0.439257         3
        63        36        37        64     9      180.000000        0.001681         4
        63        36        37        65     9        0.000000       -0.002169         1
        63        36        37        65     9      180.000000        0.020192         2
        63        36        37        65     9        0.000000        0.439257         3
        63        36        37        65     9      180.000000        0.001681         4
        64        37         2        66     9        0.000000       -0.037651         1
        64        37         2        66     9      180.000000        0.145012         2
        64        37         2        66     9        0.000000        0.470440         3
        64        37         2        66     9      180.000000       -0.025821         4
        65        37         2        66     9        0.000000       -0.037651         1
        65        37         2        66     9      180.000000        0.145012         2
        65        37         2        66     9        0.000000        0.470440         3
        65        37         2        66     9      180.000000       -0.025821         4

[ dihedrals ] ; impropers
;       ai        aj        ak        al funct           phase               k        pn
         8         7         9        13     4      180.000000        0.429672         2
         8         9        13         7     4      180.000000        0.429672         2
         8        13         7         9     4      180.000000        0.429672         2
         9         8        10        48     4      180.000000        5.825110         2
         9        10        48         8     4      180.000000        5.825110         2
         9        48         8        10     4      180.000000        5.825110         2
        11        10        12        14     4      180.000000       27.893333         2
        11        12        14        10     4      180.000000       27.893333         2
        11        14        10        12     4      180.000000       27.893333         2
        13         8        12        49     4      180.000000        5.825110         2
        13        12        49         8     4      180.000000        5.825110         2
        13        49         8        12     4      180.000000        5.825110         2
        16        15        17        51     4      180.000000        2.822822         2
        16        17        51        15     4      180.000000        2.822822         2
        16        51        15        17     4      180.000000        2.822822         2
        17        16        18        52     4      180.000000        2.424297         2
        17        18        52        16     4      180.000000        2.424297         2
        17        52        16        18     4      180.000000        2.424297         2
        25        20        24        26     4      180.000000       27.780523         2
        25        24        26        20     4      180.000000       27.780523         2
        25        26        20        24     4      180.000000       27.780523         2
        35        14        18        61     4      180.000000        1.715332         2
        35        18        61        14     4      180.000000        1.715332         2
        35        61        14        18     4      180.000000        1.715332         2

[ pairs ]
;       ai        aj funct
         1         4     1
         1        36     1
         1        41     1
         1        42     1
         1        64     1
         1        65     1
         2         5     1
         2        43     1
         2        44     1
         2        62     1
         2        63     1
         3         6     1
         3        36     1
         3        38     1
         3        39     1
         3        40     1
         3        45     1
         3        64     1
         3        65     1
         4         7     1
         4        37     1
         4        46     1
         4        47     1
         4        62     1
         4        63     1
         4        66     1
         5         8     1
         5        41     1
         5        42     1
         5        64     1
         5        65     1
         6         9     1
         6        13     1
         6        37     1
         6        43     1
         6        44     1
         6        62     1
         6        63     1
         7        10     1
         7        12     1
         7        36     1
         7        45     1
         7        48     1
         7        49     1
         8        11     1
         8        46     1
         8        47     1
         9        12     1
         9        14     1
         9        49     1
        10        13     1
        10        15     1
        10        35     1
        11        16     1
        11        18     1
        11        48     1
        11        49     1
        11        50     1
        11        61     1
        12        15     1
        12        35     1
        13        14     1
        13        48     1
        14        17     1
        14        19     1
        14        51     1
        15        18     1
        15        52     1
        15        61     1
        16        19     1
        16        35     1
        17        20     1
        17        50     1
        17        53     1
        17        54     1
        17        61     1
        18        21     1
        18        25     1
        18        51     1
        19        22     1
        19        24     1
        19        26     1
        19        52     1
        19        61     1
        20        23     1
        20        27     1
        20        35     1
        20        56     1
        21        24     1
        21        26     1
        21        28     1
        21        32     1
        21        53     1
        21        54     1
        21        55     1
        22        25     1
        22        29     1
        22        31     1
        22        56     1
        22        57     1
        22        60     1
        23        26     1
        23        28     1
        23        32     1
        24        27     1
        25        53     1
        25        54     1
        25        55     1
        26        56     1
        27        30     1
        27        33     1
        27        55     1
        27        58     1
        28        31     1
        28        59     1
        28        60     1
        29        32     1
        29        33     1
        30        34     1
        30        57     1
        30        60     1
        31        58     1
        32        34     1
        32        57     1
        32        59     1
        33        59     1
        33        60     1
        35        50     1
        35        52     1
        35        53     1
        35        54     1
        36        43     1
        36        44     1
        36        46     1
        36        47     1
        36        66     1
        37        38     1
        37        39     1
        37        40     1
        37        41     1
        37        42     1
        37        45     1
        38        66     1
        39        66     1
        40        66     1
        41        43     1
        41        44     1
        41        66     1
        42        43     1
        42        44     1
        42        66     1
        43        45     1
        44        45     1
        45        46     1
        45        47     1
        45        62     1
        45        63     1
        50        51     1
        51        52     1
        55        56     1
        57        58     1
        58        59     1
        62        64     1
        62        65     1
        63        64     1
        63        65     1
        64        66     1
        65        66     1
