; ITP file created by ByteFF-ML, 2026-02-21 07:36:50.648102

[ atomtypes ]
;name           bonded.type        at.num        mass        charge   ptype           sigma         epsilon
 c0bf                                   6      0.0000       0.00000       A     3.39685e-01     4.50679e-01
 n1bf                                   7      0.0000       0.00000       A     2.58860e-01     1.06555e+01
 c2bf                                   6      0.0000       0.00000       A     3.39685e-01     4.50679e-01
 c3bf                                   6      0.0000       0.00000       A     3.39656e-01     4.54291e-01
 c4bf                                   6      0.0000       0.00000       A     3.39700e-01     4.50870e-01
 c5bf                                   6      0.0000       0.00000       A     3.39813e-01     4.50487e-01
 o6bf                                   8      0.0000       0.00000       A     3.15617e-01     3.00893e-01
 c7bf                                   6      0.0000       0.00000       A     3.31638e-01     4.13082e-01
 o8bf                                   8      0.0000       0.00000       A     3.04631e-01     6.13930e-01
 n9bf                                   7      0.0000       0.00000       A     3.27035e-01     4.89098e-01
 c10bf                                  6      0.0000       0.00000       A     3.31385e-01     4.13639e-01
 c11bf                                  6      0.0000       0.00000       A     3.31452e-01     4.11845e-01
 c12bf                                  6      0.0000       0.00000       A     3.31465e-01     4.13516e-01
 c13bf                                  6      0.0000       0.00000       A     3.31477e-01     4.12611e-01
 c14bf                                  6      0.0000       0.00000       A     3.31637e-01     4.13953e-01
 c15bf                                  6      0.0000       0.00000       A     3.39550e-01     4.50040e-01
 n16bf                                  7      0.0000       0.00000       A     3.18016e-01     6.86340e-01
 n17bf                                  7      0.0000       0.00000       A     3.38457e-01     3.91292e-01
 c18bf                                  6      0.0000       0.00000       A     3.31460e-01     4.12830e-01
 c19bf                                  6      0.0000       0.00000       A     3.31509e-01     4.14763e-01
 c20bf                                  6      0.0000       0.00000       A     3.31666e-01     4.12836e-01
 c21bf                                  6      0.0000       0.00000       A     3.31738e-01     4.11199e-01
 o22bf                                  8      0.0000       0.00000       A     3.04772e-01     6.11569e-01
 c23bf                                  6      0.0000       0.00000       A     3.31315e-01     4.12943e-01
 c24bf                                  6      0.0000       0.00000       A     3.31513e-01     4.12724e-01
 c25bf                                  6      0.0000       0.00000       A     3.31501e-01     4.12675e-01
 c26bf                                  6      0.0000       0.00000       A     3.31532e-01     4.13045e-01
 f27bf                                  9      0.0000       0.00000       A     3.03427e-01     3.47782e-01
 c28bf                                  6      0.0000       0.00000       A     3.31501e-01     4.12675e-01
 c29bf                                  6      0.0000       0.00000       A     3.31513e-01     4.12724e-01
 c30bf                                  6      0.0000       0.00000       A     3.31519e-01     4.13894e-01
 h31bf                                  1      0.0000       0.00000       A     1.88202e-01     8.71518e-02
 h32bf                                  1      0.0000       0.00000       A     1.88202e-01     8.71518e-02
 h33bf                                  1      0.0000       0.00000       A     1.88202e-01     8.71518e-02
 h34bf                                  1      0.0000       0.00000       A     1.88202e-01     8.71518e-02
 h35bf                                  1      0.0000       0.00000       A     1.88202e-01     8.71518e-02
 h36bf                                  1      0.0000       0.00000       A     1.88202e-01     8.71518e-02
 h37bf                                  1      0.0000       0.00000       A     1.87943e-01     8.69571e-02
 h38bf                                  1      0.0000       0.00000       A     1.87943e-01     8.69571e-02
 h39bf                                  1      0.0000       0.00000       A     2.60121e-01     8.76130e-02
 h40bf                                  1      0.0000       0.00000       A     2.60121e-01     8.76130e-02
 h41bf                                  1      0.0000       0.00000       A     2.42001e-01     8.65405e-02
 h42bf                                  1      0.0000       0.00000       A     2.42001e-01     8.65405e-02
 h43bf                                  1      0.0000       0.00000       A     1.10599e-01     4.09695e-02
 h44bf                                  1      0.0000       0.00000       A     2.62571e-01     6.74818e-02
 h45bf                                  1      0.0000       0.00000       A     2.62510e-01     6.73717e-02
 h46bf                                  1      0.0000       0.00000       A     2.62513e-01     6.77228e-02
 h47bf                                  1      0.0000       0.00000       A     2.41782e-01     8.82882e-02
 h48bf                                  1      0.0000       0.00000       A     2.41782e-01     8.82882e-02
 h49bf                                  1      0.0000       0.00000       A     2.62454e-01     6.74499e-02
 h50bf                                  1      0.0000       0.00000       A     2.62620e-01     6.80388e-02
 h51bf                                  1      0.0000       0.00000       A     2.62473e-01     6.73350e-02
 h52bf                                  1      0.0000       0.00000       A     2.62536e-01     6.71355e-02
 h53bf                                  1      0.0000       0.00000       A     2.62536e-01     6.71355e-02
 h54bf                                  1      0.0000       0.00000       A     2.62473e-01     6.73350e-02
 h55bf                                  1      0.0000       0.00000       A     2.62635e-01     6.78585e-02
 h56bf                                  1      0.0000       0.00000       A     1.10658e-01     4.28273e-02

[ moleculetype ]
;name             nrexcl
 CHEMBL3402764_90       3

[ atoms ]
;       nr            type      resi   res      atom      cgnr      charge          mass ; qtot
         1            c0bf         1   UNL        c0         1     0.08833       12.0110 ; qtot    0.088
         2            n1bf         1   UNL        n1         2    -0.68469       14.0070 ; qtot   -0.596
         3            c2bf         1   UNL        c2         3     0.08833       12.0110 ; qtot   -0.508
         4            c3bf         1   UNL        c3         4     0.10924       12.0110 ; qtot   -0.399
         5            c4bf         1   UNL        c4         5    -0.11639       12.0110 ; qtot   -0.515
         6            c5bf         1   UNL        c5         6     0.17408       12.0110 ; qtot   -0.341
         7            o6bf         1   UNL        o6         7    -0.45316       15.9990 ; qtot   -0.794
         8            c7bf         1   UNL        c7         8     0.64497       12.0110 ; qtot   -0.149
         9            o8bf         1   UNL        o8         9    -0.51294       15.9990 ; qtot   -0.662
        10            n9bf         1   UNL        n9        10    -0.14360       14.0070 ; qtot   -0.806
        11           c10bf         1   UNL       c10        11    -0.00528       12.0110 ; qtot   -0.811
        12           c11bf         1   UNL       c11        12    -0.15372       12.0110 ; qtot   -0.965
        13           c12bf         1   UNL       c12        13    -0.08420       12.0110 ; qtot   -1.049
        14           c13bf         1   UNL       c13        14    -0.10597       12.0110 ; qtot   -1.155
        15           c14bf         1   UNL       c14        15    -0.10594       12.0110 ; qtot   -1.261
        16           c15bf         1   UNL       c15        16     0.15737       12.0110 ; qtot   -1.104
        17           n16bf         1   UNL       n16        17    -0.13312       14.0070 ; qtot   -1.237
        18           n17bf         1   UNL       n17        18    -0.41983       14.0070 ; qtot   -1.657
        19           c18bf         1   UNL       c18        19     0.39091       12.0110 ; qtot   -1.266
        20           c19bf         1   UNL       c19        20    -0.20630       12.0110 ; qtot   -1.472
        21           c20bf         1   UNL       c20        21    -0.27047       12.0110 ; qtot   -1.742
        22           c21bf         1   UNL       c21        22     0.53165       12.0110 ; qtot   -1.211
        23           o22bf         1   UNL       o22        23    -0.53905       15.9990 ; qtot   -1.750
        24           c23bf         1   UNL       c23        24    -0.13582       12.0110 ; qtot   -1.886
        25           c24bf         1   UNL       c24        25    -0.05736       12.0110 ; qtot   -1.943
        26           c25bf         1   UNL       c25        26    -0.15442       12.0110 ; qtot   -2.097
        27           c26bf         1   UNL       c26        27     0.17337       12.0110 ; qtot   -1.924
        28           f27bf         1   UNL       f27        28    -0.17685       18.9980 ; qtot   -2.101
        29           c28bf         1   UNL       c28        29    -0.15442       12.0110 ; qtot   -2.255
        30           c29bf         1   UNL       c29        30    -0.05736       12.0110 ; qtot   -2.313
        31           c30bf         1   UNL       c30        31    -0.12436       12.0110 ; qtot   -2.437
        32           h31bf         1   UNL       h31        32     0.10239        1.0080 ; qtot   -2.335
        33           h32bf         1   UNL       h32        33     0.10239        1.0080 ; qtot   -2.232
        34           h33bf         1   UNL       h33        34     0.10239        1.0080 ; qtot   -2.130
        35           h34bf         1   UNL       h34        35     0.10239        1.0080 ; qtot   -2.027
        36           h35bf         1   UNL       h35        36     0.10239        1.0080 ; qtot   -1.925
        37           h36bf         1   UNL       h36        37     0.10239        1.0080 ; qtot   -1.823
        38           h37bf         1   UNL       h37        38     0.10199        1.0080 ; qtot   -1.721
        39           h38bf         1   UNL       h38        39     0.10199        1.0080 ; qtot   -1.619
        40           h39bf         1   UNL       h39        40     0.08945        1.0080 ; qtot   -1.529
        41           h40bf         1   UNL       h40        41     0.08945        1.0080 ; qtot   -1.440
        42           h41bf         1   UNL       h41        42     0.07482        1.0080 ; qtot   -1.365
        43           h42bf         1   UNL       h42        43     0.07482        1.0080 ; qtot   -1.290
        44           h43bf         1   UNL       h43        44     0.17023        1.0080 ; qtot   -1.120
        45           h44bf         1   UNL       h44        45     0.13129        1.0080 ; qtot   -0.989
        46           h45bf         1   UNL       h45        46     0.11737        1.0080 ; qtot   -0.871
        47           h46bf         1   UNL       h46        47     0.12305        1.0080 ; qtot   -0.748
        48           h47bf         1   UNL       h47        48     0.08001        1.0080 ; qtot   -0.668
        49           h48bf         1   UNL       h48        49     0.08001        1.0080 ; qtot   -0.588
        50           h49bf         1   UNL       h49        50     0.20036        1.0080 ; qtot   -0.388
        51           h50bf         1   UNL       h50        51     0.21660        1.0080 ; qtot   -0.171
        52           h51bf         1   UNL       h51        52     0.12873        1.0080 ; qtot   -0.042
        53           h52bf         1   UNL       h52        53     0.13738        1.0080 ; qtot    0.095
        54           h53bf         1   UNL       h53        54     0.13738        1.0080 ; qtot    0.232
        55           h54bf         1   UNL       h54        55     0.12873        1.0080 ; qtot    0.361
        56           h55bf         1   UNL       h55        56     0.13527        1.0080 ; qtot    0.496
        57           h56bf         1   UNL       h56        57     0.50373        1.0080 ; qtot    1.000

[ bonds ]
;       ai        aj funct               r               k
         1         2     1        0.150639   157689.415894
         1        32     1        0.108877   319001.423975
         1        33     1        0.108877   319001.423975
         1        34     1        0.108877   319001.423975
         2         3     1        0.150639   157689.415894
         2         4     1        0.152372   128580.801318
         2        57     1        0.102542   384882.237500
         3        35     1        0.108877   319001.423975
         3        36     1        0.108877   319001.423975
         3        37     1        0.108877   319001.423975
         4         5     1        0.152797   188524.109229
         4        38     1        0.109100   310834.273340
         4        39     1        0.109100   310834.273340
         5         6     1        0.153187   184539.451904
         5        40     1        0.109397   302107.017285
         5        41     1        0.109397   302107.017285
         6         7     1        0.144517   173348.618140
         6        42     1        0.109222   304653.577832
         6        43     1        0.109222   304653.577832
         7         8     1        0.136713   211719.759351
         8         9     1        0.122025   622706.681250
         8        10     1        0.137219   279949.795410
        10        11     1        0.141077   249691.180957
        10        44     1        0.101213   417959.612549
        11        12     1        0.140491   285735.074316
        11        31     1        0.140355   286278.784912
        12        13     1        0.139575   319302.123438
        12        45     1        0.108360   325733.261377
        13        14     1        0.139731   309251.330078
        13        46     1        0.108631   319171.526660
        14        15     1        0.140096   293679.566895
        14        47     1        0.108630   318364.273096
        15        16     1        0.151531   196142.365234
        15        31     1        0.139731   303486.353174
        16        17     1        0.147619   169966.738745
        16        48     1        0.109007   307589.298389
        16        49     1        0.109007   307589.298389
        17        18     1        0.134329   260852.455518
        17        22     1        0.140843   163226.039966
        18        19     1        0.131545   385067.994434
        19        20     1        0.143863   226840.422266
        19        24     1        0.148219   210558.740210
        20        21     1        0.135943   427987.294824
        20        50     1        0.108511   322270.505957
        21        22     1        0.145315   222731.909961
        21        51     1        0.108453   327898.374121
        22        23     1        0.123473   582908.322070
        24        25     1        0.140571   286984.196484
        24        30     1        0.140571   286984.196484
        25        26     1        0.139539   324359.237207
        25        52     1        0.108499   321952.798779
        26        27     1        0.139219   306800.303857
        26        53     1        0.108491   324826.923828
        27        28     1        0.135527   291307.424805
        27        29     1        0.139219   306800.303857
        29        30     1        0.139539   324359.237207
        29        54     1        0.108491   324826.923828
        30        55     1        0.108499   321952.798779
        31        56     1        0.108461   322671.668408

[ angles ]
;       ai        aj        ak funct           theta             cth
         1         2         3     1      111.394310      625.820447
         1         2         4     1      112.365372      606.966016
         1         2        57     1      107.184303      508.970231
         2         1        32     1      108.809097      544.411845
         2         1        33     1      108.809097      544.411845
         2         1        34     1      108.809097      544.411845
         2         3        35     1      108.809097      544.411845
         2         3        36     1      108.809097      544.411845
         2         3        37     1      108.809097      544.411845
         2         4         5     1      113.539574      676.249087
         2         4        38     1      106.038918      550.003195
         2         4        39     1      106.038918      550.003195
         3         2         4     1      112.365372      606.965952
         3         2        57     1      107.184303      508.970231
         4         2        57     1      106.311440      504.900669
         4         5         6     1      112.250443      601.144002
         4         5        40     1      109.923523      510.902465
         4         5        41     1      109.923523      510.902465
         5         4        38     1      111.192673      487.697947
         5         4        39     1      111.192673      487.697947
         5         6         7     1      109.040062      604.654205
         5         6        42     1      111.216347      470.998273
         5         6        43     1      111.216347      470.998273
         6         5        40     1      109.133217      493.984226
         6         5        41     1      109.133217      493.984226
         6         7         8     1      115.015343      602.288511
         7         6        42     1      107.994408      475.508191
         7         6        43     1      107.994408      475.508191
         7         8         9     1      124.563400      554.456164
         7         8        10     1      108.401062      533.919987
         8        10        11     1      128.478668      433.305085
         8        10        44     1      115.148010      498.912313
         9         8        10     1      127.121445      485.229498
        10        11        12     1      120.391090      602.044887
        10        11        31     1      119.737938      527.653787
        11        10        44     1      116.791542      436.596914
        11        12        13     1      119.465866      741.806614
        11        12        45     1      119.901962      450.433495
        11        31        15     1      120.550766      722.695279
        11        31        56     1      119.534073      433.123835
        12        11        31     1      119.522232      570.935900
        12        13        14     1      120.857605      697.544419
        12        13        46     1      119.193039      429.474838
        13        12        45     1      120.597885      402.264920
        13        14        15     1      119.728500      688.604515
        13        14        47     1      120.401230      427.768608
        14        13        46     1      119.915955      431.285100
        14        15        16     1      120.323288      507.628288
        14        15        31     1      119.764236      708.973871
        15        14        47     1      119.852127      389.013778
        15        16        17     1      112.023117      483.801974
        15        16        48     1      110.938492      460.951113
        15        16        49     1      110.938492      460.951113
        15        31        56     1      119.672874      376.808285
        16        15        31     1      119.897995      456.590811
        16        17        18     1      115.056007      530.634255
        16        17        22     1      118.386864      581.827413
        17        16        48     1      106.562515      548.029559
        17        16        49     1      106.562515      548.029559
        17        18        19     1      118.996239      473.092476
        17        22        21     1      113.384048      841.521301
        17        22        23     1      120.897690      657.687567
        18        17        22     1      126.285873      626.788622
        18        19        20     1      120.771255      615.136231
        18        19        24     1      116.777405      475.810039
        19        20        21     1      119.858383      758.765425
        19        20        50     1      119.725113      413.878974
        19        24        25     1      120.698898      518.915148
        19        24        30     1      120.698898      518.915148
        20        19        24     1      122.093895      556.089518
        20        21        22     1      120.825829      851.397586
        20        21        51     1      122.663757      418.560373
        21        20        50     1      120.435448      423.448112
        21        22        23     1      125.412392      492.999259
        22        21        51     1      116.227783      462.415251
        24        25        26     1      121.061935      681.774871
        24        25        52     1      119.652267      419.558746
        24        30        29     1      121.061935      681.774871
        24        30        55     1      119.652283      419.558746
        25        24        30     1      118.627319      590.905089
        25        26        27     1      118.505417      699.753443
        25        26        53     1      121.679153      426.365854
        26        25        52     1      119.309555      419.026585
        26        27        28     1      118.911842      581.302178
        26        27        29     1      122.178696      558.602689
        27        26        53     1      119.838074      447.128322
        27        29        30     1      118.505417      699.753379
        27        29        54     1      119.838074      447.128322
        28        27        29     1      118.911842      581.302178
        29        30        55     1      119.309555      419.026521
        30        29        54     1      121.679153      426.365886
        32         1        33     1      110.238785      348.438791
        32         1        34     1      110.238785      348.438791
        33         1        34     1      110.238785      348.438791
        35         3        36     1      110.238785      348.438791
        35         3        37     1      110.238785      348.438791
        36         3        37     1      110.238785      348.438759
        38         4        39     1      108.299850      351.852464
        40         5        41     1      107.040207      360.466929
        42         6        43     1      108.772598      342.488836
        48        16        49     1      109.370117      342.663190

[ dihedrals ] ; propers for gromacs 4.5 or higher, use funct 9
;       ai        aj        ak        al funct           phase               k        pn
         1         2         3        35     9        0.000000       -0.011821         1
         1         2         3        35     9      180.000000        0.039633         2
         1         2         3        35     9        0.000000        0.666285         3
         1         2         3        35     9      180.000000       -0.003680         4
         1         2         3        36     9        0.000000       -0.011821         1
         1         2         3        36     9      180.000000        0.039633         2
         1         2         3        36     9        0.000000        0.666285         3
         1         2         3        36     9      180.000000       -0.003680         4
         1         2         3        37     9        0.000000       -0.011821         1
         1         2         3        37     9      180.000000        0.039633         2
         1         2         3        37     9        0.000000        0.666285         3
         1         2         3        37     9      180.000000       -0.003680         4
         1         2         4         5     9        0.000000        0.640091         1
         1         2         4         5     9      180.000000        0.270069         2
         1         2         4         5     9        0.000000        0.758159         3
         1         2         4         5     9      180.000000        0.029002         4
         1         2         4        38     9        0.000000       -0.187388         1
         1         2         4        38     9      180.000000       -0.000305         2
         1         2         4        38     9        0.000000        0.759096         3
         1         2         4        38     9      180.000000        0.005895         4
         1         2         4        39     9        0.000000       -0.187388         1
         1         2         4        39     9      180.000000       -0.000305         2
         1         2         4        39     9        0.000000        0.759096         3
         1         2         4        39     9      180.000000        0.005895         4
         2         4         5         6     9        0.000000        1.080033         1
         2         4         5         6     9      180.000000       -1.102802         2
         2         4         5         6     9        0.000000        0.516348         3
         2         4         5         6     9      180.000000       -0.067850         4
         2         4         5        40     9        0.000000       -0.324653         1
         2         4         5        40     9      180.000000       -0.011247         2
         2         4         5        40     9        0.000000        0.551100         3
         2         4         5        40     9      180.000000        0.042547         4
         2         4         5        41     9        0.000000       -0.324653         1
         2         4         5        41     9      180.000000       -0.011247         2
         2         4         5        41     9        0.000000        0.551100         3
         2         4         5        41     9      180.000000        0.042547         4
         3         2         1        32     9        0.000000       -0.011821         1
         3         2         1        32     9      180.000000        0.039633         2
         3         2         1        32     9        0.000000        0.666285         3
         3         2         1        32     9      180.000000       -0.003680         4
         3         2         1        33     9        0.000000       -0.011821         1
         3         2         1        33     9      180.000000        0.039633         2
         3         2         1        33     9        0.000000        0.666285         3
         3         2         1        33     9      180.000000       -0.003680         4
         3         2         1        34     9        0.000000       -0.011821         1
         3         2         1        34     9      180.000000        0.039633         2
         3         2         1        34     9        0.000000        0.666285         3
         3         2         1        34     9      180.000000       -0.003680         4
         3         2         4         5     9        0.000000        0.640091         1
         3         2         4         5     9      180.000000        0.270069         2
         3         2         4         5     9        0.000000        0.758159         3
         3         2         4         5     9      180.000000        0.029002         4
         3         2         4        38     9        0.000000       -0.187388         1
         3         2         4        38     9      180.000000       -0.000305         2
         3         2         4        38     9        0.000000        0.759096         3
         3         2         4        38     9      180.000000        0.005895         4
         3         2         4        39     9        0.000000       -0.187388         1
         3         2         4        39     9      180.000000       -0.000305         2
         3         2         4        39     9        0.000000        0.759096         3
         3         2         4        39     9      180.000000        0.005895         4
         4         2         1        32     9        0.000000       -0.036828         1
         4         2         1        32     9      180.000000        0.035500         2
         4         2         1        32     9        0.000000        0.584971         3
         4         2         1        32     9      180.000000       -0.013696         4
         4         2         1        33     9        0.000000       -0.036828         1
         4         2         1        33     9      180.000000        0.035500         2
         4         2         1        33     9        0.000000        0.584971         3
         4         2         1        33     9      180.000000       -0.013696         4
         4         2         1        34     9        0.000000       -0.036828         1
         4         2         1        34     9      180.000000        0.035500         2
         4         2         1        34     9        0.000000        0.584971         3
         4         2         1        34     9      180.000000       -0.013696         4
         4         2         3        35     9        0.000000       -0.036828         1
         4         2         3        35     9      180.000000        0.035500         2
         4         2         3        35     9        0.000000        0.584971         3
         4         2         3        35     9      180.000000       -0.013696         4
         4         2         3        36     9        0.000000       -0.036828         1
         4         2         3        36     9      180.000000        0.035500         2
         4         2         3        36     9        0.000000        0.584971         3
         4         2         3        36     9      180.000000       -0.013696         4
         4         2         3        37     9        0.000000       -0.036828         1
         4         2         3        37     9      180.000000        0.035500         2
         4         2         3        37     9        0.000000        0.584971         3
         4         2         3        37     9      180.000000       -0.013696         4
         4         5         6         7     9        0.000000        1.641338         1
         4         5         6         7     9      180.000000       -0.588194         2
         4         5         6         7     9        0.000000        0.489299         3
         4         5         6         7     9      180.000000        0.097607         4
         4         5         6        42     9        0.000000       -0.304302         1
         4         5         6        42     9      180.000000        0.059588         2
         4         5         6        42     9        0.000000        0.577079         3
         4         5         6        42     9      180.000000        0.021007         4
         4         5         6        43     9        0.000000       -0.304302         1
         4         5         6        43     9      180.000000        0.059588         2
         4         5         6        43     9        0.000000        0.577079         3
         4         5         6        43     9      180.000000        0.021007         4
         5         4         2        57     9        0.000000       -0.967645         1
         5         4         2        57     9      180.000000       -0.038125         2
         5         4         2        57     9        0.000000        0.519895         3
         5         4         2        57     9      180.000000       -0.009519         4
         5         6         7         8     9        0.000000       -3.329377         1
         5         6         7         8     9      180.000000        0.137151         2
         5         6         7         8     9        0.000000        0.036920         3
         5         6         7         8     9      180.000000       -0.013151         4
         6         5         4        38     9        0.000000       -0.050396         1
         6         5         4        38     9      180.000000        0.050852         2
         6         5         4        38     9        0.000000        0.655061         3
         6         5         4        38     9      180.000000        0.033989         4
         6         5         4        39     9        0.000000       -0.050396         1
         6         5         4        39     9      180.000000        0.050852         2
         6         5         4        39     9        0.000000        0.655061         3
         6         5         4        39     9      180.000000        0.033989         4
         6         7         8         9     9        0.000000        1.624481         1
         6         7         8         9     9      180.000000        7.174192         2
         6         7         8         9     9        0.000000        0.026687         3
         6         7         8         9     9      180.000000       -0.102093         4
         6         7         8        10     9        0.000000       -1.550984         1
         6         7         8        10     9      180.000000        9.532063         2
         6         7         8        10     9        0.000000       -0.509622         3
         6         7         8        10     9      180.000000       -0.102859         4
         7         6         5        40     9        0.000000        0.147246         1
         7         6         5        40     9      180.000000        0.068988         2
         7         6         5        40     9        0.000000        0.486876         3
         7         6         5        40     9      180.000000        0.080889         4
         7         6         5        41     9        0.000000        0.147246         1
         7         6         5        41     9      180.000000        0.068988         2
         7         6         5        41     9        0.000000        0.486876         3
         7         6         5        41     9      180.000000        0.080889         4
         7         8        10        11     9        0.000000        0.239641         1
         7         8        10        11     9      180.000000        7.307005         2
         7         8        10        11     9        0.000000        0.218299         3
         7         8        10        11     9      180.000000       -0.527219         4
         7         8        10        44     9        0.000000        2.829778         1
         7         8        10        44     9      180.000000        8.912843         2
         7         8        10        44     9        0.000000       -0.203733         3
         7         8        10        44     9      180.000000        0.484480         4
         8         7         6        42     9        0.000000        0.697270         1
         8         7         6        42     9      180.000000        0.125456         2
         8         7         6        42     9        0.000000       -0.222316         3
         8         7         6        42     9      180.000000        0.095493         4
         8         7         6        43     9        0.000000        0.697270         1
         8         7         6        43     9      180.000000        0.125456         2
         8         7         6        43     9        0.000000       -0.222316         3
         8         7         6        43     9      180.000000        0.095493         4
         8        10        11        12     9        0.000000        0.121998         1
         8        10        11        12     9      180.000000        2.230719         2
         8        10        11        12     9        0.000000        0.007789         3
         8        10        11        12     9      180.000000        0.203127         4
         8        10        11        31     9        0.000000       -0.154446         1
         8        10        11        31     9      180.000000        2.284065         2
         8        10        11        31     9        0.000000       -0.007512         3
         8        10        11        31     9      180.000000        0.235270         4
         9         8        10        11     9        0.000000       -0.965030         1
         9         8        10        11     9      180.000000        7.253227         2
         9         8        10        11     9        0.000000       -0.183611         3
         9         8        10        11     9      180.000000       -0.799286         4
         9         8        10        44     9        0.000000       -0.330792         1
         9         8        10        44     9      180.000000        8.763458         2
         9         8        10        44     9        0.000000       -0.190722         3
         9         8        10        44     9      180.000000        0.321419         4
        10        11        12        13     9        0.000000        0.378666         1
        10        11        12        13     9      180.000000       17.180126         2
        10        11        12        13     9        0.000000        0.140305         3
        10        11        12        13     9      180.000000       -0.277352         4
        10        11        12        45     9        0.000000       -0.141439         1
        10        11        12        45     9      180.000000       13.710210         2
        10        11        12        45     9        0.000000       -0.198857         3
        10        11        12        45     9      180.000000        0.219108         4
        10        11        31        15     9        0.000000        0.338134         1
        10        11        31        15     9      180.000000       16.840760         2
        10        11        31        15     9        0.000000        0.112920         3
        10        11        31        15     9      180.000000       -0.353465         4
        10        11        31        56     9        0.000000       -0.135280         1
        10        11        31        56     9      180.000000       13.880462         2
        10        11        31        56     9        0.000000       -0.211342         3
        10        11        31        56     9      180.000000        0.213457         4
        11        12        13        14     9        0.000000       -0.025390         1
        11        12        13        14     9      180.000000       18.822545         2
        11        12        13        14     9        0.000000       -1.703958         3
        11        12        13        14     9      180.000000       -0.535316         4
        11        12        13        46     9        0.000000        0.067299         1
        11        12        13        46     9      180.000000       14.957107         2
        11        12        13        46     9        0.000000       -0.539988         3
        11        12        13        46     9      180.000000       -0.044223         4
        11        31        15        14     9        0.000000       -0.036723         1
        11        31        15        14     9      180.000000       18.416346         2
        11        31        15        14     9        0.000000       -1.490328         3
        11        31        15        14     9      180.000000       -0.455017         4
        11        31        15        16     9        0.000000        0.070659         1
        11        31        15        16     9      180.000000       15.716561         2
        11        31        15        16     9        0.000000       -0.270236         3
        11        31        15        16     9      180.000000       -0.316105         4
        12        11        10        44     9        0.000000        0.086473         1
        12        11        10        44     9      180.000000        3.027550         2
        12        11        10        44     9        0.000000        0.124891         3
        12        11        10        44     9      180.000000        0.152287         4
        12        11        31        15     9        0.000000        0.065693         1
        12        11        31        15     9      180.000000       15.576780         2
        12        11        31        15     9        0.000000       -0.898087         3
        12        11        31        15     9      180.000000       -0.165385         4
        12        11        31        56     9        0.000000        0.290892         1
        12        11        31        56     9      180.000000       12.706523         2
        12        11        31        56     9        0.000000       -0.427875         3
        12        11        31        56     9      180.000000        0.096478         4
        12        13        14        15     9        0.000000        0.151668         1
        12        13        14        15     9      180.000000       18.079224         2
        12        13        14        15     9        0.000000       -1.376472         3
        12        13        14        15     9      180.000000       -0.432841         4
        12        13        14        47     9        0.000000        0.243982         1
        12        13        14        47     9      180.000000       14.181026         2
        12        13        14        47     9        0.000000       -0.723026         3
        12        13        14        47     9      180.000000        0.086763         4
        13        12        11        31     9        0.000000        0.062350         1
        13        12        11        31     9      180.000000       16.418491         2
        13        12        11        31     9        0.000000       -0.912932         3
        13        12        11        31     9      180.000000       -0.148838         4
        13        14        15        16     9        0.000000        0.069777         1
        13        14        15        16     9      180.000000       15.936979         2
        13        14        15        16     9        0.000000       -0.376195         3
        13        14        15        16     9      180.000000       -0.263388         4
        13        14        15        31     9        0.000000       -0.094665         1
        13        14        15        31     9      180.000000       18.779954         2
        13        14        15        31     9        0.000000       -1.294816         3
        13        14        15        31     9      180.000000       -0.461005         4
        14        13        12        45     9        0.000000        0.032159         1
        14        13        12        45     9      180.000000       14.868730         2
        14        13        12        45     9        0.000000       -0.647140         3
        14        13        12        45     9      180.000000        0.129673         4
        14        15        16        17     9        0.000000        0.128582         1
        14        15        16        17     9      180.000000        0.319489         2
        14        15        16        17     9        0.000000        0.081427         3
        14        15        16        17     9      180.000000        0.036435         4
        14        15        16        48     9        0.000000       -0.036886         1
        14        15        16        48     9      180.000000       -0.039265         2
        14        15        16        48     9        0.000000       -0.015137         3
        14        15        16        48     9      180.000000        0.013817         4
        14        15        16        49     9        0.000000       -0.036886         1
        14        15        16        49     9      180.000000       -0.039265         2
        14        15        16        49     9        0.000000       -0.015137         3
        14        15        16        49     9      180.000000        0.013817         4
        14        15        31        56     9        0.000000       -0.118922         1
        14        15        31        56     9      180.000000       14.515208         2
        14        15        31        56     9        0.000000       -0.591368         3
        14        15        31        56     9      180.000000        0.050299         4
        15        14        13        46     9        0.000000        0.099063         1
        15        14        13        46     9      180.000000       14.544110         2
        15        14        13        46     9        0.000000       -0.666533         3
        15        14        13        46     9      180.000000        0.082491         4
        15        16        17        18     9        0.000000       -2.273917         1
        15        16        17        18     9      180.000000       -0.763368         2
        15        16        17        18     9        0.000000        0.236154         3
        15        16        17        18     9      180.000000       -0.048073         4
        15        16        17        22     9        0.000000       -0.315152         1
        15        16        17        22     9      180.000000       -1.899920         2
        15        16        17        22     9        0.000000        0.531794         3
        15        16        17        22     9      180.000000       -0.262816         4
        16        15        14        47     9        0.000000       -0.070524         1
        16        15        14        47     9      180.000000       12.958783         2
        16        15        14        47     9        0.000000       -0.468655         3
        16        15        14        47     9      180.000000        0.126129         4
        16        15        31        56     9        0.000000       -0.233019         1
        16        15        31        56     9      180.000000       13.139679         2
        16        15        31        56     9        0.000000       -0.569465         3
        16        15        31        56     9      180.000000        0.090550         4
        16        17        18        19     9        0.000000        2.184493         1
        16        17        18        19     9      180.000000       14.112729         2
        16        17        18        19     9        0.000000        0.851233         3
        16        17        18        19     9      180.000000       -0.485374         4
        16        17        22        21     9        0.000000        0.744818         1
        16        17        22        21     9      180.000000        9.254883         2
        16        17        22        21     9        0.000000        0.505207         3
        16        17        22        21     9      180.000000       -0.194692         4
        16        17        22        23     9        0.000000       -0.191359         1
        16        17        22        23     9      180.000000       10.139810         2
        16        17        22        23     9        0.000000       -1.043406         3
        16        17        22        23     9      180.000000        0.091597         4
        17        16        15        31     9        0.000000       -0.180935         1
        17        16        15        31     9      180.000000        0.462648         2
        17        16        15        31     9        0.000000        0.039518         3
        17        16        15        31     9      180.000000        0.023771         4
        17        18        19        20     9        0.000000       -0.098977         1
        17        18        19        20     9      180.000000       35.793658         2
        17        18        19        20     9        0.000000       -0.561251         3
        17        18        19        20     9      180.000000       -1.077796         4
        17        18        19        24     9        0.000000       -0.057903         1
        17        18        19        24     9      180.000000       34.862420         2
        17        18        19        24     9        0.000000        1.996236         3
        17        18        19        24     9      180.000000       -1.657714         4
        17        22        21        20     9        0.000000        1.364779         1
        17        22        21        20     9      180.000000        2.014246         2
        17        22        21        20     9        0.000000        0.435102         3
        17        22        21        20     9      180.000000        0.007037         4
        17        22        21        51     9        0.000000        0.158353         1
        17        22        21        51     9      180.000000        4.595400         2
        17        22        21        51     9        0.000000       -0.019784         3
        17        22        21        51     9      180.000000        0.196144         4
        18        17        16        48     9        0.000000        0.295604         1
        18        17        16        48     9      180.000000        0.076290         2
        18        17        16        48     9        0.000000        0.014238         3
        18        17        16        48     9      180.000000        0.085131         4
        18        17        16        49     9        0.000000        0.295604         1
        18        17        16        49     9      180.000000        0.076290         2
        18        17        16        49     9        0.000000        0.014238         3
        18        17        16        49     9      180.000000        0.085131         4
        18        17        22        21     9        0.000000        1.359758         1
        18        17        22        21     9      180.000000        2.455735         2
        18        17        22        21     9        0.000000        0.532356         3
        18        17        22        21     9      180.000000        0.115454         4
        18        17        22        23     9        0.000000       -0.191705         1
        18        17        22        23     9      180.000000        9.009476         2
        18        17        22        23     9        0.000000       -0.415666         3
        18        17        22        23     9      180.000000       -0.488867         4
        18        19        20        21     9        0.000000       -0.187342         1
        18        19        20        21     9      180.000000       11.879088         2
        18        19        20        21     9        0.000000       -0.481463         3
        18        19        20        21     9      180.000000       -0.424798         4
        18        19        20        50     9        0.000000       -0.014167         1
        18        19        20        50     9      180.000000        9.095650         2
        18        19        20        50     9        0.000000       -0.285627         3
        18        19        20        50     9      180.000000       -0.082295         4
        18        19        24        25     9        0.000000        0.082500         1
        18        19        24        25     9      180.000000        3.866215         2
        18        19        24        25     9        0.000000        0.133461         3
        18        19        24        25     9      180.000000       -0.024580         4
        18        19        24        30     9        0.000000        0.082500         1
        18        19        24        30     9      180.000000        3.866215         2
        18        19        24        30     9        0.000000        0.133461         3
        18        19        24        30     9      180.000000       -0.024580         4
        19        18        17        22     9        0.000000        2.126532         1
        19        18        17        22     9      180.000000        8.299762         2
        19        18        17        22     9        0.000000        0.371125         3
        19        18        17        22     9      180.000000       -0.009812         4
        19        20        21        22     9        0.000000       -0.090613         1
        19        20        21        22     9      180.000000       21.064544         2
        19        20        21        22     9        0.000000       -0.964965         3
        19        20        21        22     9      180.000000       -0.644861         4
        19        20        21        51     9        0.000000       -0.067763         1
        19        20        21        51     9      180.000000       17.213943         2
        19        20        21        51     9        0.000000       -0.352279         3
        19        20        21        51     9      180.000000       -0.052132         4
        19        24        25        26     9        0.000000        0.121688         1
        19        24        25        26     9      180.000000       15.580420         2
        19        24        25        26     9        0.000000       -0.248780         3
        19        24        25        26     9      180.000000       -0.192497         4
        19        24        25        52     9        0.000000       -0.127734         1
        19        24        25        52     9      180.000000       12.250793         2
        19        24        25        52     9        0.000000       -0.328689         3
        19        24        25        52     9      180.000000        0.194054         4
        19        24        30        29     9        0.000000        0.121688         1
        19        24        30        29     9      180.000000       15.580420         2
        19        24        30        29     9        0.000000       -0.248780         3
        19        24        30        29     9      180.000000       -0.192498         4
        19        24        30        55     9        0.000000       -0.127733         1
        19        24        30        55     9      180.000000       12.250795         2
        19        24        30        55     9        0.000000       -0.328688         3
        19        24        30        55     9      180.000000        0.194054         4
        20        19        24        25     9        0.000000       -0.035535         1
        20        19        24        25     9      180.000000        4.017052         2
        20        19        24        25     9        0.000000        0.137450         3
        20        19        24        25     9      180.000000       -0.118582         4
        20        19        24        30     9        0.000000       -0.035534         1
        20        19        24        30     9      180.000000        4.017052         2
        20        19        24        30     9        0.000000        0.137451         3
        20        19        24        30     9      180.000000       -0.118582         4
        20        21        22        23     9        0.000000        0.373567         1
        20        21        22        23     9      180.000000        6.488703         2
        20        21        22        23     9        0.000000        0.040900         3
        20        21        22        23     9      180.000000       -0.219160         4
        21        20        19        24     9        0.000000        0.070828         1
        21        20        19        24     9      180.000000       12.803646         2
        21        20        19        24     9        0.000000       -0.183837         3
        21        20        19        24     9      180.000000       -0.476685         4
        22        17        16        48     9        0.000000       -0.051329         1
        22        17        16        48     9      180.000000        0.142959         2
        22        17        16        48     9        0.000000        0.143771         3
        22        17        16        48     9      180.000000        0.113206         4
        22        17        16        49     9        0.000000       -0.051329         1
        22        17        16        49     9      180.000000        0.142959         2
        22        17        16        49     9        0.000000        0.143771         3
        22        17        16        49     9      180.000000        0.113206         4
        22        21        20        50     9        0.000000        0.380985         1
        22        21        20        50     9      180.000000       17.184468         2
        22        21        20        50     9        0.000000       -0.152610         3
        22        21        20        50     9      180.000000       -0.094194         4
        23        22        21        51     9        0.000000       -1.098767         1
        23        22        21        51     9      180.000000        8.614287         2
        23        22        21        51     9        0.000000       -0.424066         3
        23        22        21        51     9      180.000000       -0.304321         4
        24        19        20        50     9        0.000000        0.035804         1
        24        19        20        50     9      180.000000       11.649248         2
        24        19        20        50     9        0.000000       -0.337313         3
        24        19        20        50     9      180.000000        0.074059         4
        24        25        26        27     9        0.000000       -0.132173         1
        24        25        26        27     9      180.000000       19.534241         2
        24        25        26        27     9        0.000000       -1.600675         3
        24        25        26        27     9      180.000000       -0.437538         4
        24        25        26        53     9        0.000000       -0.017331         1
        24        25        26        53     9      180.000000       14.678041         2
        24        25        26        53     9        0.000000       -0.545711         3
        24        25        26        53     9      180.000000        0.091858         4
        24        30        29        27     9        0.000000       -0.132172         1
        24        30        29        27     9      180.000000       19.534245         2
        24        30        29        27     9        0.000000       -1.600675         3
        24        30        29        27     9      180.000000       -0.437538         4
        24        30        29        54     9        0.000000       -0.017330         1
        24        30        29        54     9      180.000000       14.678041         2
        24        30        29        54     9        0.000000       -0.545711         3
        24        30        29        54     9      180.000000        0.091858         4
        25        24        30        29     9        0.000000       -0.156200         1
        25        24        30        29     9      180.000000       18.243811         2
        25        24        30        29     9        0.000000       -1.464374         3
        25        24        30        29     9      180.000000       -0.344323         4
        25        24        30        55     9        0.000000       -0.107058         1
        25        24        30        55     9      180.000000       13.825259         2
        25        24        30        55     9        0.000000       -0.666349         3
        25        24        30        55     9      180.000000        0.112482         4
        25        26        27        28     9        0.000000        0.598924         1
        25        26        27        28     9      180.000000       22.480994         2
        25        26        27        28     9        0.000000        0.554001         3
        25        26        27        28     9      180.000000       -0.594314         4
        25        26        27        29     9        0.000000       -0.040553         1
        25        26        27        29     9      180.000000       16.831034         2
        25        26        27        29     9        0.000000       -1.087244         3
        25        26        27        29     9      180.000000       -0.292281         4
        26        25        24        30     9        0.000000       -0.156200         1
        26        25        24        30     9      180.000000       18.243811         2
        26        25        24        30     9        0.000000       -1.464374         3
        26        25        24        30     9      180.000000       -0.344323         4
        26        27        29        30     9        0.000000       -0.040553         1
        26        27        29        30     9      180.000000       16.831032         2
        26        27        29        30     9        0.000000       -1.087244         3
        26        27        29        30     9      180.000000       -0.292280         4
        26        27        29        54     9        0.000000        0.120875         1
        26        27        29        54     9      180.000000       12.740693         2
        26        27        29        54     9        0.000000       -0.493004         3
        26        27        29        54     9      180.000000        0.142513         4
        27        26        25        52     9        0.000000        0.157717         1
        27        26        25        52     9      180.000000       15.257018         2
        27        26        25        52     9        0.000000       -0.617614         3
        27        26        25        52     9      180.000000        0.142561         4
        27        29        30        55     9        0.000000        0.157717         1
        27        29        30        55     9      180.000000       15.257015         2
        27        29        30        55     9        0.000000       -0.617613         3
        27        29        30        55     9      180.000000        0.142561         4
        28        27        26        53     9        0.000000        0.255173         1
        28        27        26        53     9      180.000000       15.641232         2
        28        27        26        53     9        0.000000        0.316514         3
        28        27        26        53     9      180.000000        0.163079         4
        28        27        29        30     9        0.000000        0.598925         1
        28        27        29        30     9      180.000000       22.480992         2
        28        27        29        30     9        0.000000        0.554001         3
        28        27        29        30     9      180.000000       -0.594313         4
        28        27        29        54     9        0.000000        0.255173         1
        28        27        29        54     9      180.000000       15.641232         2
        28        27        29        54     9        0.000000        0.316514         3
        28        27        29        54     9      180.000000        0.163079         4
        29        27        26        53     9        0.000000        0.120875         1
        29        27        26        53     9      180.000000       12.740693         2
        29        27        26        53     9        0.000000       -0.493004         3
        29        27        26        53     9      180.000000        0.142513         4
        30        24        25        52     9        0.000000       -0.107059         1
        30        24        25        52     9      180.000000       13.825259         2
        30        24        25        52     9        0.000000       -0.666349         3
        30        24        25        52     9      180.000000        0.112482         4
        31        11        10        44     9        0.000000        0.349025         1
        31        11        10        44     9      180.000000        3.102350         2
        31        11        10        44     9        0.000000        0.125122         3
        31        11        10        44     9      180.000000        0.097724         4
        31        11        12        45     9        0.000000        0.209886         1
        31        11        12        45     9      180.000000       13.059901         2
        31        11        12        45     9        0.000000       -0.423354         3
        31        11        12        45     9      180.000000        0.141881         4
        31        15        14        47     9        0.000000        0.079575         1
        31        15        14        47     9      180.000000       14.389485         2
        31        15        14        47     9        0.000000       -0.562172         3
        31        15        14        47     9      180.000000       -0.030429         4
        31        15        16        48     9        0.000000        0.005351         1
        31        15        16        48     9      180.000000       -0.002592         2
        31        15        16        48     9        0.000000       -0.032576         3
        31        15        16        48     9      180.000000        0.019840         4
        31        15        16        49     9        0.000000        0.005351         1
        31        15        16        49     9      180.000000       -0.002592         2
        31        15        16        49     9        0.000000       -0.032576         3
        31        15        16        49     9      180.000000        0.019840         4
        32         1         2        57     9        0.000000       -0.081762         1
        32         1         2        57     9      180.000000        0.142202         2
        32         1         2        57     9        0.000000        0.518422         3
        32         1         2        57     9      180.000000        0.017616         4
        33         1         2        57     9        0.000000       -0.081762         1
        33         1         2        57     9      180.000000        0.142202         2
        33         1         2        57     9        0.000000        0.518422         3
        33         1         2        57     9      180.000000        0.017616         4
        34         1         2        57     9        0.000000       -0.081762         1
        34         1         2        57     9      180.000000        0.142202         2
        34         1         2        57     9        0.000000        0.518422         3
        34         1         2        57     9      180.000000        0.017616         4
        35         3         2        57     9        0.000000       -0.081762         1
        35         3         2        57     9      180.000000        0.142202         2
        35         3         2        57     9        0.000000        0.518422         3
        35         3         2        57     9      180.000000        0.017616         4
        36         3         2        57     9        0.000000       -0.081762         1
        36         3         2        57     9      180.000000        0.142202         2
        36         3         2        57     9        0.000000        0.518422         3
        36         3         2        57     9      180.000000        0.017616         4
        37         3         2        57     9        0.000000       -0.081762         1
        37         3         2        57     9      180.000000        0.142202         2
        37         3         2        57     9        0.000000        0.518422         3
        37         3         2        57     9      180.000000        0.017616         4
        38         4         2        57     9        0.000000       -0.000707         1
        38         4         2        57     9      180.000000        0.135305         2
        38         4         2        57     9        0.000000        0.560972         3
        38         4         2        57     9      180.000000       -0.055239         4
        38         4         5        40     9        0.000000       -0.070306         1
        38         4         5        40     9      180.000000        0.016022         2
        38         4         5        40     9        0.000000        0.648410         3
        38         4         5        40     9      180.000000       -0.069475         4
        38         4         5        41     9        0.000000       -0.070306         1
        38         4         5        41     9      180.000000        0.016022         2
        38         4         5        41     9        0.000000        0.648410         3
        38         4         5        41     9      180.000000       -0.069475         4
        39         4         2        57     9        0.000000       -0.000707         1
        39         4         2        57     9      180.000000        0.135305         2
        39         4         2        57     9        0.000000        0.560972         3
        39         4         2        57     9      180.000000       -0.055239         4
        39         4         5        40     9        0.000000       -0.070306         1
        39         4         5        40     9      180.000000        0.016022         2
        39         4         5        40     9        0.000000        0.648410         3
        39         4         5        40     9      180.000000       -0.069475         4
        39         4         5        41     9        0.000000       -0.070306         1
        39         4         5        41     9      180.000000        0.016022         2
        39         4         5        41     9        0.000000        0.648410         3
        39         4         5        41     9      180.000000       -0.069475         4
        40         5         6        42     9        0.000000       -0.056970         1
        40         5         6        42     9      180.000000       -0.010338         2
        40         5         6        42     9        0.000000        0.655686         3
        40         5         6        42     9      180.000000       -0.029401         4
        40         5         6        43     9        0.000000       -0.056970         1
        40         5         6        43     9      180.000000       -0.010338         2
        40         5         6        43     9        0.000000        0.655686         3
        40         5         6        43     9      180.000000       -0.029401         4
        41         5         6        42     9        0.000000       -0.056970         1
        41         5         6        42     9      180.000000       -0.010338         2
        41         5         6        42     9        0.000000        0.655686         3
        41         5         6        42     9      180.000000       -0.029401         4
        41         5         6        43     9        0.000000       -0.056970         1
        41         5         6        43     9      180.000000       -0.010338         2
        41         5         6        43     9        0.000000        0.655686         3
        41         5         6        43     9      180.000000       -0.029401         4
        45        12        13        46     9        0.000000       -0.114464         1
        45        12        13        46     9      180.000000       11.958663         2
        45        12        13        46     9        0.000000       -0.636112         3
        45        12        13        46     9      180.000000        0.259580         4
        46        13        14        47     9        0.000000       -0.091782         1
        46        13        14        47     9      180.000000       11.699855         2
        46        13        14        47     9        0.000000       -0.599152         3
        46        13        14        47     9      180.000000        0.243487         4
        50        20        21        51     9        0.000000       -0.176224         1
        50        20        21        51     9      180.000000       14.412884         2
        50        20        21        51     9        0.000000       -0.511875         3
        50        20        21        51     9      180.000000        0.397892         4
        52        25        26        53     9        0.000000       -0.210261         1
        52        25        26        53     9      180.000000       11.991050         2
        52        25        26        53     9        0.000000       -0.821199         3
        52        25        26        53     9      180.000000        0.334515         4
        54        29        30        55     9        0.000000       -0.210260         1
        54        29        30        55     9      180.000000       11.991049         2
        54        29        30        55     9        0.000000       -0.821199         3
        54        29        30        55     9      180.000000        0.334516         4

[ dihedrals ] ; impropers
;       ai        aj        ak        al funct           phase               k        pn
         8         7         9        10     4      180.000000       27.893333         2
         8         9        10         7     4      180.000000       27.893333         2
         8        10         7         9     4      180.000000       27.893333         2
        13        12        14        46     4      180.000000        2.102397         2
        13        14        46        12     4      180.000000        2.102397         2
        13        46        12        14     4      180.000000        2.102397         2
        14        13        15        47     4      180.000000        0.946454         2
        14        15        47        13     4      180.000000        0.946454         2
        14        47        13        15     4      180.000000        0.946454         2
        22        17        21        23     4      180.000000       27.780523         2
        22        21        23        17     4      180.000000       27.780523         2
        22        23        17        21     4      180.000000       27.780523         2
        27        26        28        29     4      180.000000        1.806017         2
        27        28        29        26     4      180.000000        1.806017         2
        27        29        26        28     4      180.000000        1.806017         2
        31        11        15        56     4      180.000000        0.655459         2
        31        15        56        11     4      180.000000        0.655459         2
        31        56        11        15     4      180.000000        0.655459         2

[ pairs ]
;       ai        aj funct
         1         5     1
         1        35     1
         1        36     1
         1        37     1
         1        38     1
         1        39     1
         2         6     1
         2        40     1
         2        41     1
         3         5     1
         3        32     1
         3        33     1
         3        34     1
         3        38     1
         3        39     1
         4         7     1
         4        32     1
         4        33     1
         4        34     1
         4        35     1
         4        36     1
         4        37     1
         4        42     1
         4        43     1
         5         8     1
         5        57     1
         6         9     1
         6        10     1
         6        38     1
         6        39     1
         7        11     1
         7        40     1
         7        41     1
         7        44     1
         8        12     1
         8        31     1
         8        42     1
         8        43     1
         9        11     1
         9        44     1
        10        13     1
        10        15     1
        10        45     1
        10        56     1
        11        14     1
        11        16     1
        11        46     1
        12        15     1
        12        44     1
        12        47     1
        12        56     1
        13        16     1
        13        31     1
        14        17     1
        14        45     1
        14        48     1
        14        49     1
        14        56     1
        15        18     1
        15        22     1
        15        46     1
        16        19     1
        16        21     1
        16        23     1
        16        47     1
        16        56     1
        17        20     1
        17        24     1
        17        31     1
        17        51     1
        18        21     1
        18        23     1
        18        25     1
        18        30     1
        18        48     1
        18        49     1
        18        50     1
        19        22     1
        19        26     1
        19        29     1
        19        51     1
        19        52     1
        19        55     1
        20        23     1
        20        25     1
        20        30     1
        21        24     1
        22        48     1
        22        49     1
        22        50     1
        23        51     1
        24        27     1
        24        50     1
        24        53     1
        24        54     1
        25        28     1
        25        29     1
        25        55     1
        26        30     1
        26        54     1
        27        52     1
        27        55     1
        28        30     1
        28        53     1
        28        54     1
        29        53     1
        30        52     1
        31        44     1
        31        45     1
        31        47     1
        31        48     1
        31        49     1
        32        57     1
        33        57     1
        34        57     1
        35        57     1
        36        57     1
        37        57     1
        38        40     1
        38        41     1
        38        57     1
        39        40     1
        39        41     1
        39        57     1
        40        42     1
        40        43     1
        41        42     1
        41        43     1
        45        46     1
        46        47     1
        50        51     1
        52        53     1
        54        55     1
