; ITP file created by ByteFF-ML, 2026-02-21 07:37:17.042431

[ atomtypes ]
;name           bonded.type        at.num        mass        charge   ptype           sigma         epsilon
 f0bf                                   9      0.0000       0.00000       A     3.03463e-01     3.48447e-01
 c1bf                                   6      0.0000       0.00000       A     3.31521e-01     4.13725e-01
 c2bf                                   6      0.0000       0.00000       A     3.31577e-01     4.12654e-01
 c3bf                                   6      0.0000       0.00000       A     3.31521e-01     4.13725e-01
 f4bf                                   9      0.0000       0.00000       A     3.03463e-01     3.48447e-01
 c5bf                                   6      0.0000       0.00000       A     3.31578e-01     4.12539e-01
 c6bf                                   6      0.0000       0.00000       A     3.31228e-01     4.12705e-01
 c7bf                                   6      0.0000       0.00000       A     3.31578e-01     4.12539e-01
 c8bf                                   6      0.0000       0.00000       A     3.31419e-01     4.13091e-01
 n9bf                                   7      0.0000       0.00000       A     3.38457e-01     3.91292e-01
 n10bf                                  7      0.0000       0.00000       A     3.18016e-01     6.86340e-01
 c11bf                                  6      0.0000       0.00000       A     3.39550e-01     4.50042e-01
 c12bf                                  6      0.0000       0.00000       A     3.31637e-01     4.13953e-01
 c13bf                                  6      0.0000       0.00000       A     3.31477e-01     4.12611e-01
 c14bf                                  6      0.0000       0.00000       A     3.31465e-01     4.13516e-01
 c15bf                                  6      0.0000       0.00000       A     3.31452e-01     4.11845e-01
 c16bf                                  6      0.0000       0.00000       A     3.31385e-01     4.13639e-01
 n17bf                                  7      0.0000       0.00000       A     3.27035e-01     4.89098e-01
 c18bf                                  6      0.0000       0.00000       A     3.31638e-01     4.13082e-01
 o19bf                                  8      0.0000       0.00000       A     3.04631e-01     6.13928e-01
 o20bf                                  8      0.0000       0.00000       A     3.15611e-01     3.00907e-01
 c21bf                                  6      0.0000       0.00000       A     3.39800e-01     4.50476e-01
 c22bf                                  6      0.0000       0.00000       A     3.39661e-01     4.49637e-01
 c23bf                                  6      0.0000       0.00000       A     3.39648e-01     4.53978e-01
 n24bf                                  7      0.0000       0.00000       A     2.58240e-01     1.06544e+01
 c25bf                                  6      0.0000       0.00000       A     3.39637e-01     4.50931e-01
 c26bf                                  6      0.0000       0.00000       A     3.39790e-01     4.51822e-01
 o27bf                                  8      0.0000       0.00000       A     3.15671e-01     3.01188e-01
 c28bf                                  6      0.0000       0.00000       A     3.39790e-01     4.51822e-01
 c29bf                                  6      0.0000       0.00000       A     3.39637e-01     4.50931e-01
 c30bf                                  6      0.0000       0.00000       A     3.31519e-01     4.13894e-01
 c31bf                                  6      0.0000       0.00000       A     3.31738e-01     4.11199e-01
 o32bf                                  8      0.0000       0.00000       A     3.04772e-01     6.11571e-01
 c33bf                                  6      0.0000       0.00000       A     3.31666e-01     4.12836e-01
 c34bf                                  6      0.0000       0.00000       A     3.31509e-01     4.14763e-01
 h35bf                                  1      0.0000       0.00000       A     2.62457e-01     6.72600e-02
 h36bf                                  1      0.0000       0.00000       A     2.62504e-01     6.74483e-02
 h37bf                                  1      0.0000       0.00000       A     2.62504e-01     6.74483e-02
 h38bf                                  1      0.0000       0.00000       A     2.41782e-01     8.82882e-02
 h39bf                                  1      0.0000       0.00000       A     2.41782e-01     8.82882e-02
 h40bf                                  1      0.0000       0.00000       A     2.62513e-01     6.77228e-02
 h41bf                                  1      0.0000       0.00000       A     2.62510e-01     6.73717e-02
 h42bf                                  1      0.0000       0.00000       A     2.62571e-01     6.74818e-02
 h43bf                                  1      0.0000       0.00000       A     1.10599e-01     4.09695e-02
 h44bf                                  1      0.0000       0.00000       A     2.42010e-01     8.67017e-02
 h45bf                                  1      0.0000       0.00000       A     2.42010e-01     8.67017e-02
 h46bf                                  1      0.0000       0.00000       A     2.60150e-01     8.78955e-02
 h47bf                                  1      0.0000       0.00000       A     2.60150e-01     8.78955e-02
 h48bf                                  1      0.0000       0.00000       A     1.87901e-01     8.76226e-02
 h49bf                                  1      0.0000       0.00000       A     1.87901e-01     8.76226e-02
 h50bf                                  1      0.0000       0.00000       A     1.88114e-01     8.72779e-02
 h51bf                                  1      0.0000       0.00000       A     1.88114e-01     8.72779e-02
 h52bf                                  1      0.0000       0.00000       A     2.42076e-01     8.71534e-02
 h53bf                                  1      0.0000       0.00000       A     2.42076e-01     8.71534e-02
 h54bf                                  1      0.0000       0.00000       A     2.42076e-01     8.71534e-02
 h55bf                                  1      0.0000       0.00000       A     2.42076e-01     8.71534e-02
 h56bf                                  1      0.0000       0.00000       A     1.88114e-01     8.72779e-02
 h57bf                                  1      0.0000       0.00000       A     1.88114e-01     8.72779e-02
 h58bf                                  1      0.0000       0.00000       A     2.62635e-01     6.78585e-02
 h59bf                                  1      0.0000       0.00000       A     2.62620e-01     6.80388e-02
 h60bf                                  1      0.0000       0.00000       A     2.62454e-01     6.74499e-02
 h61bf                                  1      0.0000       0.00000       A     1.10817e-01     4.14403e-02

[ moleculetype ]
;name             nrexcl
 CHEMBL3402765_11-charged-pKa-8_1       3

[ atoms ]
;       nr            type      resi   res      atom      cgnr      charge          mass ; qtot
         1            f0bf         1   UNL        f0         1    -0.17136       18.9980 ; qtot   -0.171
         2            c1bf         1   UNL        c1         2     0.18511       12.0110 ; qtot    0.014
         3            c2bf         1   UNL        c2         3    -0.17623       12.0110 ; qtot   -0.162
         4            c3bf         1   UNL        c3         4     0.18511       12.0110 ; qtot    0.023
         5            f4bf         1   UNL        f4         5    -0.17136       18.9980 ; qtot   -0.149
         6            c5bf         1   UNL        c5         6    -0.13315       12.0110 ; qtot   -0.282
         7            c6bf         1   UNL        c6         7    -0.06260       12.0110 ; qtot   -0.344
         8            c7bf         1   UNL        c7         8    -0.13315       12.0110 ; qtot   -0.478
         9            c8bf         1   UNL        c8         9     0.38382       12.0110 ; qtot   -0.094
        10            n9bf         1   UNL        n9        10    -0.41361       14.0070 ; qtot   -0.507
        11           n10bf         1   UNL       n10        11    -0.13312       14.0070 ; qtot   -0.641
        12           c11bf         1   UNL       c11        12     0.15737       12.0110 ; qtot   -0.483
        13           c12bf         1   UNL       c12        13    -0.10594       12.0110 ; qtot   -0.589
        14           c13bf         1   UNL       c13        14    -0.10597       12.0110 ; qtot   -0.695
        15           c14bf         1   UNL       c14        15    -0.08420       12.0110 ; qtot   -0.779
        16           c15bf         1   UNL       c15        16    -0.15372       12.0110 ; qtot   -0.933
        17           c16bf         1   UNL       c16        17    -0.00528       12.0110 ; qtot   -0.938
        18           n17bf         1   UNL       n17        18    -0.14360       14.0070 ; qtot   -1.082
        19           c18bf         1   UNL       c18        19     0.64498       12.0110 ; qtot   -0.437
        20           o19bf         1   UNL       o19        20    -0.51294       15.9990 ; qtot   -0.950
        21           o20bf         1   UNL       o20        21    -0.45333       15.9990 ; qtot   -1.403
        22           c21bf         1   UNL       c21        22     0.17317       12.0110 ; qtot   -1.230
        23           c22bf         1   UNL       c22        23    -0.11108       12.0110 ; qtot   -1.341
        24           c23bf         1   UNL       c23        24     0.11579       12.0110 ; qtot   -1.225
        25           n24bf         1   UNL       n24        25    -0.68621       14.0070 ; qtot   -1.911
        26           c25bf         1   UNL       c25        26     0.07181       12.0110 ; qtot   -1.840
        27           c26bf         1   UNL       c26        27     0.12839       12.0110 ; qtot   -1.711
        28           o27bf         1   UNL       o27        28    -0.42024       15.9990 ; qtot   -2.132
        29           c28bf         1   UNL       c28        29     0.12839       12.0110 ; qtot   -2.003
        30           c29bf         1   UNL       c29        30     0.07181       12.0110 ; qtot   -1.931
        31           c30bf         1   UNL       c30        31    -0.12436       12.0110 ; qtot   -2.056
        32           c31bf         1   UNL       c31        32     0.53165       12.0110 ; qtot   -1.524
        33           o32bf         1   UNL       o32        33    -0.53905       15.9990 ; qtot   -2.063
        34           c33bf         1   UNL       c33        34    -0.27047       12.0110 ; qtot   -2.334
        35           c34bf         1   UNL       c34        35    -0.20483       12.0110 ; qtot   -2.538
        36           h35bf         1   UNL       h35        36     0.15622        1.0080 ; qtot   -2.382
        37           h36bf         1   UNL       h36        37     0.14507        1.0080 ; qtot   -2.237
        38           h37bf         1   UNL       h37        38     0.14507        1.0080 ; qtot   -2.092
        39           h38bf         1   UNL       h38        39     0.08001        1.0080 ; qtot   -2.012
        40           h39bf         1   UNL       h39        40     0.08001        1.0080 ; qtot   -1.932
        41           h40bf         1   UNL       h40        41     0.12305        1.0080 ; qtot   -1.809
        42           h41bf         1   UNL       h41        42     0.11737        1.0080 ; qtot   -1.692
        43           h42bf         1   UNL       h42        43     0.13129        1.0080 ; qtot   -1.560
        44           h43bf         1   UNL       h43        44     0.17023        1.0080 ; qtot   -1.390
        45           h44bf         1   UNL       h44        45     0.07401        1.0080 ; qtot   -1.316
        46           h45bf         1   UNL       h45        46     0.07401        1.0080 ; qtot   -1.242
        47           h46bf         1   UNL       h46        47     0.08675        1.0080 ; qtot   -1.155
        48           h47bf         1   UNL       h47        48     0.08675        1.0080 ; qtot   -1.069
        49           h48bf         1   UNL       h48        49     0.10135        1.0080 ; qtot   -0.967
        50           h49bf         1   UNL       h49        50     0.10135        1.0080 ; qtot   -0.866
        51           h50bf         1   UNL       h50        51     0.10625        1.0080 ; qtot   -0.760
        52           h51bf         1   UNL       h51        52     0.10625        1.0080 ; qtot   -0.653
        53           h52bf         1   UNL       h52        53     0.09547        1.0080 ; qtot   -0.558
        54           h53bf         1   UNL       h53        54     0.09547        1.0080 ; qtot   -0.462
        55           h54bf         1   UNL       h54        55     0.09547        1.0080 ; qtot   -0.367
        56           h55bf         1   UNL       h55        56     0.09547        1.0080 ; qtot   -0.271
        57           h56bf         1   UNL       h56        57     0.10625        1.0080 ; qtot   -0.165
        58           h57bf         1   UNL       h57        58     0.10625        1.0080 ; qtot   -0.059
        59           h58bf         1   UNL       h58        59     0.13527        1.0080 ; qtot    0.076
        60           h59bf         1   UNL       h59        60     0.21660        1.0080 ; qtot    0.293
        61           h60bf         1   UNL       h60        61     0.20036        1.0080 ; qtot    0.493
        62           h61bf         1   UNL       h61        62     0.50675        1.0080 ; qtot    1.000

[ bonds ]
;       ai        aj funct               r               k
         1         2     1        0.135453   293002.271680
         2         3     1        0.139184   305134.084082
         2         8     1        0.138920   313457.777197
         3         4     1        0.139184   305134.084082
         3        36     1        0.108383   329735.309473
         4         5     1        0.135453   293002.271680
         4         6     1        0.138920   313457.777197
         6         7     1        0.140422   291361.537939
         6        37     1        0.108416   325553.071533
         7         8     1        0.140422   291361.537939
         7         9     1        0.148335   209788.579297
         8        38     1        0.108416   325553.071533
         9        10     1        0.131532   385896.852393
         9        35     1        0.143758   228805.707129
        10        11     1        0.134329   260852.429980
        11        12     1        0.147619   169966.738745
        11        32     1        0.140843   163226.052734
        12        13     1        0.151531   196142.339697
        12        39     1        0.109007   307589.298389
        12        40     1        0.109007   307589.298389
        13        14     1        0.140096   293679.566895
        13        31     1        0.139731   303486.327637
        14        15     1        0.139731   309251.330078
        14        41     1        0.108630   318364.273096
        15        16     1        0.139575   319302.123438
        15        42     1        0.108631   319171.526660
        16        17     1        0.140491   285735.048779
        16        43     1        0.108360   325733.261377
        17        18     1        0.141077   249691.180957
        17        31     1        0.140355   286278.810449
        18        19     1        0.137219   279949.769873
        18        44     1        0.101213   417959.612549
        19        20     1        0.122025   622706.681250
        19        21     1        0.136703   212042.561182
        21        22     1        0.144569   172733.952686
        22        23     1        0.153131   185635.440796
        22        45     1        0.109224   304542.900000
        22        46     1        0.109224   304542.900000
        23        24     1        0.152793   189122.239404
        23        47     1        0.109408   301887.704590
        23        48     1        0.109408   301887.730127
        24        25     1        0.151737   133760.914575
        24        49     1        0.109112   309830.384033
        24        50     1        0.109112   309830.384033
        25        26     1        0.151676   135216.938403
        25        30     1        0.151676   135216.938403
        25        62     1        0.102702   379465.765527
        26        27     1        0.153827   174393.328516
        26        51     1        0.109060   312131.609570
        26        52     1        0.109060   312131.609570
        27        28     1        0.142262   207672.306274
        27        53     1        0.109422   300750.383887
        27        54     1        0.109422   300750.383887
        28        29     1        0.142262   207672.306274
        29        30     1        0.153827   174393.328516
        29        55     1        0.109422   300750.383887
        29        56     1        0.109422   300750.383887
        30        57     1        0.109060   312131.609570
        30        58     1        0.109060   312131.609570
        31        59     1        0.108461   322671.693945
        32        33     1        0.123473   582908.424219
        32        34     1        0.145315   222731.909961
        34        35     1        0.135943   427987.243750
        34        60     1        0.108453   327898.348584
        35        61     1        0.108511   322270.505957

[ angles ]
;       ai        aj        ak funct           theta             cth
         1         2         3     1      118.254990      546.814695
         1         2         8     1      118.631714      539.458986
         2         3         4     1      116.444824      693.663161
         2         3        36     1      121.754555      420.766843
         2         8         7     1      118.851624      676.766086
         2         8        38     1      119.635216      433.104587
         3         2         8     1      123.013466      615.042573
         3         4         5     1      118.254990      546.814695
         3         4         6     1      123.013466      615.042573
         4         3        36     1      121.754555      420.766843
         4         6         7     1      118.851624      676.766086
         4         6        37     1      119.635216      433.104587
         5         4         6     1      118.631714      539.458922
         6         7         8     1      119.538841      609.508873
         6         7         9     1      120.173340      502.618769
         7         6        37     1      121.437241      415.867070
         7         8        38     1      121.437241      415.867070
         7         9        10     1      116.403854      474.728383
         7         9        35     1      122.132950      560.325422
         8         7         9     1      120.173340      502.618769
         9        10        11     1      118.961220      469.877609
         9        35        34     1      119.772232      754.938434
         9        35        61     1      119.792664      413.722815
        10         9        35     1      120.957664      605.734297
        10        11        12     1      115.056007      530.634255
        10        11        32     1      126.285873      626.788558
        11        12        13     1      112.023117      483.801910
        11        12        39     1      106.562515      548.029495
        11        12        40     1      106.562515      548.029495
        11        32        33     1      120.897690      657.687503
        11        32        34     1      113.384048      841.521301
        12        11        32     1      118.386864      581.827413
        12        13        14     1      120.323288      507.628352
        12        13        31     1      119.897995      456.590811
        13        12        39     1      110.938492      460.951145
        13        12        40     1      110.938492      460.951145
        13        14        15     1      119.728500      688.604451
        13        14        41     1      119.852127      389.013778
        13        31        17     1      120.550766      722.695279
        13        31        59     1      119.672874      376.808285
        14        13        31     1      119.764221      708.973871
        14        15        16     1      120.857605      697.544355
        14        15        42     1      119.915955      431.285100
        15        14        41     1      120.401230      427.768608
        15        16        17     1      119.465866      741.806614
        15        16        43     1      120.597885      402.264920
        16        15        42     1      119.193039      429.474838
        16        17        18     1      120.391090      602.044887
        16        17        31     1      119.522217      570.935836
        17        16        43     1      119.901962      450.433495
        17        18        19     1      128.478668      433.305085
        17        18        44     1      116.791542      436.596914
        17        31        59     1      119.534073      433.123835
        18        17        31     1      119.737938      527.653787
        18        19        20     1      127.121460      485.229498
        18        19        21     1      108.399551      533.521034
        19        18        44     1      115.148010      498.912313
        19        21        22     1      115.019142      602.403875
        20        19        21     1      124.560867      554.757375
        21        22        23     1      109.148926      605.282929
        21        22        45     1      107.920692      476.263100
        21        22        46     1      107.920692      476.263100
        22        23        24     1      112.108803      599.082582
        22        23        47     1      109.108170      495.465059
        22        23        48     1      109.108170      495.465059
        23        22        45     1      111.237221      470.700160
        23        22        46     1      111.237221      470.700160
        23        24        25     1      113.304726      658.865402
        23        24        49     1      111.085709      484.198916
        23        24        50     1      111.085709      484.198916
        24        23        47     1      109.960007      508.052555
        24        23        48     1      109.959999      508.052555
        24        25        26     1      113.210129      596.500397
        24        25        30     1      113.210129      596.500397
        24        25        62     1      106.848343      510.813947
        25        24        49     1      106.255531      557.966751
        25        24        50     1      106.255531      557.966751
        25        26        27     1      109.069481      735.286351
        25        26        51     1      107.296165      513.685339
        25        26        52     1      107.296165      513.685339
        25        30        29     1      109.069481      735.286351
        25        30        57     1      107.296165      513.685339
        25        30        58     1      107.296165      513.685339
        26        25        30     1      109.959816      600.919467
        26        25        62     1      106.668579      496.188429
        26        27        28     1      110.275894      636.168339
        26        27        53     1      110.183983      463.477403
        26        27        54     1      110.183983      463.477403
        27        26        51     1      111.984764      458.737748
        27        26        52     1      111.984764      458.737748
        27        28        29     1      111.480186      621.353495
        28        27        53     1      108.884323      472.709579
        28        27        54     1      108.884323      472.709579
        28        29        30     1      110.275894      636.168339
        28        29        55     1      108.884323      472.709579
        28        29        56     1      108.884323      472.709579
        29        30        57     1      111.984756      458.737748
        29        30        58     1      111.984756      458.737748
        30        25        62     1      106.668579      496.188429
        30        29        55     1      110.183998      463.477435
        30        29        56     1      110.183998      463.477435
        32        34        35     1      120.825829      851.397650
        32        34        60     1      116.227783      462.415315
        33        32        34     1      125.412392      492.999259
        34        35        61     1      120.435448      423.448080
        35        34        60     1      122.663757      418.560373
        39        12        40     1      109.370117      342.663190
        45        22        46     1      108.756424      342.337369
        47        23        48     1      107.088036      360.308950
        49        24        50     1      108.141098      354.249185
        51        26        52     1      109.167358      342.745292
        53        27        54     1      108.370850      339.031973
        55        29        56     1      108.370850      339.031973
        57        30        58     1      109.167358      342.745292

[ dihedrals ] ; propers for gromacs 4.5 or higher, use funct 9
;       ai        aj        ak        al funct           phase               k        pn
         1         2         3         4     9        0.000000        0.347298         1
         1         2         3         4     9      180.000000       23.388431         2
         1         2         3         4     9        0.000000        0.623001         3
         1         2         3         4     9      180.000000       -0.798053         4
         1         2         3        36     9        0.000000        0.299382         1
         1         2         3        36     9      180.000000       15.175832         2
         1         2         3        36     9        0.000000        0.237321         3
         1         2         3        36     9      180.000000        0.215426         4
         1         2         8         7     9        0.000000        0.430936         1
         1         2         8         7     9      180.000000       23.370774         2
         1         2         8         7     9        0.000000        0.760673         3
         1         2         8         7     9      180.000000       -0.889888         4
         1         2         8        38     9        0.000000        0.333425         1
         1         2         8        38     9      180.000000       16.367777         2
         1         2         8        38     9        0.000000        0.313595         3
         1         2         8        38     9      180.000000        0.089407         4
         2         3         4         5     9        0.000000        0.347298         1
         2         3         4         5     9      180.000000       23.388431         2
         2         3         4         5     9        0.000000        0.623001         3
         2         3         4         5     9      180.000000       -0.798053         4
         2         3         4         6     9        0.000000       -0.143237         1
         2         3         4         6     9      180.000000       17.087454         2
         2         3         4         6     9        0.000000       -1.147459         3
         2         3         4         6     9      180.000000       -0.384532         4
         2         8         7         6     9        0.000000       -0.342302         1
         2         8         7         6     9      180.000000       18.810098         2
         2         8         7         6     9        0.000000       -1.588450         3
         2         8         7         6     9      180.000000       -0.363248         4
         2         8         7         9     9        0.000000        0.230762         1
         2         8         7         9     9      180.000000       16.209562         2
         2         8         7         9     9        0.000000       -0.089589         3
         2         8         7         9     9      180.000000       -0.387374         4
         3         2         8         7     9        0.000000        0.038045         1
         3         2         8         7     9      180.000000       17.837122         2
         3         2         8         7     9        0.000000       -1.166641         3
         3         2         8         7     9      180.000000       -0.381872         4
         3         2         8        38     9        0.000000        0.126936         1
         3         2         8        38     9      180.000000       13.436919         2
         3         2         8        38     9        0.000000       -0.581725         3
         3         2         8        38     9      180.000000        0.110636         4
         3         4         6         7     9        0.000000        0.038045         1
         3         4         6         7     9      180.000000       17.837122         2
         3         4         6         7     9        0.000000       -1.166641         3
         3         4         6         7     9      180.000000       -0.381872         4
         3         4         6        37     9        0.000000        0.126936         1
         3         4         6        37     9      180.000000       13.436919         2
         3         4         6        37     9        0.000000       -0.581725         3
         3         4         6        37     9      180.000000        0.110636         4
         4         3         2         8     9        0.000000       -0.143237         1
         4         3         2         8     9      180.000000       17.087454         2
         4         3         2         8     9        0.000000       -1.147459         3
         4         3         2         8     9      180.000000       -0.384532         4
         4         6         7         8     9        0.000000       -0.342302         1
         4         6         7         8     9      180.000000       18.810098         2
         4         6         7         8     9        0.000000       -1.588450         3
         4         6         7         8     9      180.000000       -0.363248         4
         4         6         7         9     9        0.000000        0.230762         1
         4         6         7         9     9      180.000000       16.209562         2
         4         6         7         9     9        0.000000       -0.089589         3
         4         6         7         9     9      180.000000       -0.387374         4
         5         4         3        36     9        0.000000        0.299382         1
         5         4         3        36     9      180.000000       15.175832         2
         5         4         3        36     9        0.000000        0.237321         3
         5         4         3        36     9      180.000000        0.215426         4
         5         4         6         7     9        0.000000        0.430936         1
         5         4         6         7     9      180.000000       23.370774         2
         5         4         6         7     9        0.000000        0.760673         3
         5         4         6         7     9      180.000000       -0.889888         4
         5         4         6        37     9        0.000000        0.333425         1
         5         4         6        37     9      180.000000       16.367777         2
         5         4         6        37     9        0.000000        0.313595         3
         5         4         6        37     9      180.000000        0.089407         4
         6         4         3        36     9        0.000000        0.098564         1
         6         4         3        36     9      180.000000       12.433917         2
         6         4         3        36     9        0.000000       -0.442854         3
         6         4         3        36     9      180.000000        0.130980         4
         6         7         8        38     9        0.000000       -0.052323         1
         6         7         8        38     9      180.000000       13.948481         2
         6         7         8        38     9        0.000000       -0.577384         3
         6         7         8        38     9      180.000000        0.093952         4
         6         7         9        10     9        0.000000       -0.217068         1
         6         7         9        10     9      180.000000        3.789456         2
         6         7         9        10     9        0.000000        0.058358         3
         6         7         9        10     9      180.000000        0.006680         4
         6         7         9        35     9        0.000000        0.162650         1
         6         7         9        35     9      180.000000        3.891274         2
         6         7         9        35     9        0.000000        0.150493         3
         6         7         9        35     9      180.000000       -0.119047         4
         7         9        10        11     9        0.000000       -0.084948         1
         7         9        10        11     9      180.000000       34.972010         2
         7         9        10        11     9        0.000000        1.945582         3
         7         9        10        11     9      180.000000       -1.589659         4
         7         9        35        34     9        0.000000        0.033406         1
         7         9        35        34     9      180.000000       12.689563         2
         7         9        35        34     9        0.000000       -0.240010         3
         7         9        35        34     9      180.000000       -0.455245         4
         7         9        35        61     9        0.000000        0.013891         1
         7         9        35        61     9      180.000000       11.598305         2
         7         9        35        61     9        0.000000       -0.325133         3
         7         9        35        61     9      180.000000        0.059480         4
         8         2         3        36     9        0.000000        0.098564         1
         8         2         3        36     9      180.000000       12.433917         2
         8         2         3        36     9        0.000000       -0.442854         3
         8         2         3        36     9      180.000000        0.130980         4
         8         7         6        37     9        0.000000       -0.052323         1
         8         7         6        37     9      180.000000       13.948481         2
         8         7         6        37     9        0.000000       -0.577384         3
         8         7         6        37     9      180.000000        0.093952         4
         8         7         9        10     9        0.000000       -0.217068         1
         8         7         9        10     9      180.000000        3.789456         2
         8         7         9        10     9        0.000000        0.058358         3
         8         7         9        10     9      180.000000        0.006680         4
         8         7         9        35     9        0.000000        0.162650         1
         8         7         9        35     9      180.000000        3.891274         2
         8         7         9        35     9        0.000000        0.150493         3
         8         7         9        35     9      180.000000       -0.119047         4
         9         7         6        37     9        0.000000       -0.081644         1
         9         7         6        37     9      180.000000       12.448683         2
         9         7         6        37     9        0.000000       -0.389032         3
         9         7         6        37     9      180.000000        0.225185         4
         9         7         8        38     9        0.000000       -0.081644         1
         9         7         8        38     9      180.000000       12.448683         2
         9         7         8        38     9        0.000000       -0.389032         3
         9         7         8        38     9      180.000000        0.225185         4
         9        10        11        12     9        0.000000        2.124235         1
         9        10        11        12     9      180.000000       14.344750         2
         9        10        11        12     9        0.000000        0.850144         3
         9        10        11        12     9      180.000000       -0.499688         4
         9        10        11        32     9        0.000000        2.064315         1
         9        10        11        32     9      180.000000        8.395513         2
         9        10        11        32     9        0.000000        0.337796         3
         9        10        11        32     9      180.000000       -0.016133         4
         9        35        34        32     9        0.000000       -0.116202         1
         9        35        34        32     9      180.000000       21.080772         2
         9        35        34        32     9        0.000000       -0.986320         3
         9        35        34        32     9      180.000000       -0.634462         4
         9        35        34        60     9        0.000000       -0.069936         1
         9        35        34        60     9      180.000000       17.292470         2
         9        35        34        60     9        0.000000       -0.374657         3
         9        35        34        60     9      180.000000       -0.069789         4
        10         9        35        34     9        0.000000       -0.206459         1
        10         9        35        34     9      180.000000       12.226658         2
        10         9        35        34     9        0.000000       -0.564200         3
        10         9        35        34     9      180.000000       -0.418998         4
        10         9        35        61     9        0.000000        0.005073         1
        10         9        35        61     9      180.000000        9.301370         2
        10         9        35        61     9        0.000000       -0.286035         3
        10         9        35        61     9      180.000000       -0.092564         4
        10        11        12        13     9        0.000000       -2.273915         1
        10        11        12        13     9      180.000000       -0.763367         2
        10        11        12        13     9        0.000000        0.236153         3
        10        11        12        13     9      180.000000       -0.048073         4
        10        11        12        39     9        0.000000        0.295604         1
        10        11        12        39     9      180.000000        0.076290         2
        10        11        12        39     9        0.000000        0.014238         3
        10        11        12        39     9      180.000000        0.085131         4
        10        11        12        40     9        0.000000        0.295604         1
        10        11        12        40     9      180.000000        0.076290         2
        10        11        12        40     9        0.000000        0.014238         3
        10        11        12        40     9      180.000000        0.085131         4
        10        11        32        33     9        0.000000       -0.191705         1
        10        11        32        33     9      180.000000        9.009476         2
        10        11        32        33     9        0.000000       -0.415667         3
        10        11        32        33     9      180.000000       -0.488867         4
        10        11        32        34     9        0.000000        1.359757         1
        10        11        32        34     9      180.000000        2.455736         2
        10        11        32        34     9        0.000000        0.532356         3
        10        11        32        34     9      180.000000        0.115453         4
        11        10         9        35     9        0.000000       -0.095197         1
        11        10         9        35     9      180.000000       35.957180         2
        11        10         9        35     9        0.000000       -0.620290         3
        11        10         9        35     9      180.000000       -1.050183         4
        11        12        13        14     9        0.000000        0.128582         1
        11        12        13        14     9      180.000000        0.319489         2
        11        12        13        14     9        0.000000        0.081428         3
        11        12        13        14     9      180.000000        0.036435         4
        11        12        13        31     9        0.000000       -0.180935         1
        11        12        13        31     9      180.000000        0.462648         2
        11        12        13        31     9        0.000000        0.039518         3
        11        12        13        31     9      180.000000        0.023771         4
        11        32        34        35     9        0.000000        1.364780         1
        11        32        34        35     9      180.000000        2.014245         2
        11        32        34        35     9        0.000000        0.435102         3
        11        32        34        35     9      180.000000        0.007038         4
        11        32        34        60     9        0.000000        0.158351         1
        11        32        34        60     9      180.000000        4.595398         2
        11        32        34        60     9        0.000000       -0.019784         3
        11        32        34        60     9      180.000000        0.196144         4
        12        11        32        33     9        0.000000       -0.191360         1
        12        11        32        33     9      180.000000       10.139811         2
        12        11        32        33     9        0.000000       -1.043406         3
        12        11        32        33     9      180.000000        0.091597         4
        12        11        32        34     9        0.000000        0.744818         1
        12        11        32        34     9      180.000000        9.254884         2
        12        11        32        34     9        0.000000        0.505207         3
        12        11        32        34     9      180.000000       -0.194693         4
        12        13        14        15     9        0.000000        0.069778         1
        12        13        14        15     9      180.000000       15.936978         2
        12        13        14        15     9        0.000000       -0.376195         3
        12        13        14        15     9      180.000000       -0.263388         4
        12        13        14        41     9        0.000000       -0.070524         1
        12        13        14        41     9      180.000000       12.958784         2
        12        13        14        41     9        0.000000       -0.468655         3
        12        13        14        41     9      180.000000        0.126129         4
        12        13        31        17     9        0.000000        0.070659         1
        12        13        31        17     9      180.000000       15.716564         2
        12        13        31        17     9        0.000000       -0.270236         3
        12        13        31        17     9      180.000000       -0.316105         4
        12        13        31        59     9        0.000000       -0.233020         1
        12        13        31        59     9      180.000000       13.139679         2
        12        13        31        59     9        0.000000       -0.569465         3
        12        13        31        59     9      180.000000        0.090550         4
        13        12        11        32     9        0.000000       -0.315153         1
        13        12        11        32     9      180.000000       -1.899920         2
        13        12        11        32     9        0.000000        0.531794         3
        13        12        11        32     9      180.000000       -0.262815         4
        13        14        15        16     9        0.000000        0.151667         1
        13        14        15        16     9      180.000000       18.079224         2
        13        14        15        16     9        0.000000       -1.376471         3
        13        14        15        16     9      180.000000       -0.432841         4
        13        14        15        42     9        0.000000        0.099063         1
        13        14        15        42     9      180.000000       14.544108         2
        13        14        15        42     9        0.000000       -0.666532         3
        13        14        15        42     9      180.000000        0.082491         4
        13        31        17        16     9        0.000000        0.065693         1
        13        31        17        16     9      180.000000       15.576781         2
        13        31        17        16     9        0.000000       -0.898087         3
        13        31        17        16     9      180.000000       -0.165385         4
        13        31        17        18     9        0.000000        0.338133         1
        13        31        17        18     9      180.000000       16.840760         2
        13        31        17        18     9        0.000000        0.112920         3
        13        31        17        18     9      180.000000       -0.353465         4
        14        13        12        39     9        0.000000       -0.036886         1
        14        13        12        39     9      180.000000       -0.039265         2
        14        13        12        39     9        0.000000       -0.015137         3
        14        13        12        39     9      180.000000        0.013817         4
        14        13        12        40     9        0.000000       -0.036886         1
        14        13        12        40     9      180.000000       -0.039265         2
        14        13        12        40     9        0.000000       -0.015137         3
        14        13        12        40     9      180.000000        0.013817         4
        14        13        31        17     9        0.000000       -0.036722         1
        14        13        31        17     9      180.000000       18.416350         2
        14        13        31        17     9        0.000000       -1.490328         3
        14        13        31        17     9      180.000000       -0.455018         4
        14        13        31        59     9        0.000000       -0.118922         1
        14        13        31        59     9      180.000000       14.515207         2
        14        13        31        59     9        0.000000       -0.591369         3
        14        13        31        59     9      180.000000        0.050299         4
        14        15        16        17     9        0.000000       -0.025389         1
        14        15        16        17     9      180.000000       18.822549         2
        14        15        16        17     9        0.000000       -1.703958         3
        14        15        16        17     9      180.000000       -0.535316         4
        14        15        16        43     9        0.000000        0.032160         1
        14        15        16        43     9      180.000000       14.868729         2
        14        15        16        43     9        0.000000       -0.647140         3
        14        15        16        43     9      180.000000        0.129674         4
        15        14        13        31     9        0.000000       -0.094664         1
        15        14        13        31     9      180.000000       18.779954         2
        15        14        13        31     9        0.000000       -1.294816         3
        15        14        13        31     9      180.000000       -0.461004         4
        15        16        17        18     9        0.000000        0.378666         1
        15        16        17        18     9      180.000000       17.180126         2
        15        16        17        18     9        0.000000        0.140305         3
        15        16        17        18     9      180.000000       -0.277352         4
        15        16        17        31     9        0.000000        0.062351         1
        15        16        17        31     9      180.000000       16.418491         2
        15        16        17        31     9        0.000000       -0.912932         3
        15        16        17        31     9      180.000000       -0.148836         4
        16        15        14        41     9        0.000000        0.243982         1
        16        15        14        41     9      180.000000       14.181028         2
        16        15        14        41     9        0.000000       -0.723026         3
        16        15        14        41     9      180.000000        0.086763         4
        16        17        18        19     9        0.000000        0.121998         1
        16        17        18        19     9      180.000000        2.230719         2
        16        17        18        19     9        0.000000        0.007789         3
        16        17        18        19     9      180.000000        0.203126         4
        16        17        18        44     9        0.000000        0.086472         1
        16        17        18        44     9      180.000000        3.027549         2
        16        17        18        44     9        0.000000        0.124891         3
        16        17        18        44     9      180.000000        0.152286         4
        16        17        31        59     9        0.000000        0.290892         1
        16        17        31        59     9      180.000000       12.706523         2
        16        17        31        59     9        0.000000       -0.427875         3
        16        17        31        59     9      180.000000        0.096478         4
        17        16        15        42     9        0.000000        0.067299         1
        17        16        15        42     9      180.000000       14.957107         2
        17        16        15        42     9        0.000000       -0.539988         3
        17        16        15        42     9      180.000000       -0.044223         4
        17        18        19        20     9        0.000000       -0.965028         1
        17        18        19        20     9      180.000000        7.253225         2
        17        18        19        20     9        0.000000       -0.183611         3
        17        18        19        20     9      180.000000       -0.799286         4
        17        18        19        21     9        0.000000        0.232729         1
        17        18        19        21     9      180.000000        7.305639         2
        17        18        19        21     9        0.000000        0.217239         3
        17        18        19        21     9      180.000000       -0.526623         4
        18        17        16        43     9        0.000000       -0.141439         1
        18        17        16        43     9      180.000000       13.710209         2
        18        17        16        43     9        0.000000       -0.198858         3
        18        17        16        43     9      180.000000        0.219109         4
        18        17        31        59     9        0.000000       -0.135280         1
        18        17        31        59     9      180.000000       13.880462         2
        18        17        31        59     9        0.000000       -0.211343         3
        18        17        31        59     9      180.000000        0.213457         4
        18        19        21        22     9        0.000000       -1.528090         1
        18        19        21        22     9      180.000000        9.515997         2
        18        19        21        22     9        0.000000       -0.503590         3
        18        19        21        22     9      180.000000       -0.096705         4
        19        18        17        31     9        0.000000       -0.154446         1
        19        18        17        31     9      180.000000        2.284065         2
        19        18        17        31     9        0.000000       -0.007512         3
        19        18        17        31     9      180.000000        0.235270         4
        19        21        22        23     9        0.000000       -3.241958         1
        19        21        22        23     9      180.000000        0.074065         2
        19        21        22        23     9        0.000000        0.069651         3
        19        21        22        23     9      180.000000       -0.004949         4
        19        21        22        45     9        0.000000        0.695798         1
        19        21        22        45     9      180.000000        0.118596         2
        19        21        22        45     9        0.000000       -0.210649         3
        19        21        22        45     9      180.000000        0.091890         4
        19        21        22        46     9        0.000000        0.695798         1
        19        21        22        46     9      180.000000        0.118596         2
        19        21        22        46     9        0.000000       -0.210649         3
        19        21        22        46     9      180.000000        0.091890         4
        20        19        18        44     9        0.000000       -0.330792         1
        20        19        18        44     9      180.000000        8.763459         2
        20        19        18        44     9        0.000000       -0.190722         3
        20        19        18        44     9      180.000000        0.321419         4
        20        19        21        22     9        0.000000        1.586320         1
        20        19        21        22     9      180.000000        7.202842         2
        20        19        21        22     9        0.000000        0.011747         3
        20        19        21        22     9      180.000000       -0.087460         4
        21        19        18        44     9        0.000000        2.831182         1
        21        19        18        44     9      180.000000        8.916614         2
        21        19        18        44     9        0.000000       -0.209396         3
        21        19        18        44     9      180.000000        0.485758         4
        21        22        23        24     9        0.000000        1.480978         1
        21        22        23        24     9      180.000000       -0.481134         2
        21        22        23        24     9        0.000000        0.504314         3
        21        22        23        24     9      180.000000        0.086762         4
        21        22        23        47     9        0.000000        0.165167         1
        21        22        23        47     9      180.000000        0.074810         2
        21        22        23        47     9        0.000000        0.486927         3
        21        22        23        47     9      180.000000        0.078646         4
        21        22        23        48     9        0.000000        0.165166         1
        21        22        23        48     9      180.000000        0.074808         2
        21        22        23        48     9        0.000000        0.486926         3
        21        22        23        48     9      180.000000        0.078646         4
        22        23        24        25     9        0.000000        1.241055         1
        22        23        24        25     9      180.000000       -0.952068         2
        22        23        24        25     9        0.000000        0.522689         3
        22        23        24        25     9      180.000000       -0.084537         4
        22        23        24        49     9        0.000000        0.038787         1
        22        23        24        49     9      180.000000        0.014238         2
        22        23        24        49     9        0.000000        0.655911         3
        22        23        24        49     9      180.000000        0.045728         4
        22        23        24        50     9        0.000000        0.038787         1
        22        23        24        50     9      180.000000        0.014238         2
        22        23        24        50     9        0.000000        0.655911         3
        22        23        24        50     9      180.000000        0.045728         4
        23        24        25        26     9        0.000000        0.688062         1
        23        24        25        26     9      180.000000        0.143823         2
        23        24        25        26     9        0.000000        0.723959         3
        23        24        25        26     9      180.000000       -0.000507         4
        23        24        25        30     9        0.000000        0.688062         1
        23        24        25        30     9      180.000000        0.143823         2
        23        24        25        30     9        0.000000        0.723959         3
        23        24        25        30     9      180.000000       -0.000507         4
        23        24        25        62     9        0.000000       -0.879461         1
        23        24        25        62     9      180.000000        0.010272         2
        23        24        25        62     9        0.000000        0.493643         3
        23        24        25        62     9      180.000000        0.041427         4
        24        23        22        45     9        0.000000       -0.232020         1
        24        23        22        45     9      180.000000        0.066632         2
        24        23        22        45     9        0.000000        0.590694         3
        24        23        22        45     9      180.000000        0.024668         4
        24        23        22        46     9        0.000000       -0.232020         1
        24        23        22        46     9      180.000000        0.066632         2
        24        23        22        46     9        0.000000        0.590694         3
        24        23        22        46     9      180.000000        0.024668         4
        24        25        26        27     9        0.000000       -0.408961         1
        24        25        26        27     9      180.000000       -0.011964         2
        24        25        26        27     9        0.000000        0.471766         3
        24        25        26        27     9      180.000000        0.051929         4
        24        25        26        51     9        0.000000       -0.032378         1
        24        25        26        51     9      180.000000       -0.025136         2
        24        25        26        51     9        0.000000        0.548199         3
        24        25        26        51     9      180.000000       -0.060688         4
        24        25        26        52     9        0.000000       -0.032378         1
        24        25        26        52     9      180.000000       -0.025136         2
        24        25        26        52     9        0.000000        0.548199         3
        24        25        26        52     9      180.000000       -0.060688         4
        24        25        30        29     9        0.000000       -0.408961         1
        24        25        30        29     9      180.000000       -0.011964         2
        24        25        30        29     9        0.000000        0.471766         3
        24        25        30        29     9      180.000000        0.051929         4
        24        25        30        57     9        0.000000       -0.032378         1
        24        25        30        57     9      180.000000       -0.025136         2
        24        25        30        57     9        0.000000        0.548199         3
        24        25        30        57     9      180.000000       -0.060688         4
        24        25        30        58     9        0.000000       -0.032378         1
        24        25        30        58     9      180.000000       -0.025136         2
        24        25        30        58     9        0.000000        0.548199         3
        24        25        30        58     9      180.000000       -0.060688         4
        25        24        23        47     9        0.000000       -0.283935         1
        25        24        23        47     9      180.000000       -0.058989         2
        25        24        23        47     9        0.000000        0.562222         3
        25        24        23        47     9      180.000000        0.061061         4
        25        24        23        48     9        0.000000       -0.283935         1
        25        24        23        48     9      180.000000       -0.058988         2
        25        24        23        48     9        0.000000        0.562222         3
        25        24        23        48     9      180.000000        0.061060         4
        25        26        27        28     9        0.000000        1.455058         1
        25        26        27        28     9      180.000000       -0.661068         2
        25        26        27        28     9        0.000000        0.576441         3
        25        26        27        28     9      180.000000       -0.225184         4
        25        26        27        53     9        0.000000       -0.263556         1
        25        26        27        53     9      180.000000        0.014297         2
        25        26        27        53     9        0.000000        0.513145         3
        25        26        27        53     9      180.000000        0.074964         4
        25        26        27        54     9        0.000000       -0.263556         1
        25        26        27        54     9      180.000000        0.014297         2
        25        26        27        54     9        0.000000        0.513145         3
        25        26        27        54     9      180.000000        0.074964         4
        25        30        29        28     9        0.000000        1.455058         1
        25        30        29        28     9      180.000000       -0.661068         2
        25        30        29        28     9        0.000000        0.576441         3
        25        30        29        28     9      180.000000       -0.225184         4
        25        30        29        55     9        0.000000       -0.263556         1
        25        30        29        55     9      180.000000        0.014297         2
        25        30        29        55     9        0.000000        0.513145         3
        25        30        29        55     9      180.000000        0.074964         4
        25        30        29        56     9        0.000000       -0.263556         1
        25        30        29        56     9      180.000000        0.014297         2
        25        30        29        56     9        0.000000        0.513145         3
        25        30        29        56     9      180.000000        0.074964         4
        26        25        24        49     9        0.000000       -0.129875         1
        26        25        24        49     9      180.000000       -0.029803         2
        26        25        24        49     9        0.000000        0.756949         3
        26        25        24        49     9      180.000000       -0.009817         4
        26        25        24        50     9        0.000000       -0.129875         1
        26        25        24        50     9      180.000000       -0.029803         2
        26        25        24        50     9        0.000000        0.756949         3
        26        25        24        50     9      180.000000       -0.009817         4
        26        25        30        29     9        0.000000        1.557578         1
        26        25        30        29     9      180.000000       -1.556556         2
        26        25        30        29     9        0.000000        0.335283         3
        26        25        30        29     9      180.000000        0.071570         4
        26        25        30        57     9        0.000000       -0.018590         1
        26        25        30        57     9      180.000000        0.009275         2
        26        25        30        57     9        0.000000        0.473261         3
        26        25        30        57     9      180.000000       -0.054014         4
        26        25        30        58     9        0.000000       -0.018590         1
        26        25        30        58     9      180.000000        0.009275         2
        26        25        30        58     9        0.000000        0.473261         3
        26        25        30        58     9      180.000000       -0.054014         4
        26        27        28        29     9        0.000000        0.250189         1
        26        27        28        29     9      180.000000       -0.860141         2
        26        27        28        29     9        0.000000        0.705476         3
        26        27        28        29     9      180.000000       -0.047751         4
        27        26        25        30     9        0.000000        1.557578         1
        27        26        25        30     9      180.000000       -1.556556         2
        27        26        25        30     9        0.000000        0.335283         3
        27        26        25        30     9      180.000000        0.071570         4
        27        26        25        62     9        0.000000        1.521662         1
        27        26        25        62     9      180.000000       -0.504485         2
        27        26        25        62     9        0.000000        0.416165         3
        27        26        25        62     9      180.000000       -0.075933         4
        27        28        29        30     9        0.000000        0.250189         1
        27        28        29        30     9      180.000000       -0.860141         2
        27        28        29        30     9        0.000000        0.705476         3
        27        28        29        30     9      180.000000       -0.047751         4
        27        28        29        55     9        0.000000       -0.009454         1
        27        28        29        55     9      180.000000        0.088292         2
        27        28        29        55     9        0.000000        0.662384         3
        27        28        29        55     9      180.000000        0.011833         4
        27        28        29        56     9        0.000000       -0.009454         1
        27        28        29        56     9      180.000000        0.088292         2
        27        28        29        56     9        0.000000        0.662384         3
        27        28        29        56     9      180.000000        0.011833         4
        28        27        26        51     9        0.000000       -0.131358         1
        28        27        26        51     9      180.000000        0.006137         2
        28        27        26        51     9        0.000000        0.442582         3
        28        27        26        51     9      180.000000        0.062863         4
        28        27        26        52     9        0.000000       -0.131358         1
        28        27        26        52     9      180.000000        0.006137         2
        28        27        26        52     9        0.000000        0.442582         3
        28        27        26        52     9      180.000000        0.062863         4
        28        29        30        57     9        0.000000       -0.131358         1
        28        29        30        57     9      180.000000        0.006137         2
        28        29        30        57     9        0.000000        0.442582         3
        28        29        30        57     9      180.000000        0.062863         4
        28        29        30        58     9        0.000000       -0.131358         1
        28        29        30        58     9      180.000000        0.006137         2
        28        29        30        58     9        0.000000        0.442582         3
        28        29        30        58     9      180.000000        0.062863         4
        29        28        27        53     9        0.000000       -0.009454         1
        29        28        27        53     9      180.000000        0.088292         2
        29        28        27        53     9        0.000000        0.662384         3
        29        28        27        53     9      180.000000        0.011833         4
        29        28        27        54     9        0.000000       -0.009454         1
        29        28        27        54     9      180.000000        0.088292         2
        29        28        27        54     9        0.000000        0.662384         3
        29        28        27        54     9      180.000000        0.011833         4
        29        30        25        62     9        0.000000        1.521662         1
        29        30        25        62     9      180.000000       -0.504485         2
        29        30        25        62     9        0.000000        0.416165         3
        29        30        25        62     9      180.000000       -0.075933         4
        30        25        24        49     9        0.000000       -0.129875         1
        30        25        24        49     9      180.000000       -0.029803         2
        30        25        24        49     9        0.000000        0.756949         3
        30        25        24        49     9      180.000000       -0.009817         4
        30        25        24        50     9        0.000000       -0.129875         1
        30        25        24        50     9      180.000000       -0.029803         2
        30        25        24        50     9        0.000000        0.756949         3
        30        25        24        50     9      180.000000       -0.009817         4
        30        25        26        51     9        0.000000       -0.018590         1
        30        25        26        51     9      180.000000        0.009275         2
        30        25        26        51     9        0.000000        0.473261         3
        30        25        26        51     9      180.000000       -0.054014         4
        30        25        26        52     9        0.000000       -0.018590         1
        30        25        26        52     9      180.000000        0.009275         2
        30        25        26        52     9        0.000000        0.473261         3
        30        25        26        52     9      180.000000       -0.054014         4
        31        13        12        39     9        0.000000        0.005351         1
        31        13        12        39     9      180.000000       -0.002591         2
        31        13        12        39     9        0.000000       -0.032576         3
        31        13        12        39     9      180.000000        0.019840         4
        31        13        12        40     9        0.000000        0.005351         1
        31        13        12        40     9      180.000000       -0.002591         2
        31        13        12        40     9        0.000000       -0.032576         3
        31        13        12        40     9      180.000000        0.019840         4
        31        13        14        41     9        0.000000        0.079575         1
        31        13        14        41     9      180.000000       14.389485         2
        31        13        14        41     9        0.000000       -0.562173         3
        31        13        14        41     9      180.000000       -0.030429         4
        31        17        16        43     9        0.000000        0.209886         1
        31        17        16        43     9      180.000000       13.059900         2
        31        17        16        43     9        0.000000       -0.423354         3
        31        17        16        43     9      180.000000        0.141881         4
        31        17        18        44     9        0.000000        0.349024         1
        31        17        18        44     9      180.000000        3.102350         2
        31        17        18        44     9        0.000000        0.125122         3
        31        17        18        44     9      180.000000        0.097724         4
        32        11        12        39     9        0.000000       -0.051329         1
        32        11        12        39     9      180.000000        0.142959         2
        32        11        12        39     9        0.000000        0.143771         3
        32        11        12        39     9      180.000000        0.113206         4
        32        11        12        40     9        0.000000       -0.051329         1
        32        11        12        40     9      180.000000        0.142959         2
        32        11        12        40     9        0.000000        0.143771         3
        32        11        12        40     9      180.000000        0.113206         4
        32        34        35        61     9        0.000000        0.380985         1
        32        34        35        61     9      180.000000       17.184468         2
        32        34        35        61     9        0.000000       -0.152609         3
        32        34        35        61     9      180.000000       -0.094195         4
        33        32        34        35     9        0.000000        0.373567         1
        33        32        34        35     9      180.000000        6.488704         2
        33        32        34        35     9        0.000000        0.040900         3
        33        32        34        35     9      180.000000       -0.219159         4
        33        32        34        60     9        0.000000       -1.098767         1
        33        32        34        60     9      180.000000        8.614288         2
        33        32        34        60     9        0.000000       -0.424066         3
        33        32        34        60     9      180.000000       -0.304321         4
        41        14        15        42     9        0.000000       -0.091782         1
        41        14        15        42     9      180.000000       11.699854         2
        41        14        15        42     9        0.000000       -0.599153         3
        41        14        15        42     9      180.000000        0.243487         4
        42        15        16        43     9        0.000000       -0.114463         1
        42        15        16        43     9      180.000000       11.958664         2
        42        15        16        43     9        0.000000       -0.636112         3
        42        15        16        43     9      180.000000        0.259580         4
        45        22        23        47     9        0.000000       -0.057498         1
        45        22        23        47     9      180.000000       -0.002154         2
        45        22        23        47     9        0.000000        0.659202         3
        45        22        23        47     9      180.000000       -0.029061         4
        45        22        23        48     9        0.000000       -0.057497         1
        45        22        23        48     9      180.000000       -0.002153         2
        45        22        23        48     9        0.000000        0.659202         3
        45        22        23        48     9      180.000000       -0.029061         4
        46        22        23        47     9        0.000000       -0.057498         1
        46        22        23        47     9      180.000000       -0.002154         2
        46        22        23        47     9        0.000000        0.659202         3
        46        22        23        47     9      180.000000       -0.029061         4
        46        22        23        48     9        0.000000       -0.057497         1
        46        22        23        48     9      180.000000       -0.002153         2
        46        22        23        48     9        0.000000        0.659202         3
        46        22        23        48     9      180.000000       -0.029061         4
        47        23        24        49     9        0.000000       -0.085380         1
        47        23        24        49     9      180.000000        0.019974         2
        47        23        24        49     9        0.000000        0.650830         3
        47        23        24        49     9      180.000000       -0.052749         4
        47        23        24        50     9        0.000000       -0.085380         1
        47        23        24        50     9      180.000000        0.019974         2
        47        23        24        50     9        0.000000        0.650830         3
        47        23        24        50     9      180.000000       -0.052749         4
        48        23        24        49     9        0.000000       -0.085381         1
        48        23        24        49     9      180.000000        0.019973         2
        48        23        24        49     9        0.000000        0.650830         3
        48        23        24        49     9      180.000000       -0.052749         4
        48        23        24        50     9        0.000000       -0.085381         1
        48        23        24        50     9      180.000000        0.019973         2
        48        23        24        50     9        0.000000        0.650830         3
        48        23        24        50     9      180.000000       -0.052749         4
        49        24        25        62     9        0.000000        0.089234         1
        49        24        25        62     9      180.000000        0.122103         2
        49        24        25        62     9        0.000000        0.586240         3
        49        24        25        62     9      180.000000       -0.053055         4
        50        24        25        62     9        0.000000        0.089234         1
        50        24        25        62     9      180.000000        0.122103         2
        50        24        25        62     9        0.000000        0.586240         3
        50        24        25        62     9      180.000000       -0.053055         4
        51        26        25        62     9        0.000000       -0.063490         1
        51        26        25        62     9      180.000000        0.304114         2
        51        26        25        62     9        0.000000        0.436418         3
        51        26        25        62     9      180.000000        0.022670         4
        51        26        27        53     9        0.000000       -0.018564         1
        51        26        27        53     9      180.000000       -0.032197         2
        51        26        27        53     9        0.000000        0.511451         3
        51        26        27        53     9      180.000000       -0.011301         4
        51        26        27        54     9        0.000000       -0.018564         1
        51        26        27        54     9      180.000000       -0.032197         2
        51        26        27        54     9        0.000000        0.511451         3
        51        26        27        54     9      180.000000       -0.011301         4
        52        26        25        62     9        0.000000       -0.063490         1
        52        26        25        62     9      180.000000        0.304114         2
        52        26        25        62     9        0.000000        0.436418         3
        52        26        25        62     9      180.000000        0.022670         4
        52        26        27        53     9        0.000000       -0.018564         1
        52        26        27        53     9      180.000000       -0.032197         2
        52        26        27        53     9        0.000000        0.511451         3
        52        26        27        53     9      180.000000       -0.011301         4
        52        26        27        54     9        0.000000       -0.018564         1
        52        26        27        54     9      180.000000       -0.032197         2
        52        26        27        54     9        0.000000        0.511451         3
        52        26        27        54     9      180.000000       -0.011301         4
        55        29        30        57     9        0.000000       -0.018564         1
        55        29        30        57     9      180.000000       -0.032197         2
        55        29        30        57     9        0.000000        0.511451         3
        55        29        30        57     9      180.000000       -0.011301         4
        55        29        30        58     9        0.000000       -0.018564         1
        55        29        30        58     9      180.000000       -0.032197         2
        55        29        30        58     9        0.000000        0.511451         3
        55        29        30        58     9      180.000000       -0.011301         4
        56        29        30        57     9        0.000000       -0.018564         1
        56        29        30        57     9      180.000000       -0.032197         2
        56        29        30        57     9        0.000000        0.511451         3
        56        29        30        57     9      180.000000       -0.011301         4
        56        29        30        58     9        0.000000       -0.018564         1
        56        29        30        58     9      180.000000       -0.032197         2
        56        29        30        58     9        0.000000        0.511451         3
        56        29        30        58     9      180.000000       -0.011301         4
        57        30        25        62     9        0.000000       -0.063490         1
        57        30        25        62     9      180.000000        0.304114         2
        57        30        25        62     9        0.000000        0.436418         3
        57        30        25        62     9      180.000000        0.022670         4
        58        30        25        62     9        0.000000       -0.063490         1
        58        30        25        62     9      180.000000        0.304114         2
        58        30        25        62     9        0.000000        0.436418         3
        58        30        25        62     9      180.000000        0.022670         4
        60        34        35        61     9        0.000000       -0.176226         1
        60        34        35        61     9      180.000000       14.412886         2
        60        34        35        61     9        0.000000       -0.511875         3
        60        34        35        61     9      180.000000        0.397892         4

[ dihedrals ] ; impropers
;       ai        aj        ak        al funct           phase               k        pn
         2         1         3         8     4      180.000000        1.595244         2
         2         3         8         1     4      180.000000        1.595244         2
         2         8         1         3     4      180.000000        1.595244         2
         4         3         5         6     4      180.000000        1.595244         2
         4         5         6         3     4      180.000000        1.595244         2
         4         6         3         5     4      180.000000        1.595244         2
        14        13        15        41     4      180.000000        0.946454         2
        14        15        41        13     4      180.000000        0.946454         2
        14        41        13        15     4      180.000000        0.946454         2
        15        14        16        42     4      180.000000        2.102397         2
        15        16        42        14     4      180.000000        2.102397         2
        15        42        14        16     4      180.000000        2.102397         2
        19        18        20        21     4      180.000000       27.893333         2
        19        20        21        18     4      180.000000       27.893333         2
        19        21        18        20     4      180.000000       27.893333         2
        31        13        17        59     4      180.000000        0.655460         2
        31        17        59        13     4      180.000000        0.655460         2
        31        59        13        17     4      180.000000        0.655460         2
        32        11        33        34     4      180.000000       27.780523         2
        32        33        34        11     4      180.000000       27.780523         2
        32        34        11        33     4      180.000000       27.780523         2

[ pairs ]
;       ai        aj funct
         1         4     1
         1         7     1
         1        36     1
         1        38     1
         2         5     1
         2         6     1
         2         9     1
         3         7     1
         3        37     1
         3        38     1
         4         8     1
         4         9     1
         5         7     1
         5        36     1
         5        37     1
         6        10     1
         6        35     1
         6        36     1
         6        38     1
         7        11     1
         7        34     1
         7        61     1
         8        10     1
         8        35     1
         8        36     1
         8        37     1
         9        12     1
         9        32     1
         9        37     1
         9        38     1
         9        60     1
        10        13     1
        10        33     1
        10        34     1
        10        39     1
        10        40     1
        10        61     1
        11        14     1
        11        31     1
        11        35     1
        11        60     1
        12        15     1
        12        17     1
        12        33     1
        12        34     1
        12        41     1
        12        59     1
        13        16     1
        13        18     1
        13        32     1
        13        42     1
        14        17     1
        14        39     1
        14        40     1
        14        43     1
        14        59     1
        15        18     1
        15        31     1
        16        19     1
        16        41     1
        16        44     1
        16        59     1
        17        20     1
        17        21     1
        17        42     1
        18        22     1
        18        43     1
        18        59     1
        19        23     1
        19        31     1
        19        45     1
        19        46     1
        20        22     1
        20        44     1
        21        24     1
        21        44     1
        21        47     1
        21        48     1
        22        25     1
        22        49     1
        22        50     1
        23        26     1
        23        30     1
        23        62     1
        24        27     1
        24        29     1
        24        45     1
        24        46     1
        24        51     1
        24        52     1
        24        57     1
        24        58     1
        25        28     1
        25        47     1
        25        48     1
        25        53     1
        25        54     1
        25        55     1
        25        56     1
        26        29     1
        26        49     1
        26        50     1
        26        57     1
        26        58     1
        27        30     1
        27        55     1
        27        56     1
        27        62     1
        28        51     1
        28        52     1
        28        57     1
        28        58     1
        29        53     1
        29        54     1
        29        62     1
        30        49     1
        30        50     1
        30        51     1
        30        52     1
        31        39     1
        31        40     1
        31        41     1
        31        43     1
        31        44     1
        32        39     1
        32        40     1
        32        61     1
        33        35     1
        33        60     1
        41        42     1
        42        43     1
        45        47     1
        45        48     1
        46        47     1
        46        48     1
        47        49     1
        47        50     1
        48        49     1
        48        50     1
        49        62     1
        50        62     1
        51        53     1
        51        54     1
        51        62     1
        52        53     1
        52        54     1
        52        62     1
        55        57     1
        55        58     1
        56        57     1
        56        58     1
        57        62     1
        58        62     1
        60        61     1
