; ITP file created by ByteFF-ML, 2026-02-21 07:37:11.541727

[ atomtypes ]
;name           bonded.type        at.num        mass        charge   ptype           sigma         epsilon
 c0bf                                   6      0.0000       0.00000       A     3.39685e-01     4.50679e-01
 n1bf                                   7      0.0000       0.00000       A     2.58860e-01     1.06555e+01
 c2bf                                   6      0.0000       0.00000       A     3.39685e-01     4.50679e-01
 c3bf                                   6      0.0000       0.00000       A     3.39676e-01     4.54283e-01
 c4bf                                   6      0.0000       0.00000       A     3.39709e-01     4.50653e-01
 c5bf                                   6      0.0000       0.00000       A     3.39765e-01     4.49641e-01
 o6bf                                   8      0.0000       0.00000       A     3.16044e-01     3.06219e-01
 c7bf                                   6      0.0000       0.00000       A     3.31248e-01     4.11878e-01
 c8bf                                   6      0.0000       0.00000       A     3.31559e-01     4.12876e-01
 n9bf                                   7      0.0000       0.00000       A     3.38442e-01     3.92395e-01
 c10bf                                  6      0.0000       0.00000       A     3.31282e-01     4.12504e-01
 n11bf                                  7      0.0000       0.00000       A     3.38442e-01     3.92395e-01
 c12bf                                  6      0.0000       0.00000       A     3.31559e-01     4.12876e-01
 c13bf                                  6      0.0000       0.00000       A     3.31504e-01     4.11795e-01
 c14bf                                  6      0.0000       0.00000       A     3.31529e-01     4.13423e-01
 c15bf                                  6      0.0000       0.00000       A     3.31487e-01     4.13500e-01
 c16bf                                  6      0.0000       0.00000       A     3.31490e-01     4.12791e-01
 c17bf                                  6      0.0000       0.00000       A     3.31591e-01     4.14389e-01
 c18bf                                  6      0.0000       0.00000       A     3.39539e-01     4.50071e-01
 n19bf                                  7      0.0000       0.00000       A     3.18016e-01     6.86340e-01
 n20bf                                  7      0.0000       0.00000       A     3.38457e-01     3.91292e-01
 c21bf                                  6      0.0000       0.00000       A     3.31426e-01     4.13151e-01
 c22bf                                  6      0.0000       0.00000       A     3.31509e-01     4.14763e-01
 c23bf                                  6      0.0000       0.00000       A     3.31666e-01     4.12836e-01
 c24bf                                  6      0.0000       0.00000       A     3.31738e-01     4.11199e-01
 o25bf                                  8      0.0000       0.00000       A     3.04772e-01     6.11569e-01
 c26bf                                  6      0.0000       0.00000       A     3.31273e-01     4.12581e-01
 c27bf                                  6      0.0000       0.00000       A     3.31453e-01     4.12450e-01
 c28bf                                  6      0.0000       0.00000       A     3.31536e-01     4.13168e-01
 c29bf                                  6      0.0000       0.00000       A     3.31480e-01     4.13404e-01
 c30bf                                  6      0.0000       0.00000       A     3.31554e-01     4.14913e-01
 c31bf                                  6      0.0000       0.00000       A     3.31451e-01     4.12918e-01
 c32bf                                  6      0.0000       0.00000       A     3.48221e-01     6.70140e-01
 n33bf                                  7      0.0000       0.00000       A     3.27424e-01     4.58546e-01
 c34bf                                  6      0.0000       0.00000       A     3.31436e-01     4.13623e-01
 h35bf                                  1      0.0000       0.00000       A     1.88202e-01     8.71518e-02
 h36bf                                  1      0.0000       0.00000       A     1.88202e-01     8.71518e-02
 h37bf                                  1      0.0000       0.00000       A     1.88202e-01     8.71518e-02
 h38bf                                  1      0.0000       0.00000       A     1.88202e-01     8.71518e-02
 h39bf                                  1      0.0000       0.00000       A     1.88202e-01     8.71518e-02
 h40bf                                  1      0.0000       0.00000       A     1.88202e-01     8.71518e-02
 h41bf                                  1      0.0000       0.00000       A     1.87943e-01     8.69571e-02
 h42bf                                  1      0.0000       0.00000       A     1.87943e-01     8.69571e-02
 h43bf                                  1      0.0000       0.00000       A     2.60166e-01     8.75620e-02
 h44bf                                  1      0.0000       0.00000       A     2.60166e-01     8.75620e-02
 h45bf                                  1      0.0000       0.00000       A     2.42207e-01     8.74965e-02
 h46bf                                  1      0.0000       0.00000       A     2.42207e-01     8.74965e-02
 h47bf                                  1      0.0000       0.00000       A     2.53555e-01     6.66566e-02
 h48bf                                  1      0.0000       0.00000       A     2.53555e-01     6.66566e-02
 h49bf                                  1      0.0000       0.00000       A     2.62520e-01     6.73030e-02
 h50bf                                  1      0.0000       0.00000       A     2.62500e-01     6.73765e-02
 h51bf                                  1      0.0000       0.00000       A     2.62513e-01     6.77228e-02
 h52bf                                  1      0.0000       0.00000       A     2.41782e-01     8.82882e-02
 h53bf                                  1      0.0000       0.00000       A     2.41782e-01     8.82882e-02
 h54bf                                  1      0.0000       0.00000       A     2.62454e-01     6.74499e-02
 h55bf                                  1      0.0000       0.00000       A     2.62620e-01     6.80388e-02
 h56bf                                  1      0.0000       0.00000       A     2.62488e-01     6.75042e-02
 h57bf                                  1      0.0000       0.00000       A     2.62540e-01     6.75504e-02
 h58bf                                  1      0.0000       0.00000       A     2.62439e-01     6.70764e-02
 h59bf                                  1      0.0000       0.00000       A     2.62394e-01     6.75744e-02
 h60bf                                  1      0.0000       0.00000       A     2.62546e-01     6.76510e-02
 h61bf                                  1      0.0000       0.00000       A     1.10658e-01     4.28289e-02

[ moleculetype ]
;name             nrexcl
 CHEMBL3402760_1_redocked       3

[ atoms ]
;       nr            type      resi   res      atom      cgnr      charge          mass ; qtot
         1            c0bf         1   UNL        c0         1     0.08833       12.0110 ; qtot    0.088
         2            n1bf         1   UNL        n1         2    -0.68457       14.0070 ; qtot   -0.596
         3            c2bf         1   UNL        c2         3     0.08833       12.0110 ; qtot   -0.508
         4            c3bf         1   UNL        c3         4     0.10843       12.0110 ; qtot   -0.399
         5            c4bf         1   UNL        c4         5    -0.11535       12.0110 ; qtot   -0.515
         6            c5bf         1   UNL        c5         6     0.17091       12.0110 ; qtot   -0.344
         7            o6bf         1   UNL        o6         7    -0.33862       15.9990 ; qtot   -0.683
         8            c7bf         1   UNL        c7         8     0.03816       12.0110 ; qtot   -0.644
         9            c8bf         1   UNL        c8         9     0.05614       12.0110 ; qtot   -0.588
        10            n9bf         1   UNL        n9        10    -0.15555       14.0070 ; qtot   -0.744
        11           c10bf         1   UNL       c10        11     0.16879       12.0110 ; qtot   -0.575
        12           n11bf         1   UNL       n11        12    -0.15555       14.0070 ; qtot   -0.731
        13           c12bf         1   UNL       c12        13     0.05614       12.0110 ; qtot   -0.674
        14           c13bf         1   UNL       c13        14    -0.15729       12.0110 ; qtot   -0.832
        15           c14bf         1   UNL       c14        15    -0.06104       12.0110 ; qtot   -0.893
        16           c15bf         1   UNL       c15        16    -0.12394       12.0110 ; qtot   -1.017
        17           c16bf         1   UNL       c16        17    -0.07941       12.0110 ; qtot   -1.096
        18           c17bf         1   UNL       c17        18    -0.13750       12.0110 ; qtot   -1.234
        19           c18bf         1   UNL       c18        19     0.15914       12.0110 ; qtot   -1.074
        20           n19bf         1   UNL       n19        20    -0.13331       14.0070 ; qtot   -1.208
        21           n20bf         1   UNL       n20        21    -0.41710       14.0070 ; qtot   -1.625
        22           c21bf         1   UNL       c21        22     0.38405       12.0110 ; qtot   -1.241
        23           c22bf         1   UNL       c22        23    -0.20511       12.0110 ; qtot   -1.446
        24           c23bf         1   UNL       c23        24    -0.27047       12.0110 ; qtot   -1.716
        25           c24bf         1   UNL       c24        25     0.53165       12.0110 ; qtot   -1.185
        26           o25bf         1   UNL       o25        26    -0.53905       15.9990 ; qtot   -1.724
        27           c26bf         1   UNL       c26        27    -0.11675       12.0110 ; qtot   -1.841
        28           c27bf         1   UNL       c27        28    -0.06042       12.0110 ; qtot   -1.901
        29           c28bf         1   UNL       c28        29    -0.12051       12.0110 ; qtot   -2.021
        30           c29bf         1   UNL       c29        30    -0.06477       12.0110 ; qtot   -2.086
        31           c30bf         1   UNL       c30        31    -0.01845       12.0110 ; qtot   -2.105
        32           c31bf         1   UNL       c31        32    -0.04387       12.0110 ; qtot   -2.149
        33           c32bf         1   UNL       c32        33     0.31461       12.0110 ; qtot   -1.834
        34           n33bf         1   UNL       n33        34    -0.44246       14.0070 ; qtot   -2.276
        35           c34bf         1   UNL       c34        35    -0.03283       12.0110 ; qtot   -2.309
        36           h35bf         1   UNL       h35        36     0.10239        1.0080 ; qtot   -2.207
        37           h36bf         1   UNL       h36        37     0.10239        1.0080 ; qtot   -2.104
        38           h37bf         1   UNL       h37        38     0.10239        1.0080 ; qtot   -2.002
        39           h38bf         1   UNL       h38        39     0.10239        1.0080 ; qtot   -1.900
        40           h39bf         1   UNL       h39        40     0.10239        1.0080 ; qtot   -1.797
        41           h40bf         1   UNL       h40        41     0.10239        1.0080 ; qtot   -1.695
        42           h41bf         1   UNL       h41        42     0.10193        1.0080 ; qtot   -1.593
        43           h42bf         1   UNL       h42        43     0.10193        1.0080 ; qtot   -1.491
        44           h43bf         1   UNL       h43        44     0.08745        1.0080 ; qtot   -1.404
        45           h44bf         1   UNL       h44        45     0.08745        1.0080 ; qtot   -1.316
        46           h45bf         1   UNL       h45        46     0.06068        1.0080 ; qtot   -1.255
        47           h46bf         1   UNL       h46        47     0.06068        1.0080 ; qtot   -1.195
        48           h47bf         1   UNL       h47        48     0.03802        1.0080 ; qtot   -1.157
        49           h48bf         1   UNL       h48        49     0.03802        1.0080 ; qtot   -1.119
        50           h49bf         1   UNL       h49        50     0.13364        1.0080 ; qtot   -0.985
        51           h50bf         1   UNL       h50        51     0.11635        1.0080 ; qtot   -0.869
        52           h51bf         1   UNL       h51        52     0.12316        1.0080 ; qtot   -0.746
        53           h52bf         1   UNL       h52        53     0.08014        1.0080 ; qtot   -0.665
        54           h53bf         1   UNL       h53        54     0.08014        1.0080 ; qtot   -0.585
        55           h54bf         1   UNL       h54        55     0.20036        1.0080 ; qtot   -0.385
        56           h55bf         1   UNL       h55        56     0.21660        1.0080 ; qtot   -0.168
        57           h56bf         1   UNL       h56        57     0.12693        1.0080 ; qtot   -0.041
        58           h57bf         1   UNL       h57        58     0.12882        1.0080 ; qtot    0.087
        59           h58bf         1   UNL       h58        59     0.13048        1.0080 ; qtot    0.218
        60           h59bf         1   UNL       h59        60     0.13866        1.0080 ; qtot    0.357
        61           h60bf         1   UNL       h60        61     0.13962        1.0080 ; qtot    0.496
        62           h61bf         1   UNL       h61        62     0.50384        1.0080 ; qtot    1.000

[ bonds ]
;       ai        aj funct               r               k
         1         2     1        0.150639   157689.415894
         1        36     1        0.108877   319001.423975
         1        37     1        0.108877   319001.423975
         1        38     1        0.108877   319001.423975
         2         3     1        0.150639   157689.415894
         2         4     1        0.152375   128558.507422
         2        62     1        0.102542   384882.237500
         3        39     1        0.108877   319001.423975
         3        40     1        0.108877   319001.423975
         3        41     1        0.108877   319001.423975
         4         5     1        0.152808   188077.171509
         4        42     1        0.109100   310831.208887
         4        43     1        0.109100   310831.208887
         5         6     1        0.153191   183204.614429
         5        44     1        0.109425   300988.772803
         5        45     1        0.109425   300988.772803
         6         7     1        0.143138   191253.094116
         6        46     1        0.109610   293314.820361
         6        47     1        0.109610   293314.820361
         7         8     1        0.136401   278447.166357
         8         9     1        0.140184   278555.162793
         8        13     1        0.140184   278555.162793
         9        10     1        0.133366   343073.035254
         9        48     1        0.108731   317365.031543
        10        11     1        0.134640   264702.506738
        11        12     1        0.134640   264702.506738
        11        14     1        0.148253   201473.696484
        12        13     1        0.133366   343073.035254
        13        49     1        0.108731   317364.980469
        14        15     1        0.140606   289246.733301
        14        35     1        0.140413   290599.561670
        15        16     1        0.139464   319479.861719
        15        50     1        0.108404   325012.297705
        16        17     1        0.139822   308159.771875
        16        51     1        0.108635   319128.598779
        17        18     1        0.140196   291895.084766
        17        52     1        0.108642   318341.519531
        18        19     1        0.151528   196206.042017
        18        35     1        0.139683   302833.624658
        19        20     1        0.147613   169992.888745
        19        53     1        0.109005   307715.068652
        19        54     1        0.109005   307715.068652
        20        21     1        0.134329   260852.455518
        20        25     1        0.140843   163226.052734
        21        22     1        0.131529   385871.570654
        22        23     1        0.143764   228458.147070
        22        27     1        0.148297   210252.052295
        23        24     1        0.135943   427987.243750
        23        55     1        0.108511   322270.505957
        24        25     1        0.145315   222731.909961
        24        56     1        0.108453   327898.374121
        25        26     1        0.123473   582908.373145
        27        28     1        0.140545   286992.521582
        27        32     1        0.140143   293007.328027
        28        29     1        0.139671   316560.587061
        28        57     1        0.108503   322172.239160
        29        30     1        0.139490   313891.856982
        29        58     1        0.108550   322931.176514
        30        31     1        0.140619   290044.231689
        30        59     1        0.108482   325629.197656
        31        32     1        0.140332   298407.788232
        31        33     1        0.143713   269609.053711
        32        60     1        0.108437   325210.950879
        33        34     1        0.116528  1106543.276758
        35        61     1        0.108475   322864.116064

[ angles ]
;       ai        aj        ak funct           theta             cth
         1         2         3     1      111.394310      625.820447
         1         2         4     1      112.362404      606.747163
         1         2        62     1      107.184303      508.970231
         2         1        36     1      108.809097      544.411845
         2         1        37     1      108.809097      544.411845
         2         1        38     1      108.809097      544.411845
         2         3        39     1      108.809097      544.411845
         2         3        40     1      108.809097      544.411845
         2         3        41     1      108.809097      544.411845
         2         4         5     1      113.478806      674.517288
         2         4        42     1      106.038719      550.108280
         2         4        43     1      106.038719      550.108280
         3         2         4     1      112.362404      606.747163
         3         2        62     1      107.184303      508.970231
         4         2        62     1      106.309494      505.076876
         4         5         6     1      112.010948      609.893143
         4         5        44     1      109.892250      511.584593
         4         5        45     1      109.892250      511.584593
         5         4        42     1      111.205246      486.585104
         5         4        43     1      111.205246      486.585104
         5         6         7     1      108.196121      613.087388
         5         6        46     1      110.758850      482.654176
         5         6        47     1      110.758850      482.654176
         6         5        44     1      109.221390      499.466213
         6         5        45     1      109.221390      499.466213
         6         7         8     1      118.184387      529.916535
         7         6        46     1      109.253662      455.816717
         7         6        47     1      109.253662      455.816717
         7         8         9     1      122.206749      599.254000
         7         8        13     1      122.206749      599.254000
         8         9        10     1      121.979652      820.071150
         8         9        48     1      121.193214      401.800879
         8        13        12     1      121.979652      820.071150
         8        13        49     1      121.193214      401.800879
         9         8        13     1      116.012695      578.655002
         9        10        11     1      117.835739      811.227713
        10         9        48     1      117.037987      381.335631
        10        11        12     1      124.311020      600.584228
        10        11        14     1      117.760376      476.262397
        11        12        13     1      117.835739      811.227713
        11        14        15     1      120.346436      528.756224
        11        14        35     1      120.176895      484.683674
        12        11        14     1      117.760376      476.262397
        12        13        49     1      117.037987      381.335631
        14        15        16     1      119.979965      674.456637
        14        15        50     1      118.940353      422.657483
        14        35        18     1      120.774254      672.801705
        14        35        61     1      118.453026      404.020564
        15        14        35     1      119.321045      655.708569
        15        16        17     1      120.256760      725.564182
        15        16        51     1      119.903481      440.262639
        16        15        50     1      120.924561      410.330497
        16        17        18     1      120.169945      693.599446
        16        17        52     1      120.187279      423.550228
        17        16        51     1      119.922340      434.291488
        17        18        19     1      120.333595      511.641604
        17        18        35     1      119.303223      734.428240
        18        17        52     1      119.704689      387.328041
        18        19        20     1      112.024635      482.191763
        18        19        53     1      110.926590      460.266878
        18        19        54     1      110.926590      460.266878
        18        35        61     1      120.039597      376.201523
        19        18        35     1      120.296829      468.954475
        19        20        21     1      115.047531      530.677636
        19        20        25     1      118.388565      582.347795
        20        19        53     1      106.570786      547.892042
        20        19        54     1      106.570786      547.892042
        20        21        22     1      118.964516      468.646976
        20        25        24     1      113.384048      841.521301
        20        25        26     1      120.897690      657.687567
        21        20        25     1      126.285873      626.788622
        21        22        23     1      120.904129      609.316323
        21        22        27     1      116.440292      472.216553
        22        23        24     1      119.793900      756.275876
        22        23        55     1      119.783630      413.823910
        22        27        28     1      120.747513      512.592702
        22        27        32     1      120.435585      485.398203
        23        22        27     1      122.136948      554.816493
        23        24        25     1      120.825829      851.397586
        23        24        56     1      122.663757      418.560373
        24        23        55     1      120.435448      423.448112
        24        25        26     1      125.412392      492.999259
        25        24        56     1      116.227783      462.415251
        27        28        29     1      120.777267      709.872969
        27        28        57     1      119.527542      423.722380
        27        32        31     1      120.266434      657.083231
        27        32        60     1      120.220322      411.897741
        28        27        32     1      118.812851      651.133979
        28        29        30     1      120.358742      734.250247
        28        29        58     1      119.908142      436.042057
        29        28        57     1      119.737770      418.668714
        29        30        31     1      119.179398      651.996558
        29        30        59     1      121.033249      417.291753
        30        29        58     1      119.847610      440.202243
        30        31        32     1      120.362038      706.968570
        30        31        33     1      119.806068      484.258417
        31        30        59     1      119.829506      421.049922
        31        32        60     1      119.545639      411.396416
        31        33        34     1      179.619339      167.360000
        32        31        33     1      119.657616      462.735837
        36         1        37     1      110.238785      348.438759
        36         1        38     1      110.238785      348.438759
        37         1        38     1      110.238785      348.438759
        39         3        40     1      110.238785      348.438759
        39         3        41     1      110.238785      348.438759
        40         3        41     1      110.238785      348.438759
        42         4        43     1      108.303940      351.814541
        44         5        45     1      106.989609      360.527356
        46         6        47     1      108.044960      343.949814
        53        19        54     1      109.371140      342.649272

[ dihedrals ] ; propers for gromacs 4.5 or higher, use funct 9
;       ai        aj        ak        al funct           phase               k        pn
         1         2         3        39     9        0.000000       -0.011821         1
         1         2         3        39     9      180.000000        0.039633         2
         1         2         3        39     9        0.000000        0.666285         3
         1         2         3        39     9      180.000000       -0.003680         4
         1         2         3        40     9        0.000000       -0.011821         1
         1         2         3        40     9      180.000000        0.039633         2
         1         2         3        40     9        0.000000        0.666285         3
         1         2         3        40     9      180.000000       -0.003680         4
         1         2         3        41     9        0.000000       -0.011821         1
         1         2         3        41     9      180.000000        0.039633         2
         1         2         3        41     9        0.000000        0.666285         3
         1         2         3        41     9      180.000000       -0.003680         4
         1         2         4         5     9        0.000000        0.588244         1
         1         2         4         5     9      180.000000        0.317884         2
         1         2         4         5     9        0.000000        0.734454         3
         1         2         4         5     9      180.000000        0.045879         4
         1         2         4        42     9        0.000000       -0.191156         1
         1         2         4        42     9      180.000000       -0.000237         2
         1         2         4        42     9        0.000000        0.758284         3
         1         2         4        42     9      180.000000        0.005600         4
         1         2         4        43     9        0.000000       -0.191156         1
         1         2         4        43     9      180.000000       -0.000237         2
         1         2         4        43     9        0.000000        0.758284         3
         1         2         4        43     9      180.000000        0.005600         4
         2         4         5         6     9        0.000000        1.321552         1
         2         4         5         6     9      180.000000       -1.049925         2
         2         4         5         6     9        0.000000        0.495005         3
         2         4         5         6     9      180.000000       -0.037368         4
         2         4         5        44     9        0.000000       -0.374452         1
         2         4         5        44     9      180.000000       -0.017136         2
         2         4         5        44     9        0.000000        0.564925         3
         2         4         5        44     9      180.000000        0.042156         4
         2         4         5        45     9        0.000000       -0.374452         1
         2         4         5        45     9      180.000000       -0.017136         2
         2         4         5        45     9        0.000000        0.564925         3
         2         4         5        45     9      180.000000        0.042156         4
         3         2         1        36     9        0.000000       -0.011821         1
         3         2         1        36     9      180.000000        0.039633         2
         3         2         1        36     9        0.000000        0.666285         3
         3         2         1        36     9      180.000000       -0.003680         4
         3         2         1        37     9        0.000000       -0.011821         1
         3         2         1        37     9      180.000000        0.039633         2
         3         2         1        37     9        0.000000        0.666285         3
         3         2         1        37     9      180.000000       -0.003680         4
         3         2         1        38     9        0.000000       -0.011821         1
         3         2         1        38     9      180.000000        0.039633         2
         3         2         1        38     9        0.000000        0.666285         3
         3         2         1        38     9      180.000000       -0.003680         4
         3         2         4         5     9        0.000000        0.588244         1
         3         2         4         5     9      180.000000        0.317884         2
         3         2         4         5     9        0.000000        0.734454         3
         3         2         4         5     9      180.000000        0.045879         4
         3         2         4        42     9        0.000000       -0.191156         1
         3         2         4        42     9      180.000000       -0.000237         2
         3         2         4        42     9        0.000000        0.758284         3
         3         2         4        42     9      180.000000        0.005600         4
         3         2         4        43     9        0.000000       -0.191156         1
         3         2         4        43     9      180.000000       -0.000237         2
         3         2         4        43     9        0.000000        0.758284         3
         3         2         4        43     9      180.000000        0.005600         4
         4         2         1        36     9        0.000000       -0.033543         1
         4         2         1        36     9      180.000000        0.035064         2
         4         2         1        36     9        0.000000        0.585739         3
         4         2         1        36     9      180.000000       -0.013883         4
         4         2         1        37     9        0.000000       -0.033543         1
         4         2         1        37     9      180.000000        0.035064         2
         4         2         1        37     9        0.000000        0.585739         3
         4         2         1        37     9      180.000000       -0.013883         4
         4         2         1        38     9        0.000000       -0.033543         1
         4         2         1        38     9      180.000000        0.035064         2
         4         2         1        38     9        0.000000        0.585739         3
         4         2         1        38     9      180.000000       -0.013883         4
         4         2         3        39     9        0.000000       -0.033543         1
         4         2         3        39     9      180.000000        0.035064         2
         4         2         3        39     9        0.000000        0.585739         3
         4         2         3        39     9      180.000000       -0.013883         4
         4         2         3        40     9        0.000000       -0.033543         1
         4         2         3        40     9      180.000000        0.035064         2
         4         2         3        40     9        0.000000        0.585739         3
         4         2         3        40     9      180.000000       -0.013883         4
         4         2         3        41     9        0.000000       -0.033543         1
         4         2         3        41     9      180.000000        0.035064         2
         4         2         3        41     9        0.000000        0.585739         3
         4         2         3        41     9      180.000000       -0.013883         4
         4         5         6         7     9        0.000000        1.326969         1
         4         5         6         7     9      180.000000       -0.326852         2
         4         5         6         7     9        0.000000        0.563602         3
         4         5         6         7     9      180.000000        0.032194         4
         4         5         6        46     9        0.000000       -0.164093         1
         4         5         6        46     9      180.000000        0.049851         2
         4         5         6        46     9        0.000000        0.624120         3
         4         5         6        46     9      180.000000        0.024193         4
         4         5         6        47     9        0.000000       -0.164093         1
         4         5         6        47     9      180.000000        0.049851         2
         4         5         6        47     9        0.000000        0.624120         3
         4         5         6        47     9      180.000000        0.024193         4
         5         4         2        62     9        0.000000       -0.789274         1
         5         4         2        62     9      180.000000       -0.053489         2
         5         4         2        62     9        0.000000        0.506395         3
         5         4         2        62     9      180.000000       -0.022588         4
         5         6         7         8     9        0.000000       -0.282679         1
         5         6         7         8     9      180.000000        0.508318         2
         5         6         7         8     9        0.000000        0.604842         3
         5         6         7         8     9      180.000000        0.053958         4
         6         5         4        42     9        0.000000        0.009853         1
         6         5         4        42     9      180.000000        0.077402         2
         6         5         4        42     9        0.000000        0.672128         3
         6         5         4        42     9      180.000000        0.034208         4
         6         5         4        43     9        0.000000        0.009853         1
         6         5         4        43     9      180.000000        0.077402         2
         6         5         4        43     9        0.000000        0.672128         3
         6         5         4        43     9      180.000000        0.034208         4
         6         7         8         9     9        0.000000        0.565271         1
         6         7         8         9     9      180.000000        4.045159         2
         6         7         8         9     9        0.000000        0.188725         3
         6         7         8         9     9      180.000000        0.279094         4
         6         7         8        13     9        0.000000        0.565271         1
         6         7         8        13     9      180.000000        4.045159         2
         6         7         8        13     9        0.000000        0.188725         3
         6         7         8        13     9      180.000000        0.279094         4
         7         6         5        44     9        0.000000        0.135319         1
         7         6         5        44     9      180.000000        0.127142         2
         7         6         5        44     9        0.000000        0.482868         3
         7         6         5        44     9      180.000000        0.062401         4
         7         6         5        45     9        0.000000        0.135319         1
         7         6         5        45     9      180.000000        0.127142         2
         7         6         5        45     9        0.000000        0.482868         3
         7         6         5        45     9      180.000000        0.062401         4
         7         8         9        10     9        0.000000        0.532639         1
         7         8         9        10     9      180.000000       15.679317         2
         7         8         9        10     9        0.000000        0.615393         3
         7         8         9        10     9      180.000000       -0.541128         4
         7         8         9        48     9        0.000000        0.249149         1
         7         8         9        48     9      180.000000       13.041003         2
         7         8         9        48     9        0.000000        0.093597         3
         7         8         9        48     9      180.000000        0.192435         4
         7         8        13        12     9        0.000000        0.532639         1
         7         8        13        12     9      180.000000       15.679317         2
         7         8        13        12     9        0.000000        0.615393         3
         7         8        13        12     9      180.000000       -0.541128         4
         7         8        13        49     9        0.000000        0.249149         1
         7         8        13        49     9      180.000000       13.041003         2
         7         8        13        49     9        0.000000        0.093597         3
         7         8        13        49     9      180.000000        0.192435         4
         8         7         6        46     9        0.000000       -0.025369         1
         8         7         6        46     9      180.000000       -0.062543         2
         8         7         6        46     9        0.000000        0.774177         3
         8         7         6        46     9      180.000000       -0.006994         4
         8         7         6        47     9        0.000000       -0.025369         1
         8         7         6        47     9      180.000000       -0.062543         2
         8         7         6        47     9        0.000000        0.774177         3
         8         7         6        47     9      180.000000       -0.006994         4
         8         9        10        11     9        0.000000       -0.368873         1
         8         9        10        11     9      180.000000       20.372788         2
         8         9        10        11     9        0.000000       -1.077436         3
         8         9        10        11     9      180.000000       -0.346824         4
         8        13        12        11     9        0.000000       -0.368873         1
         8        13        12        11     9      180.000000       20.372788         2
         8        13        12        11     9        0.000000       -1.077436         3
         8        13        12        11     9      180.000000       -0.346824         4
         9         8        13        12     9        0.000000       -0.019758         1
         9         8        13        12     9      180.000000       12.664448         2
         9         8        13        12     9        0.000000       -0.091600         3
         9         8        13        12     9      180.000000       -0.158751         4
         9         8        13        49     9        0.000000        0.172435         1
         9         8        13        49     9      180.000000       11.845675         2
         9         8        13        49     9        0.000000       -0.270740         3
         9         8        13        49     9      180.000000        0.090470         4
         9        10        11        12     9        0.000000       -0.471338         1
         9        10        11        12     9      180.000000       13.587509         2
         9        10        11        12     9        0.000000        0.508180         3
         9        10        11        12     9      180.000000       -0.510855         4
         9        10        11        14     9        0.000000        0.956320         1
         9        10        11        14     9      180.000000       16.662370         2
         9        10        11        14     9        0.000000        0.465373         3
         9        10        11        14     9      180.000000       -0.798973         4
        10         9         8        13     9        0.000000       -0.019758         1
        10         9         8        13     9      180.000000       12.664448         2
        10         9         8        13     9        0.000000       -0.091600         3
        10         9         8        13     9      180.000000       -0.158751         4
        10        11        12        13     9        0.000000       -0.471338         1
        10        11        12        13     9      180.000000       13.587509         2
        10        11        12        13     9        0.000000        0.508180         3
        10        11        12        13     9      180.000000       -0.510855         4
        10        11        14        15     9        0.000000       -0.150156         1
        10        11        14        15     9      180.000000        5.296820         2
        10        11        14        15     9        0.000000        0.065735         3
        10        11        14        15     9      180.000000        0.028830         4
        10        11        14        35     9        0.000000       -0.297677         1
        10        11        14        35     9      180.000000        5.258441         2
        10        11        14        35     9        0.000000        0.011334         3
        10        11        14        35     9      180.000000        0.052447         4
        11        10         9        48     9        0.000000        0.036838         1
        11        10         9        48     9      180.000000       18.011022         2
        11        10         9        48     9        0.000000       -0.117048         3
        11        10         9        48     9      180.000000       -0.175088         4
        11        12        13        49     9        0.000000        0.036838         1
        11        12        13        49     9      180.000000       18.011022         2
        11        12        13        49     9        0.000000       -0.117048         3
        11        12        13        49     9      180.000000       -0.175088         4
        11        14        15        16     9        0.000000       -0.103906         1
        11        14        15        16     9      180.000000       15.017340         2
        11        14        15        16     9        0.000000       -0.376856         3
        11        14        15        16     9      180.000000       -0.301391         4
        11        14        15        50     9        0.000000       -0.154818         1
        11        14        15        50     9      180.000000       12.171944         2
        11        14        15        50     9        0.000000       -0.452430         3
        11        14        15        50     9      180.000000        0.109925         4
        11        14        35        18     9        0.000000       -0.003436         1
        11        14        35        18     9      180.000000       15.141860         2
        11        14        35        18     9        0.000000       -0.344449         3
        11        14        35        18     9      180.000000       -0.335944         4
        11        14        35        61     9        0.000000       -0.138620         1
        11        14        35        61     9      180.000000       12.428051         2
        11        14        35        61     9        0.000000       -0.399633         3
        11        14        35        61     9      180.000000        0.084363         4
        12        11        14        15     9        0.000000       -0.150156         1
        12        11        14        15     9      180.000000        5.296820         2
        12        11        14        15     9        0.000000        0.065735         3
        12        11        14        15     9      180.000000        0.028830         4
        12        11        14        35     9        0.000000       -0.297677         1
        12        11        14        35     9      180.000000        5.258441         2
        12        11        14        35     9        0.000000        0.011334         3
        12        11        14        35     9      180.000000        0.052447         4
        13         8         9        48     9        0.000000        0.172435         1
        13         8         9        48     9      180.000000       11.845675         2
        13         8         9        48     9        0.000000       -0.270740         3
        13         8         9        48     9      180.000000        0.090470         4
        13        12        11        14     9        0.000000        0.956320         1
        13        12        11        14     9      180.000000       16.662370         2
        13        12        11        14     9        0.000000        0.465373         3
        13        12        11        14     9      180.000000       -0.798973         4
        14        15        16        17     9        0.000000       -0.024263         1
        14        15        16        17     9      180.000000       19.080273         2
        14        15        16        17     9        0.000000       -1.608946         3
        14        15        16        17     9      180.000000       -0.405125         4
        14        15        16        51     9        0.000000       -0.049163         1
        14        15        16        51     9      180.000000       14.510425         2
        14        15        16        51     9        0.000000       -0.511394         3
        14        15        16        51     9      180.000000        0.135170         4
        14        35        18        17     9        0.000000       -0.088534         1
        14        35        18        17     9      180.000000       19.421656         2
        14        35        18        17     9        0.000000       -1.372015         3
        14        35        18        17     9      180.000000       -0.512777         4
        14        35        18        19     9        0.000000       -0.117504         1
        14        35        18        19     9      180.000000       16.310103         2
        14        35        18        19     9        0.000000       -0.287584         3
        14        35        18        19     9      180.000000       -0.435242         4
        15        14        35        18     9        0.000000       -0.056432         1
        15        14        35        18     9      180.000000       17.631724         2
        15        14        35        18     9        0.000000       -1.156989         3
        15        14        35        18     9      180.000000       -0.380293         4
        15        14        35        61     9        0.000000        0.097074         1
        15        14        35        61     9      180.000000       13.969413         2
        15        14        35        61     9        0.000000       -0.596710         3
        15        14        35        61     9      180.000000        0.033850         4
        15        16        17        18     9        0.000000        0.048729         1
        15        16        17        18     9      180.000000       18.130306         2
        15        16        17        18     9        0.000000       -1.351409         3
        15        16        17        18     9      180.000000       -0.427611         4
        15        16        17        52     9        0.000000        0.145761         1
        15        16        17        52     9      180.000000       14.161628         2
        15        16        17        52     9        0.000000       -0.660149         3
        15        16        17        52     9      180.000000        0.079006         4
        16        15        14        35     9        0.000000       -0.162136         1
        16        15        14        35     9      180.000000       17.899874         2
        16        15        14        35     9        0.000000       -1.327732         3
        16        15        14        35     9      180.000000       -0.351838         4
        16        17        18        19     9        0.000000        0.053547         1
        16        17        18        19     9      180.000000       15.887048         2
        16        17        18        19     9        0.000000       -0.316713         3
        16        17        18        19     9      180.000000       -0.265416         4
        16        17        18        35     9        0.000000       -0.151522         1
        16        17        18        35     9      180.000000       18.846662         2
        16        17        18        35     9        0.000000       -1.254828         3
        16        17        18        35     9      180.000000       -0.455850         4
        17        16        15        50     9        0.000000        0.007972         1
        17        16        15        50     9      180.000000       14.742953         2
        17        16        15        50     9        0.000000       -0.729682         3
        17        16        15        50     9      180.000000        0.116077         4
        17        18        19        20     9        0.000000        0.030565         1
        17        18        19        20     9      180.000000        0.258279         2
        17        18        19        20     9        0.000000        0.090888         3
        17        18        19        20     9      180.000000        0.036615         4
        17        18        19        53     9        0.000000       -0.023737         1
        17        18        19        53     9      180.000000       -0.040447         2
        17        18        19        53     9        0.000000        0.007767         3
        17        18        19        53     9      180.000000        0.008145         4
        17        18        19        54     9        0.000000       -0.023737         1
        17        18        19        54     9      180.000000       -0.040447         2
        17        18        19        54     9        0.000000        0.007767         3
        17        18        19        54     9      180.000000        0.008145         4
        17        18        35        61     9        0.000000       -0.070563         1
        17        18        35        61     9      180.000000       14.570774         2
        17        18        35        61     9        0.000000       -0.622452         3
        17        18        35        61     9      180.000000        0.027389         4
        18        17        16        51     9        0.000000        0.131673         1
        18        17        16        51     9      180.000000       14.689555         2
        18        17        16        51     9        0.000000       -0.643310         3
        18        17        16        51     9      180.000000        0.060174         4
        18        19        20        21     9        0.000000       -2.175337         1
        18        19        20        21     9      180.000000       -0.781816         2
        18        19        20        21     9        0.000000        0.239373         3
        18        19        20        21     9      180.000000       -0.039014         4
        18        19        20        25     9        0.000000       -0.294337         1
        18        19        20        25     9      180.000000       -1.944838         2
        18        19        20        25     9        0.000000        0.574462         3
        18        19        20        25     9      180.000000       -0.274890         4
        19        18        17        52     9        0.000000       -0.084029         1
        19        18        17        52     9      180.000000       13.043121         2
        19        18        17        52     9        0.000000       -0.439000         3
        19        18        17        52     9      180.000000        0.103644         4
        19        18        35        61     9        0.000000       -0.246462         1
        19        18        35        61     9      180.000000       13.209734         2
        19        18        35        61     9        0.000000       -0.513719         3
        19        18        35        61     9      180.000000        0.112039         4
        19        20        21        22     9        0.000000        2.219233         1
        19        20        21        22     9      180.000000       14.227514         2
        19        20        21        22     9        0.000000        0.842090         3
        19        20        21        22     9      180.000000       -0.482320         4
        19        20        25        24     9        0.000000        0.727261         1
        19        20        25        24     9      180.000000        9.246158         2
        19        20        25        24     9        0.000000        0.502600         3
        19        20        25        24     9      180.000000       -0.193507         4
        19        20        25        26     9        0.000000       -0.195297         1
        19        20        25        26     9      180.000000       10.127565         2
        19        20        25        26     9        0.000000       -1.045207         3
        19        20        25        26     9      180.000000        0.094587         4
        20        19        18        35     9        0.000000        0.151706         1
        20        19        18        35     9      180.000000        0.281530         2
        20        19        18        35     9        0.000000        0.030783         3
        20        19        18        35     9      180.000000        0.045644         4
        20        21        22        23     9        0.000000       -0.101650         1
        20        21        22        23     9      180.000000       35.886518         2
        20        21        22        23     9        0.000000       -0.622939         3
        20        21        22        23     9      180.000000       -1.055692         4
        20        21        22        27     9        0.000000       -0.114131         1
        20        21        22        27     9      180.000000       35.160366         2
        20        21        22        27     9        0.000000        2.093472         3
        20        21        22        27     9      180.000000       -1.645612         4
        20        25        24        23     9        0.000000        1.364779         1
        20        25        24        23     9      180.000000        2.014246         2
        20        25        24        23     9        0.000000        0.435102         3
        20        25        24        23     9      180.000000        0.007037         4
        20        25        24        56     9        0.000000        0.158353         1
        20        25        24        56     9      180.000000        4.595400         2
        20        25        24        56     9        0.000000       -0.019784         3
        20        25        24        56     9      180.000000        0.196144         4
        21        20        19        53     9        0.000000        0.298767         1
        21        20        19        53     9      180.000000        0.078292         2
        21        20        19        53     9        0.000000        0.019662         3
        21        20        19        53     9      180.000000        0.086536         4
        21        20        19        54     9        0.000000        0.298767         1
        21        20        19        54     9      180.000000        0.078292         2
        21        20        19        54     9        0.000000        0.019662         3
        21        20        19        54     9      180.000000        0.086536         4
        21        20        25        24     9        0.000000        1.359758         1
        21        20        25        24     9      180.000000        2.455735         2
        21        20        25        24     9        0.000000        0.532356         3
        21        20        25        24     9      180.000000        0.115454         4
        21        20        25        26     9        0.000000       -0.191705         1
        21        20        25        26     9      180.000000        9.009476         2
        21        20        25        26     9        0.000000       -0.415666         3
        21        20        25        26     9      180.000000       -0.488867         4
        21        22        23        24     9        0.000000       -0.195893         1
        21        22        23        24     9      180.000000       12.112472         2
        21        22        23        24     9        0.000000       -0.538333         3
        21        22        23        24     9      180.000000       -0.419916         4
        21        22        23        55     9        0.000000       -0.013453         1
        21        22        23        55     9      180.000000        9.192947         2
        21        22        23        55     9        0.000000       -0.281104         3
        21        22        23        55     9      180.000000       -0.087077         4
        21        22        27        28     9        0.000000        0.000775         1
        21        22        27        28     9      180.000000        3.789659         2
        21        22        27        28     9        0.000000        0.107492         3
        21        22        27        28     9      180.000000        0.008994         4
        21        22        27        32     9        0.000000        0.323634         1
        21        22        27        32     9      180.000000        3.837025         2
        21        22        27        32     9        0.000000        0.134186         3
        21        22        27        32     9      180.000000        0.016524         4
        22        21        20        25     9        0.000000        2.140359         1
        22        21        20        25     9      180.000000        8.406789         2
        22        21        20        25     9        0.000000        0.352108         3
        22        21        20        25     9      180.000000       -0.020829         4
        22        23        24        25     9        0.000000       -0.109861         1
        22        23        24        25     9      180.000000       21.075589         2
        22        23        24        25     9        0.000000       -0.976334         3
        22        23        24        25     9      180.000000       -0.633940         4
        22        23        24        56     9        0.000000       -0.071018         1
        22        23        24        56     9      180.000000       17.277295         2
        22        23        24        56     9        0.000000       -0.360906         3
        22        23        24        56     9      180.000000       -0.063455         4
        22        27        28        29     9        0.000000        0.178910         1
        22        27        28        29     9      180.000000       15.668937         2
        22        27        28        29     9        0.000000       -0.124829         3
        22        27        28        29     9      180.000000       -0.213121         4
        22        27        28        57     9        0.000000       -0.121235         1
        22        27        28        57     9      180.000000       12.379196         2
        22        27        28        57     9        0.000000       -0.322769         3
        22        27        28        57     9      180.000000        0.187057         4
        22        27        32        31     9        0.000000        0.134777         1
        22        27        32        31     9      180.000000       15.996790         2
        22        27        32        31     9        0.000000       -0.098192         3
        22        27        32        31     9      180.000000       -0.330952         4
        22        27        32        60     9        0.000000       -0.170457         1
        22        27        32        60     9      180.000000       12.376860         2
        22        27        32        60     9        0.000000       -0.305662         3
        22        27        32        60     9      180.000000        0.231765         4
        23        22        27        28     9        0.000000       -0.013041         1
        23        22        27        28     9      180.000000        3.955284         2
        23        22        27        28     9        0.000000        0.146684         3
        23        22        27        28     9      180.000000       -0.100290         4
        23        22        27        32     9        0.000000       -0.072455         1
        23        22        27        32     9      180.000000        3.978857         2
        23        22        27        32     9        0.000000        0.135787         3
        23        22        27        32     9      180.000000       -0.103767         4
        23        24        25        26     9        0.000000        0.373567         1
        23        24        25        26     9      180.000000        6.488703         2
        23        24        25        26     9        0.000000        0.040900         3
        23        24        25        26     9      180.000000       -0.219160         4
        24        23        22        27     9        0.000000        0.070650         1
        24        23        22        27     9      180.000000       12.787657         2
        24        23        22        27     9        0.000000       -0.190552         3
        24        23        22        27     9      180.000000       -0.475418         4
        25        20        19        53     9        0.000000       -0.045616         1
        25        20        19        53     9      180.000000        0.147989         2
        25        20        19        53     9        0.000000        0.144977         3
        25        20        19        53     9      180.000000        0.114694         4
        25        20        19        54     9        0.000000       -0.045616         1
        25        20        19        54     9      180.000000        0.147989         2
        25        20        19        54     9        0.000000        0.144977         3
        25        20        19        54     9      180.000000        0.114694         4
        25        24        23        55     9        0.000000        0.380985         1
        25        24        23        55     9      180.000000       17.184468         2
        25        24        23        55     9        0.000000       -0.152610         3
        25        24        23        55     9      180.000000       -0.094194         4
        26        25        24        56     9        0.000000       -1.098767         1
        26        25        24        56     9      180.000000        8.614287         2
        26        25        24        56     9        0.000000       -0.424066         3
        26        25        24        56     9      180.000000       -0.304321         4
        27        22        23        55     9        0.000000        0.018118         1
        27        22        23        55     9      180.000000       11.555984         2
        27        22        23        55     9        0.000000       -0.318106         3
        27        22        23        55     9      180.000000        0.063131         4
        27        28        29        30     9        0.000000        0.020622         1
        27        28        29        30     9      180.000000       19.347684         2
        27        28        29        30     9        0.000000       -1.494912         3
        27        28        29        30     9      180.000000       -0.471089         4
        27        28        29        58     9        0.000000       -0.048070         1
        27        28        29        58     9      180.000000       15.254792         2
        27        28        29        58     9        0.000000       -0.527447         3
        27        28        29        58     9      180.000000        0.019762         4
        27        32        31        30     9        0.000000       -0.081805         1
        27        32        31        30     9      180.000000       18.859674         2
        27        32        31        30     9        0.000000       -1.528326         3
        27        32        31        30     9      180.000000       -0.471040         4
        27        32        31        33     9        0.000000        0.025547         1
        27        32        31        33     9      180.000000       16.956423         2
        27        32        31        33     9        0.000000        0.040972         3
        27        32        31        33     9      180.000000       -0.392488         4
        28        27        32        31     9        0.000000       -0.232571         1
        28        27        32        31     9      180.000000       18.523683         2
        28        27        32        31     9        0.000000       -1.265259         3
        28        27        32        31     9      180.000000       -0.412998         4
        28        27        32        60     9        0.000000       -0.108780         1
        28        27        32        60     9      180.000000       14.088725         2
        28        27        32        60     9        0.000000       -0.569940         3
        28        27        32        60     9      180.000000        0.050935         4
        28        29        30        31     9        0.000000       -0.121583         1
        28        29        30        31     9      180.000000       19.028353         2
        28        29        30        31     9        0.000000       -1.418465         3
        28        29        30        31     9      180.000000       -0.498815         4
        28        29        30        59     9        0.000000       -0.058621         1
        28        29        30        59     9      180.000000       14.442881         2
        28        29        30        59     9        0.000000       -0.631881         3
        28        29        30        59     9      180.000000        0.067666         4
        29        28        27        32     9        0.000000       -0.124932         1
        29        28        27        32     9      180.000000       18.260061         2
        29        28        27        32     9        0.000000       -1.290863         3
        29        28        27        32     9      180.000000       -0.387636         4
        29        30        31        32     9        0.000000       -0.087999         1
        29        30        31        32     9      180.000000       18.264799         2
        29        30        31        32     9        0.000000       -1.474812         3
        29        30        31        32     9      180.000000       -0.447063         4
        29        30        31        33     9        0.000000        0.047617         1
        29        30        31        33     9      180.000000       16.765669         2
        29        30        31        33     9        0.000000       -0.031737         3
        29        30        31        33     9      180.000000       -0.265730         4
        30        29        28        57     9        0.000000        0.013715         1
        30        29        28        57     9      180.000000       14.892016         2
        30        29        28        57     9        0.000000       -0.613553         3
        30        29        28        57     9      180.000000        0.112630         4
        30        31        32        60     9        0.000000       -0.027644         1
        30        31        32        60     9      180.000000       14.392651         2
        30        31        32        60     9        0.000000       -0.678699         3
        30        31        32        60     9      180.000000        0.049647         4
        30        31        33        34     9        0.000000        0.000000         1
        30        31        33        34     9      180.000000        0.000000         2
        30        31        33        34     9        0.000000        0.000000         3
        30        31        33        34     9      180.000000        0.000000         4
        31        30        29        58     9        0.000000       -0.067862         1
        31        30        29        58     9      180.000000       14.630631         2
        31        30        29        58     9        0.000000       -0.558799         3
        31        30        29        58     9      180.000000        0.087065         4
        32        27        28        57     9        0.000000       -0.160447         1
        32        27        28        57     9      180.000000       13.973308         2
        32        27        28        57     9        0.000000       -0.571701         3
        32        27        28        57     9      180.000000        0.069584         4
        32        31        30        59     9        0.000000       -0.080683         1
        32        31        30        59     9      180.000000       14.175279         2
        32        31        30        59     9        0.000000       -0.659334         3
        32        31        30        59     9      180.000000       -0.006251         4
        32        31        33        34     9        0.000000        0.000000         1
        32        31        33        34     9      180.000000        0.000000         2
        32        31        33        34     9        0.000000        0.000000         3
        32        31        33        34     9      180.000000        0.000000         4
        33        31        30        59     9        0.000000        0.051172         1
        33        31        30        59     9      180.000000       12.879460         2
        33        31        30        59     9        0.000000       -0.288708         3
        33        31        30        59     9      180.000000        0.120152         4
        33        31        32        60     9        0.000000        0.039239         1
        33        31        32        60     9      180.000000       12.980992         2
        33        31        32        60     9        0.000000       -0.222725         3
        33        31        32        60     9      180.000000        0.170097         4
        35        14        15        50     9        0.000000        0.005550         1
        35        14        15        50     9      180.000000       13.617099         2
        35        14        15        50     9        0.000000       -0.708127         3
        35        14        15        50     9      180.000000        0.107034         4
        35        18        17        52     9        0.000000       -0.033483         1
        35        18        17        52     9      180.000000       14.278977         2
        35        18        17        52     9        0.000000       -0.638918         3
        35        18        17        52     9      180.000000        0.005808         4
        35        18        19        53     9        0.000000       -0.052102         1
        35        18        19        53     9      180.000000       -0.013188         2
        35        18        19        53     9        0.000000       -0.043479         3
        35        18        19        53     9      180.000000        0.008194         4
        35        18        19        54     9        0.000000       -0.052102         1
        35        18        19        54     9      180.000000       -0.013188         2
        35        18        19        54     9        0.000000       -0.043479         3
        35        18        19        54     9      180.000000        0.008194         4
        36         1         2        62     9        0.000000       -0.081762         1
        36         1         2        62     9      180.000000        0.142202         2
        36         1         2        62     9        0.000000        0.518422         3
        36         1         2        62     9      180.000000        0.017616         4
        37         1         2        62     9        0.000000       -0.081762         1
        37         1         2        62     9      180.000000        0.142202         2
        37         1         2        62     9        0.000000        0.518422         3
        37         1         2        62     9      180.000000        0.017616         4
        38         1         2        62     9        0.000000       -0.081762         1
        38         1         2        62     9      180.000000        0.142202         2
        38         1         2        62     9        0.000000        0.518422         3
        38         1         2        62     9      180.000000        0.017616         4
        39         3         2        62     9        0.000000       -0.081762         1
        39         3         2        62     9      180.000000        0.142202         2
        39         3         2        62     9        0.000000        0.518422         3
        39         3         2        62     9      180.000000        0.017616         4
        40         3         2        62     9        0.000000       -0.081762         1
        40         3         2        62     9      180.000000        0.142202         2
        40         3         2        62     9        0.000000        0.518422         3
        40         3         2        62     9      180.000000        0.017616         4
        41         3         2        62     9        0.000000       -0.081762         1
        41         3         2        62     9      180.000000        0.142202         2
        41         3         2        62     9        0.000000        0.518422         3
        41         3         2        62     9      180.000000        0.017616         4
        42         4         2        62     9        0.000000       -0.001163         1
        42         4         2        62     9      180.000000        0.134657         2
        42         4         2        62     9        0.000000        0.560900         3
        42         4         2        62     9      180.000000       -0.055361         4
        42         4         5        44     9        0.000000       -0.083578         1
        42         4         5        44     9      180.000000        0.012875         2
        42         4         5        44     9        0.000000        0.652943         3
        42         4         5        44     9      180.000000       -0.065838         4
        42         4         5        45     9        0.000000       -0.083578         1
        42         4         5        45     9      180.000000        0.012875         2
        42         4         5        45     9        0.000000        0.652943         3
        42         4         5        45     9      180.000000       -0.065838         4
        43         4         2        62     9        0.000000       -0.001163         1
        43         4         2        62     9      180.000000        0.134657         2
        43         4         2        62     9        0.000000        0.560900         3
        43         4         2        62     9      180.000000       -0.055361         4
        43         4         5        44     9        0.000000       -0.083578         1
        43         4         5        44     9      180.000000        0.012875         2
        43         4         5        44     9        0.000000        0.652943         3
        43         4         5        44     9      180.000000       -0.065838         4
        43         4         5        45     9        0.000000       -0.083578         1
        43         4         5        45     9      180.000000        0.012875         2
        43         4         5        45     9        0.000000        0.652943         3
        43         4         5        45     9      180.000000       -0.065838         4
        44         5         6        46     9        0.000000        0.022412         1
        44         5         6        46     9      180.000000       -0.032740         2
        44         5         6        46     9        0.000000        0.643637         3
        44         5         6        46     9      180.000000       -0.035729         4
        44         5         6        47     9        0.000000        0.022412         1
        44         5         6        47     9      180.000000       -0.032740         2
        44         5         6        47     9        0.000000        0.643637         3
        44         5         6        47     9      180.000000       -0.035729         4
        45         5         6        46     9        0.000000        0.022412         1
        45         5         6        46     9      180.000000       -0.032740         2
        45         5         6        46     9        0.000000        0.643637         3
        45         5         6        46     9      180.000000       -0.035729         4
        45         5         6        47     9        0.000000        0.022412         1
        45         5         6        47     9      180.000000       -0.032740         2
        45         5         6        47     9        0.000000        0.643637         3
        45         5         6        47     9      180.000000       -0.035729         4
        50        15        16        51     9        0.000000       -0.223300         1
        50        15        16        51     9      180.000000       12.042313         2
        50        15        16        51     9        0.000000       -0.706432         3
        50        15        16        51     9      180.000000        0.374018         4
        51        16        17        52     9        0.000000       -0.085425         1
        51        16        17        52     9      180.000000       11.867551         2
        51        16        17        52     9        0.000000       -0.566930         3
        51        16        17        52     9      180.000000        0.229284         4
        55        23        24        56     9        0.000000       -0.176224         1
        55        23        24        56     9      180.000000       14.412884         2
        55        23        24        56     9        0.000000       -0.511875         3
        55        23        24        56     9      180.000000        0.397892         4
        57        28        29        58     9        0.000000       -0.201849         1
        57        28        29        58     9      180.000000       12.179521         2
        57        28        29        58     9        0.000000       -0.686558         3
        57        28        29        58     9      180.000000        0.316921         4
        58        29        30        59     9        0.000000       -0.197386         1
        58        29        30        59     9      180.000000       11.713986         2
        58        29        30        59     9        0.000000       -0.625679         3
        58        29        30        59     9      180.000000        0.290561         4

[ dihedrals ] ; impropers
;       ai        aj        ak        al funct           phase               k        pn
         8         7         9        13     4      180.000000        0.309888         2
         8         9        13         7     4      180.000000        0.309888         2
         8        13         7         9     4      180.000000        0.309888         2
         9         8        10        48     4      180.000000        5.627773         2
         9        10        48         8     4      180.000000        5.627773         2
         9        48         8        10     4      180.000000        5.627773         2
        11        10        12        14     4      180.000000       27.893333         2
        11        12        14        10     4      180.000000       27.893333         2
        11        14        10        12     4      180.000000       27.893333         2
        13         8        12        49     4      180.000000        5.627773         2
        13        12        49         8     4      180.000000        5.627773         2
        13        49         8        12     4      180.000000        5.627773         2
        16        15        17        51     4      180.000000        2.822822         2
        16        17        51        15     4      180.000000        2.822822         2
        16        51        15        17     4      180.000000        2.822822         2
        17        16        18        52     4      180.000000        2.424298         2
        17        18        52        16     4      180.000000        2.424298         2
        17        52        16        18     4      180.000000        2.424298         2
        25        20        24        26     4      180.000000       27.780523         2
        25        24        26        20     4      180.000000       27.780523         2
        25        26        20        24     4      180.000000       27.780523         2
        35        14        18        61     4      180.000000        1.715332         2
        35        18        61        14     4      180.000000        1.715332         2
        35        61        14        18     4      180.000000        1.715332         2

[ pairs ]
;       ai        aj funct
         1         5     1
         1        39     1
         1        40     1
         1        41     1
         1        42     1
         1        43     1
         2         6     1
         2        44     1
         2        45     1
         3         5     1
         3        36     1
         3        37     1
         3        38     1
         3        42     1
         3        43     1
         4         7     1
         4        36     1
         4        37     1
         4        38     1
         4        39     1
         4        40     1
         4        41     1
         4        46     1
         4        47     1
         5         8     1
         5        62     1
         6         9     1
         6        13     1
         6        42     1
         6        43     1
         7        10     1
         7        12     1
         7        44     1
         7        45     1
         7        48     1
         7        49     1
         8        11     1
         8        46     1
         8        47     1
         9        12     1
         9        14     1
         9        49     1
        10        13     1
        10        15     1
        10        35     1
        11        16     1
        11        18     1
        11        48     1
        11        49     1
        11        50     1
        11        61     1
        12        15     1
        12        35     1
        13        14     1
        13        48     1
        14        17     1
        14        19     1
        14        51     1
        15        18     1
        15        52     1
        15        61     1
        16        19     1
        16        35     1
        17        20     1
        17        50     1
        17        53     1
        17        54     1
        17        61     1
        18        21     1
        18        25     1
        18        51     1
        19        22     1
        19        24     1
        19        26     1
        19        52     1
        19        61     1
        20        23     1
        20        27     1
        20        35     1
        20        56     1
        21        24     1
        21        26     1
        21        28     1
        21        32     1
        21        53     1
        21        54     1
        21        55     1
        22        25     1
        22        29     1
        22        31     1
        22        56     1
        22        57     1
        22        60     1
        23        26     1
        23        28     1
        23        32     1
        24        27     1
        25        53     1
        25        54     1
        25        55     1
        26        56     1
        27        30     1
        27        33     1
        27        55     1
        27        58     1
        28        31     1
        28        59     1
        28        60     1
        29        32     1
        29        33     1
        30        34     1
        30        57     1
        30        60     1
        31        58     1
        32        34     1
        32        57     1
        32        59     1
        33        59     1
        33        60     1
        35        50     1
        35        52     1
        35        53     1
        35        54     1
        36        62     1
        37        62     1
        38        62     1
        39        62     1
        40        62     1
        41        62     1
        42        44     1
        42        45     1
        42        62     1
        43        44     1
        43        45     1
        43        62     1
        44        46     1
        44        47     1
        45        46     1
        45        47     1
        50        51     1
        51        52     1
        55        56     1
        57        58     1
        58        59     1
