; ITP file created by ByteFF-ML, 2026-02-21 07:37:19.745687

[ atomtypes ]
;name           bonded.type        at.num        mass        charge   ptype           sigma         epsilon
 c0bf                                   6      0.0000       0.00000       A     3.39805e-01     4.50146e-01
 c1bf                                   6      0.0000       0.00000       A     3.31498e-01     4.13428e-01
 c2bf                                   6      0.0000       0.00000       A     3.31453e-01     4.13281e-01
 c3bf                                   6      0.0000       0.00000       A     3.31446e-01     4.13894e-01
 c4bf                                   6      0.0000       0.00000       A     3.31450e-01     4.10997e-01
 n5bf                                   7      0.0000       0.00000       A     3.38444e-01     3.92766e-01
 c6bf                                   6      0.0000       0.00000       A     3.31521e-01     4.13179e-01
 c7bf                                   6      0.0000       0.00000       A     3.31351e-01     4.11674e-01
 c8bf                                   6      0.0000       0.00000       A     3.31474e-01     4.12277e-01
 c9bf                                   6      0.0000       0.00000       A     3.31466e-01     4.13334e-01
 c10bf                                  6      0.0000       0.00000       A     3.31490e-01     4.12791e-01
 c11bf                                  6      0.0000       0.00000       A     3.31615e-01     4.14134e-01
 c12bf                                  6      0.0000       0.00000       A     3.39539e-01     4.50071e-01
 n13bf                                  7      0.0000       0.00000       A     3.18016e-01     6.86340e-01
 n14bf                                  7      0.0000       0.00000       A     3.38457e-01     3.91292e-01
 c15bf                                  6      0.0000       0.00000       A     3.31419e-01     4.13091e-01
 c16bf                                  6      0.0000       0.00000       A     3.31509e-01     4.14763e-01
 c17bf                                  6      0.0000       0.00000       A     3.31666e-01     4.12836e-01
 c18bf                                  6      0.0000       0.00000       A     3.31738e-01     4.11199e-01
 o19bf                                  8      0.0000       0.00000       A     3.04772e-01     6.11569e-01
 c20bf                                  6      0.0000       0.00000       A     3.31228e-01     4.12705e-01
 c21bf                                  6      0.0000       0.00000       A     3.31578e-01     4.12539e-01
 c22bf                                  6      0.0000       0.00000       A     3.31521e-01     4.13725e-01
 f23bf                                  9      0.0000       0.00000       A     3.03463e-01     3.48447e-01
 c24bf                                  6      0.0000       0.00000       A     3.31577e-01     4.12654e-01
 c25bf                                  6      0.0000       0.00000       A     3.31521e-01     4.13725e-01
 f26bf                                  9      0.0000       0.00000       A     3.03463e-01     3.48447e-01
 c27bf                                  6      0.0000       0.00000       A     3.31578e-01     4.12539e-01
 c28bf                                  6      0.0000       0.00000       A     3.31424e-01     4.13593e-01
 h29bf                                  1      0.0000       0.00000       A     2.60003e-01     8.72012e-02
 h30bf                                  1      0.0000       0.00000       A     2.60003e-01     8.72012e-02
 h31bf                                  1      0.0000       0.00000       A     2.60003e-01     8.72012e-02
 h32bf                                  1      0.0000       0.00000       A     2.62524e-01     6.74259e-02
 h33bf                                  1      0.0000       0.00000       A     2.62452e-01     6.76893e-02
 h34bf                                  1      0.0000       0.00000       A     2.53592e-01     6.74196e-02
 h35bf                                  1      0.0000       0.00000       A     2.62488e-01     6.75042e-02
 h36bf                                  1      0.0000       0.00000       A     2.62500e-01     6.73765e-02
 h37bf                                  1      0.0000       0.00000       A     2.62513e-01     6.77228e-02
 h38bf                                  1      0.0000       0.00000       A     2.41782e-01     8.82882e-02
 h39bf                                  1      0.0000       0.00000       A     2.41782e-01     8.82882e-02
 h40bf                                  1      0.0000       0.00000       A     2.62454e-01     6.74499e-02
 h41bf                                  1      0.0000       0.00000       A     2.62620e-01     6.80388e-02
 h42bf                                  1      0.0000       0.00000       A     2.62504e-01     6.74483e-02
 h43bf                                  1      0.0000       0.00000       A     2.62457e-01     6.72600e-02
 h44bf                                  1      0.0000       0.00000       A     2.62504e-01     6.74483e-02
 h45bf                                  1      0.0000       0.00000       A     2.62532e-01     6.79175e-02

[ moleculetype ]
;name             nrexcl
 CHEMBL3402753_200       3

[ atoms ]
;       nr            type      resi   res      atom      cgnr      charge          mass ; qtot
         1            c0bf         1   UNL        c0         1    -0.04271       12.0110 ; qtot   -0.043
         2            c1bf         1   UNL        c1         2    -0.12676       12.0110 ; qtot   -0.169
         3            c2bf         1   UNL        c2         3    -0.07749       12.0110 ; qtot   -0.247
         4            c3bf         1   UNL        c3         4    -0.15414       12.0110 ; qtot   -0.401
         5            c4bf         1   UNL        c4         5     0.39502       12.0110 ; qtot   -0.006
         6            n5bf         1   UNL        n5         6    -0.67134       14.0070 ; qtot   -0.677
         7            c6bf         1   UNL        c6         7     0.33609       12.0110 ; qtot   -0.341
         8            c7bf         1   UNL        c7         8    -0.14834       12.0110 ; qtot   -0.490
         9            c8bf         1   UNL        c8         9    -0.07970       12.0110 ; qtot   -0.569
        10            c9bf         1   UNL        c9        10    -0.11718       12.0110 ; qtot   -0.687
        11           c10bf         1   UNL       c10        11    -0.08150       12.0110 ; qtot   -0.768
        12           c11bf         1   UNL       c11        12    -0.13034       12.0110 ; qtot   -0.898
        13           c12bf         1   UNL       c12        13     0.15857       12.0110 ; qtot   -0.740
        14           n13bf         1   UNL       n13        14    -0.13331       14.0070 ; qtot   -0.873
        15           n14bf         1   UNL       n14        15    -0.41361       14.0070 ; qtot   -1.287
        16           c15bf         1   UNL       c15        16     0.38382       12.0110 ; qtot   -0.903
        17           c16bf         1   UNL       c16        17    -0.20483       12.0110 ; qtot   -1.108
        18           c17bf         1   UNL       c17        18    -0.27047       12.0110 ; qtot   -1.378
        19           c18bf         1   UNL       c18        19     0.53165       12.0110 ; qtot   -0.847
        20           o19bf         1   UNL       o19        20    -0.53905       15.9990 ; qtot   -1.386
        21           c20bf         1   UNL       c20        21    -0.06260       12.0110 ; qtot   -1.448
        22           c21bf         1   UNL       c21        22    -0.13315       12.0110 ; qtot   -1.581
        23           c22bf         1   UNL       c22        23     0.18511       12.0110 ; qtot   -1.396
        24           f23bf         1   UNL       f23        24    -0.17136       18.9980 ; qtot   -1.568
        25           c24bf         1   UNL       c24        25    -0.17623       12.0110 ; qtot   -1.744
        26           c25bf         1   UNL       c25        26     0.18511       12.0110 ; qtot   -1.559
        27           f26bf         1   UNL       f26        27    -0.17136       18.9980 ; qtot   -1.730
        28           c27bf         1   UNL       c27        28    -0.13315       12.0110 ; qtot   -1.863
        29           c28bf         1   UNL       c28        29    -0.05527       12.0110 ; qtot   -1.919
        30           h29bf         1   UNL       h29        30     0.04636        1.0080 ; qtot   -1.872
        31           h30bf         1   UNL       h30        31     0.04636        1.0080 ; qtot   -1.826
        32           h31bf         1   UNL       h31        32     0.04636        1.0080 ; qtot   -1.779
        33           h32bf         1   UNL       h32        33     0.11987        1.0080 ; qtot   -1.660
        34           h33bf         1   UNL       h33        34     0.12501        1.0080 ; qtot   -1.535
        35           h34bf         1   UNL       h34        35     0.01779        1.0080 ; qtot   -1.517
        36           h35bf         1   UNL       h35        36     0.12311        1.0080 ; qtot   -1.394
        37           h36bf         1   UNL       h36        37     0.11716        1.0080 ; qtot   -1.277
        38           h37bf         1   UNL       h37        38     0.12316        1.0080 ; qtot   -1.153
        39           h38bf         1   UNL       h38        39     0.08014        1.0080 ; qtot   -1.073
        40           h39bf         1   UNL       h39        40     0.08014        1.0080 ; qtot   -0.993
        41           h40bf         1   UNL       h40        41     0.20036        1.0080 ; qtot   -0.793
        42           h41bf         1   UNL       h41        42     0.21660        1.0080 ; qtot   -0.576
        43           h42bf         1   UNL       h42        43     0.14507        1.0080 ; qtot   -0.431
        44           h43bf         1   UNL       h43        44     0.15622        1.0080 ; qtot   -0.275
        45           h44bf         1   UNL       h44        45     0.14507        1.0080 ; qtot   -0.130
        46           h45bf         1   UNL       h45        46     0.12974        1.0080 ; qtot   -0.000

[ bonds ]
;       ai        aj funct               r               k
         1         2     1        0.150865   208664.052686
         1        30     1        0.109426   300323.301270
         1        31     1        0.109426   300323.301270
         1        32     1        0.109426   300323.301270
         2         3     1        0.140190   293086.901660
         2         7     1        0.140203   277439.931689
         3         4     1        0.139242   330274.857520
         3        33     1        0.108758   315226.528467
         4         5     1        0.140786   266551.112549
         4        34     1        0.108435   322862.149707
         5         6     1        0.134730   282867.665527
         5         8     1        0.148540   202734.080518
         6         7     1        0.133569   328571.225879
         7        35     1        0.108988   308784.664941
         8         9     1        0.140581   287136.474268
         8        29     1        0.140389   287747.602832
         9        10     1        0.139547   318230.075586
         9        36     1        0.108494   321536.799268
        10        11     1        0.139765   309135.263916
        10        37     1        0.108633   319249.542529
        11        12     1        0.140148   292680.197656
        11        38     1        0.108642   318341.519531
        12        13     1        0.151523   196256.899170
        12        29     1        0.139802   300172.938770
        13        14     1        0.147613   169992.888745
        13        39     1        0.109005   307715.094189
        13        40     1        0.109005   307715.094189
        14        15     1        0.134329   260852.455518
        14        19     1        0.140843   163226.039966
        15        16     1        0.131532   385896.852393
        16        17     1        0.143758   228805.707129
        16        21     1        0.148335   209788.579297
        17        18     1        0.135943   427987.294824
        17        41     1        0.108511   322270.505957
        18        19     1        0.145315   222731.909961
        18        42     1        0.108453   327898.374121
        19        20     1        0.123473   582908.373145
        21        22     1        0.140422   291361.537939
        21        28     1        0.140422   291361.537939
        22        23     1        0.138920   313457.802734
        22        43     1        0.108416   325553.071533
        23        24     1        0.135453   293002.271680
        23        25     1        0.139184   305134.084082
        25        26     1        0.139184   305134.084082
        25        44     1        0.108383   329735.283936
        26        27     1        0.135453   293002.246143
        26        28     1        0.138920   313457.751660
        28        45     1        0.108416   325553.045996
        29        46     1        0.108545   319985.087891

[ angles ]
;       ai        aj        ak funct           theta             cth
         1         2         3     1      122.098373      510.675280
         1         2         7     1      121.536179      479.486042
         2         1        30     1      111.223488      482.580438
         2         1        31     1      111.223488      482.580438
         2         1        32     1      111.223488      482.580438
         2         3         4     1      120.055679      765.344231
         2         3        33     1      120.153244      425.911358
         2         7         6     1      124.727989      724.836630
         2         7        35     1      119.750778      398.893830
         3         2         7     1      116.194458      682.876925
         3         4         5     1      119.453896      747.373065
         3         4        34     1      120.025391      434.729034
         4         3        33     1      119.846573      442.550604
         4         5         6     1      120.953857      606.412818
         4         5         8     1      122.173218      532.316289
         5         4        34     1      120.635666      397.376958
         5         6         7     1      118.736595      739.100638
         5         8         9     1      120.851891      536.216603
         5         8        29     1      120.662796      479.032057
         6         5         8     1      116.776390      529.891700
         6         7        35     1      115.651443      382.142221
         8         9        10     1      120.332565      691.971775
         8         9        36     1      119.564903      421.416507
         8        29        12     1      121.155334      685.839612
         8        29        46     1      119.091469      404.159582
         9         8        29     1      118.707985      655.473053
         9        10        11     1      120.322594      720.253996
         9        10        37     1      119.793655      434.470056
        10         9        36     1      120.086632      420.759054
        10        11        12     1      120.081848      695.270595
        10        11        38     1      120.213425      423.905897
        11        10        37     1      119.944687      433.222345
        11        12        13     1      120.348305      510.731047
        11        12        29     1      119.338745      729.193771
        12        11        38     1      119.727074      386.864064
        12        13        14     1      112.042015      481.917686
        12        13        39     1      110.939011      460.098844
        12        13        40     1      110.939011      460.098844
        12        29        46     1      119.338501      384.678311
        13        12        29     1      120.233704      466.182070
        13        14        15     1      115.047531      530.677636
        13        14        19     1      118.388565      582.347795
        14        13        39     1      106.570786      547.892042
        14        13        40     1      106.570786      547.892042
        14        15        16     1      118.961220      469.877609
        14        19        18     1      113.384048      841.521301
        14        19        20     1      120.897690      657.687567
        15        14        19     1      126.285873      626.788622
        15        16        17     1      120.957664      605.734233
        15        16        21     1      116.403854      474.728415
        16        17        18     1      119.772232      754.938561
        16        17        41     1      119.792664      413.722815
        16        21        22     1      120.173340      502.618769
        16        21        28     1      120.173340      502.618769
        17        16        21     1      122.132950      560.325422
        17        18        19     1      120.825829      851.397586
        17        18        42     1      122.663757      418.560373
        18        17        41     1      120.435448      423.448112
        18        19        20     1      125.412392      492.999259
        19        18        42     1      116.227783      462.415251
        21        22        23     1      118.851624      676.766086
        21        22        43     1      121.437241      415.867102
        21        28        26     1      118.851624      676.766086
        21        28        45     1      121.437241      415.867102
        22        21        28     1      119.538841      609.508937
        22        23        24     1      118.631699      539.458986
        22        23        25     1      123.013451      615.042573
        23        22        43     1      119.635216      433.104523
        23        25        26     1      116.444824      693.663161
        23        25        44     1      121.754539      420.766843
        24        23        25     1      118.254990      546.814631
        25        26        27     1      118.254990      546.814568
        25        26        28     1      123.013451      615.042573
        26        25        44     1      121.754562      420.766843
        26        28        45     1      119.635216      433.104523
        27        26        28     1      118.631699      539.458986
        30         1        31     1      107.694374      358.279452
        30         1        32     1      107.694374      358.279452
        31         1        32     1      107.694374      358.279452
        39        13        40     1      109.371140      342.649336

[ dihedrals ] ; propers for gromacs 4.5 or higher, use funct 9
;       ai        aj        ak        al funct           phase               k        pn
         1         2         3         4     9        0.000000        0.029703         1
         1         2         3         4     9      180.000000       15.219295         2
         1         2         3         4     9        0.000000       -0.208101         3
         1         2         3         4     9      180.000000       -0.180898         4
         1         2         3        33     9        0.000000       -0.203807         1
         1         2         3        33     9      180.000000       12.645592         2
         1         2         3        33     9        0.000000       -0.343229         3
         1         2         3        33     9      180.000000        0.296393         4
         1         2         7         6     9        0.000000        0.046456         1
         1         2         7         6     9      180.000000       14.671194         2
         1         2         7         6     9        0.000000       -0.189541         3
         1         2         7         6     9      180.000000       -0.371099         4
         1         2         7        35     9        0.000000       -0.238975         1
         1         2         7        35     9      180.000000       12.164923         2
         1         2         7        35     9        0.000000       -0.354248         3
         1         2         7        35     9      180.000000        0.245064         4
         2         3         4         5     9        0.000000       -0.048668         1
         2         3         4         5     9      180.000000       18.535500         2
         2         3         4         5     9        0.000000       -1.659364         3
         2         3         4         5     9      180.000000       -0.397220         4
         2         3         4        34     9        0.000000        0.001547         1
         2         3         4        34     9      180.000000       14.725732         2
         2         3         4        34     9        0.000000       -0.632100         3
         2         3         4        34     9      180.000000        0.191989         4
         2         7         6         5     9        0.000000        0.042713         1
         2         7         6         5     9      180.000000       22.337134         2
         2         7         6         5     9        0.000000       -0.722505         3
         2         7         6         5     9      180.000000       -0.379959         4
         3         2         1        30     9        0.000000       -0.015828         1
         3         2         1        30     9      180.000000        0.017785         2
         3         2         1        30     9        0.000000        0.005753         3
         3         2         1        30     9      180.000000        0.005487         4
         3         2         1        31     9        0.000000       -0.015828         1
         3         2         1        31     9      180.000000        0.017785         2
         3         2         1        31     9        0.000000        0.005753         3
         3         2         1        31     9      180.000000        0.005487         4
         3         2         1        32     9        0.000000       -0.015828         1
         3         2         1        32     9      180.000000        0.017785         2
         3         2         1        32     9        0.000000        0.005753         3
         3         2         1        32     9      180.000000        0.005487         4
         3         2         7         6     9        0.000000       -0.013685         1
         3         2         7         6     9      180.000000       17.475010         2
         3         2         7         6     9        0.000000       -0.692177         3
         3         2         7         6     9      180.000000       -0.523083         4
         3         2         7        35     9        0.000000       -0.044188         1
         3         2         7        35     9      180.000000       13.786304         2
         3         2         7        35     9        0.000000       -0.439557         3
         3         2         7        35     9      180.000000        0.048721         4
         3         4         5         6     9        0.000000       -0.091550         1
         3         4         5         6     9      180.000000       14.831543         2
         3         4         5         6     9        0.000000       -0.659609         3
         3         4         5         6     9      180.000000       -0.325760         4
         3         4         5         8     9        0.000000        0.332370         1
         3         4         5         8     9      180.000000       15.023041         2
         3         4         5         8     9        0.000000        0.043127         3
         3         4         5         8     9      180.000000       -0.403964         4
         4         3         2         7     9        0.000000       -0.007073         1
         4         3         2         7     9      180.000000       18.034863         2
         4         3         2         7     9        0.000000       -1.443479         3
         4         3         2         7     9      180.000000       -0.405602         4
         4         5         6         7     9        0.000000       -0.169515         1
         4         5         6         7     9      180.000000       20.925794         2
         4         5         6         7     9        0.000000       -0.277626         3
         4         5         6         7     9      180.000000       -0.142125         4
         4         5         8         9     9        0.000000       -0.195570         1
         4         5         8         9     9      180.000000        3.708110         2
         4         5         8         9     9        0.000000        0.123318         3
         4         5         8         9     9      180.000000       -0.116171         4
         4         5         8        29     9        0.000000       -0.178428         1
         4         5         8        29     9      180.000000        3.731062         2
         4         5         8        29     9        0.000000        0.098219         3
         4         5         8        29     9      180.000000       -0.105519         4
         5         4         3        33     9        0.000000        0.004193         1
         5         4         3        33     9      180.000000       14.373485         2
         5         4         3        33     9        0.000000       -0.478064         3
         5         4         3        33     9      180.000000        0.138813         4
         5         6         7        35     9        0.000000        0.833191         1
         5         6         7        35     9      180.000000       20.370517         2
         5         6         7        35     9        0.000000        0.280951         3
         5         6         7        35     9      180.000000       -0.411814         4
         5         8         9        10     9        0.000000        0.085760         1
         5         8         9        10     9      180.000000       14.957729         2
         5         8         9        10     9        0.000000       -0.247796         3
         5         8         9        10     9      180.000000       -0.161471         4
         5         8         9        36     9        0.000000       -0.180422         1
         5         8         9        36     9      180.000000       12.520697         2
         5         8         9        36     9        0.000000       -0.326641         3
         5         8         9        36     9      180.000000        0.161170         4
         5         8        29        12     9        0.000000        0.137415         1
         5         8        29        12     9      180.000000       14.883418         2
         5         8        29        12     9        0.000000       -0.179317         3
         5         8        29        12     9      180.000000       -0.138326         4
         5         8        29        46     9        0.000000       -0.126383         1
         5         8        29        46     9      180.000000       12.641477         2
         5         8        29        46     9        0.000000       -0.261636         3
         5         8        29        46     9      180.000000        0.193277         4
         6         5         4        34     9        0.000000       -0.085313         1
         6         5         4        34     9      180.000000       11.915160         2
         6         5         4        34     9        0.000000       -0.358298         3
         6         5         4        34     9      180.000000       -0.110752         4
         6         5         8         9     9        0.000000        0.105847         1
         6         5         8         9     9      180.000000        3.861611         2
         6         5         8         9     9        0.000000        0.080391         3
         6         5         8         9     9      180.000000        0.011860         4
         6         5         8        29     9        0.000000        0.119907         1
         6         5         8        29     9      180.000000        3.881748         2
         6         5         8        29     9        0.000000        0.080751         3
         6         5         8        29     9      180.000000        0.011065         4
         7         2         1        30     9        0.000000       -0.013960         1
         7         2         1        30     9      180.000000        0.006297         2
         7         2         1        30     9        0.000000       -0.016582         3
         7         2         1        30     9      180.000000       -0.000623         4
         7         2         1        31     9        0.000000       -0.013960         1
         7         2         1        31     9      180.000000        0.006297         2
         7         2         1        31     9        0.000000       -0.016582         3
         7         2         1        31     9      180.000000       -0.000623         4
         7         2         1        32     9        0.000000       -0.013960         1
         7         2         1        32     9      180.000000        0.006297         2
         7         2         1        32     9        0.000000       -0.016582         3
         7         2         1        32     9      180.000000       -0.000623         4
         7         2         3        33     9        0.000000       -0.004725         1
         7         2         3        33     9      180.000000       14.090780         2
         7         2         3        33     9        0.000000       -0.564636         3
         7         2         3        33     9      180.000000        0.087359         4
         7         6         5         8     9        0.000000        0.800458         1
         7         6         5         8     9      180.000000       22.743166         2
         7         6         5         8     9        0.000000        0.996621         3
         7         6         5         8     9      180.000000       -0.937337         4
         8         5         4        34     9        0.000000       -0.058162         1
         8         5         4        34     9      180.000000       12.557246         2
         8         5         4        34     9        0.000000       -0.093589         3
         8         5         4        34     9      180.000000        0.074233         4
         8         9        10        11     9        0.000000       -0.040475         1
         8         9        10        11     9      180.000000       19.031782         2
         8         9        10        11     9        0.000000       -1.576156         3
         8         9        10        11     9      180.000000       -0.395308         4
         8         9        10        37     9        0.000000       -0.018715         1
         8         9        10        37     9      180.000000       14.697577         2
         8         9        10        37     9        0.000000       -0.506030         3
         8         9        10        37     9      180.000000        0.125101         4
         8        29        12        11     9        0.000000       -0.121844         1
         8        29        12        11     9      180.000000       19.264369         2
         8        29        12        11     9        0.000000       -1.335605         3
         8        29        12        11     9      180.000000       -0.480180         4
         8        29        12        13     9        0.000000        0.020897         1
         8        29        12        13     9      180.000000       16.125139         2
         8        29        12        13     9        0.000000       -0.243925         3
         8        29        12        13     9      180.000000       -0.352402         4
         9         8        29        12     9        0.000000       -0.091132         1
         9         8        29        12     9      180.000000       17.931296         2
         9         8        29        12     9        0.000000       -1.293847         3
         9         8        29        12     9      180.000000       -0.350968         4
         9         8        29        46     9        0.000000       -0.000022         1
         9         8        29        46     9      180.000000       14.038369         2
         9         8        29        46     9        0.000000       -0.583032         3
         9         8        29        46     9      180.000000        0.028445         4
         9        10        11        12     9        0.000000        0.102890         1
         9        10        11        12     9      180.000000       18.045579         2
         9        10        11        12     9        0.000000       -1.346678         3
         9        10        11        12     9      180.000000       -0.413925         4
         9        10        11        38     9        0.000000        0.175161         1
         9        10        11        38     9      180.000000       14.057801         2
         9        10        11        38     9        0.000000       -0.639646         3
         9        10        11        38     9      180.000000        0.079870         4
        10         9         8        29     9        0.000000       -0.171825         1
        10         9         8        29     9      180.000000       18.587173         2
        10         9         8        29     9        0.000000       -1.476448         3
        10         9         8        29     9      180.000000       -0.355401         4
        10        11        12        13     9        0.000000        0.067527         1
        10        11        12        13     9      180.000000       15.876998         2
        10        11        12        13     9        0.000000       -0.322799         3
        10        11        12        13     9      180.000000       -0.263251         4
        10        11        12        29     9        0.000000       -0.137205         1
        10        11        12        29     9      180.000000       18.770773         2
        10        11        12        29     9        0.000000       -1.264562         3
        10        11        12        29     9      180.000000       -0.435294         4
        11        10         9        36     9        0.000000        0.047858         1
        11        10         9        36     9      180.000000       14.862510         2
        11        10         9        36     9        0.000000       -0.732089         3
        11        10         9        36     9      180.000000        0.132445         4
        11        12        13        14     9        0.000000        0.053734         1
        11        12        13        14     9      180.000000        0.272696         2
        11        12        13        14     9        0.000000        0.081294         3
        11        12        13        14     9      180.000000        0.038469         4
        11        12        13        39     9        0.000000       -0.021856         1
        11        12        13        39     9      180.000000       -0.037390         2
        11        12        13        39     9        0.000000       -0.002010         3
        11        12        13        39     9      180.000000        0.008177         4
        11        12        13        40     9        0.000000       -0.021856         1
        11        12        13        40     9      180.000000       -0.037390         2
        11        12        13        40     9        0.000000       -0.002010         3
        11        12        13        40     9      180.000000        0.008177         4
        11        12        29        46     9        0.000000       -0.058853         1
        11        12        29        46     9      180.000000       14.682465         2
        11        12        29        46     9        0.000000       -0.619991         3
        11        12        29        46     9      180.000000        0.040444         4
        12        11        10        37     9        0.000000        0.121318         1
        12        11        10        37     9      180.000000       14.682577         2
        12        11        10        37     9        0.000000       -0.630965         3
        12        11        10        37     9      180.000000        0.063997         4
        12        13        14        15     9        0.000000       -2.249103         1
        12        13        14        15     9      180.000000       -0.766961         2
        12        13        14        15     9        0.000000        0.246760         3
        12        13        14        15     9      180.000000       -0.041277         4
        12        13        14        19     9        0.000000       -0.362641         1
        12        13        14        19     9      180.000000       -1.917283         2
        12        13        14        19     9        0.000000        0.570262         3
        12        13        14        19     9      180.000000       -0.276293         4
        13        12        11        38     9        0.000000       -0.088164         1
        13        12        11        38     9      180.000000       13.025781         2
        13        12        11        38     9        0.000000       -0.449889         3
        13        12        11        38     9      180.000000        0.117062         4
        13        12        29        46     9        0.000000       -0.208010         1
        13        12        29        46     9      180.000000       13.239649         2
        13        12        29        46     9        0.000000       -0.494165         3
        13        12        29        46     9      180.000000        0.162872         4
        13        14        15        16     9        0.000000        2.135789         1
        13        14        15        16     9      180.000000       14.305035         2
        13        14        15        16     9        0.000000        0.842101         3
        13        14        15        16     9      180.000000       -0.491130         4
        13        14        19        18     9        0.000000        0.727261         1
        13        14        19        18     9      180.000000        9.246158         2
        13        14        19        18     9        0.000000        0.502600         3
        13        14        19        18     9      180.000000       -0.193507         4
        13        14        19        20     9        0.000000       -0.195297         1
        13        14        19        20     9      180.000000       10.127565         2
        13        14        19        20     9        0.000000       -1.045207         3
        13        14        19        20     9      180.000000        0.094587         4
        14        13        12        29     9        0.000000       -0.072994         1
        14        13        12        29     9      180.000000        0.345230         2
        14        13        12        29     9        0.000000        0.054013         3
        14        13        12        29     9      180.000000        0.039292         4
        14        15        16        17     9        0.000000       -0.095195         1
        14        15        16        17     9      180.000000       35.957180         2
        14        15        16        17     9        0.000000       -0.620289         3
        14        15        16        17     9      180.000000       -1.050184         4
        14        15        16        21     9        0.000000       -0.084948         1
        14        15        16        21     9      180.000000       34.972014         2
        14        15        16        21     9        0.000000        1.945584         3
        14        15        16        21     9      180.000000       -1.589659         4
        14        19        18        17     9        0.000000        1.364779         1
        14        19        18        17     9      180.000000        2.014246         2
        14        19        18        17     9        0.000000        0.435102         3
        14        19        18        17     9      180.000000        0.007037         4
        14        19        18        42     9        0.000000        0.158353         1
        14        19        18        42     9      180.000000        4.595400         2
        14        19        18        42     9        0.000000       -0.019784         3
        14        19        18        42     9      180.000000        0.196144         4
        15        14        13        39     9        0.000000        0.298767         1
        15        14        13        39     9      180.000000        0.078292         2
        15        14        13        39     9        0.000000        0.019662         3
        15        14        13        39     9      180.000000        0.086536         4
        15        14        13        40     9        0.000000        0.298767         1
        15        14        13        40     9      180.000000        0.078292         2
        15        14        13        40     9        0.000000        0.019662         3
        15        14        13        40     9      180.000000        0.086536         4
        15        14        19        18     9        0.000000        1.359758         1
        15        14        19        18     9      180.000000        2.455735         2
        15        14        19        18     9        0.000000        0.532356         3
        15        14        19        18     9      180.000000        0.115454         4
        15        14        19        20     9        0.000000       -0.191705         1
        15        14        19        20     9      180.000000        9.009476         2
        15        14        19        20     9        0.000000       -0.415666         3
        15        14        19        20     9      180.000000       -0.488867         4
        15        16        17        18     9        0.000000       -0.206460         1
        15        16        17        18     9      180.000000       12.226660         2
        15        16        17        18     9        0.000000       -0.564200         3
        15        16        17        18     9      180.000000       -0.418999         4
        15        16        17        41     9        0.000000        0.005072         1
        15        16        17        41     9      180.000000        9.301369         2
        15        16        17        41     9        0.000000       -0.286036         3
        15        16        17        41     9      180.000000       -0.092564         4
        15        16        21        22     9        0.000000       -0.217068         1
        15        16        21        22     9      180.000000        3.789456         2
        15        16        21        22     9        0.000000        0.058358         3
        15        16        21        22     9      180.000000        0.006680         4
        15        16        21        28     9        0.000000       -0.217067         1
        15        16        21        28     9      180.000000        3.789456         2
        15        16        21        28     9        0.000000        0.058358         3
        15        16        21        28     9      180.000000        0.006680         4
        16        15        14        19     9        0.000000        2.064315         1
        16        15        14        19     9      180.000000        8.395512         2
        16        15        14        19     9        0.000000        0.337796         3
        16        15        14        19     9      180.000000       -0.016133         4
        16        17        18        19     9        0.000000       -0.116202         1
        16        17        18        19     9      180.000000       21.080768         2
        16        17        18        19     9        0.000000       -0.986321         3
        16        17        18        19     9      180.000000       -0.634462         4
        16        17        18        42     9        0.000000       -0.069936         1
        16        17        18        42     9      180.000000       17.292472         2
        16        17        18        42     9        0.000000       -0.374657         3
        16        17        18        42     9      180.000000       -0.069790         4
        16        21        22        23     9        0.000000        0.230762         1
        16        21        22        23     9      180.000000       16.209562         2
        16        21        22        23     9        0.000000       -0.089588         3
        16        21        22        23     9      180.000000       -0.387375         4
        16        21        22        43     9        0.000000       -0.081645         1
        16        21        22        43     9      180.000000       12.448686         2
        16        21        22        43     9        0.000000       -0.389032         3
        16        21        22        43     9      180.000000        0.225184         4
        16        21        28        26     9        0.000000        0.230763         1
        16        21        28        26     9      180.000000       16.209562         2
        16        21        28        26     9        0.000000       -0.089588         3
        16        21        28        26     9      180.000000       -0.387374         4
        16        21        28        45     9        0.000000       -0.081645         1
        16        21        28        45     9      180.000000       12.448684         2
        16        21        28        45     9        0.000000       -0.389032         3
        16        21        28        45     9      180.000000        0.225185         4
        17        16        21        22     9        0.000000        0.162649         1
        17        16        21        22     9      180.000000        3.891274         2
        17        16        21        22     9        0.000000        0.150493         3
        17        16        21        22     9      180.000000       -0.119046         4
        17        16        21        28     9        0.000000        0.162649         1
        17        16        21        28     9      180.000000        3.891274         2
        17        16        21        28     9        0.000000        0.150493         3
        17        16        21        28     9      180.000000       -0.119046         4
        17        18        19        20     9        0.000000        0.373567         1
        17        18        19        20     9      180.000000        6.488703         2
        17        18        19        20     9        0.000000        0.040900         3
        17        18        19        20     9      180.000000       -0.219160         4
        18        17        16        21     9        0.000000        0.033405         1
        18        17        16        21     9      180.000000       12.689562         2
        18        17        16        21     9        0.000000       -0.240009         3
        18        17        16        21     9      180.000000       -0.455245         4
        19        14        13        39     9        0.000000       -0.045616         1
        19        14        13        39     9      180.000000        0.147989         2
        19        14        13        39     9        0.000000        0.144977         3
        19        14        13        39     9      180.000000        0.114694         4
        19        14        13        40     9        0.000000       -0.045616         1
        19        14        13        40     9      180.000000        0.147989         2
        19        14        13        40     9        0.000000        0.144977         3
        19        14        13        40     9      180.000000        0.114694         4
        19        18        17        41     9        0.000000        0.380985         1
        19        18        17        41     9      180.000000       17.184468         2
        19        18        17        41     9        0.000000       -0.152610         3
        19        18        17        41     9      180.000000       -0.094194         4
        20        19        18        42     9        0.000000       -1.098767         1
        20        19        18        42     9      180.000000        8.614287         2
        20        19        18        42     9        0.000000       -0.424066         3
        20        19        18        42     9      180.000000       -0.304321         4
        21        16        17        41     9        0.000000        0.013891         1
        21        16        17        41     9      180.000000       11.598305         2
        21        16        17        41     9        0.000000       -0.325133         3
        21        16        17        41     9      180.000000        0.059480         4
        21        22        23        24     9        0.000000        0.430936         1
        21        22        23        24     9      180.000000       23.370774         2
        21        22        23        24     9        0.000000        0.760673         3
        21        22        23        24     9      180.000000       -0.889889         4
        21        22        23        25     9        0.000000        0.038045         1
        21        22        23        25     9      180.000000       17.837120         2
        21        22        23        25     9        0.000000       -1.166641         3
        21        22        23        25     9      180.000000       -0.381872         4
        21        28        26        25     9        0.000000        0.038045         1
        21        28        26        25     9      180.000000       17.837118         2
        21        28        26        25     9        0.000000       -1.166641         3
        21        28        26        25     9      180.000000       -0.381871         4
        21        28        26        27     9        0.000000        0.430936         1
        21        28        26        27     9      180.000000       23.370774         2
        21        28        26        27     9        0.000000        0.760672         3
        21        28        26        27     9      180.000000       -0.889889         4
        22        21        28        26     9        0.000000       -0.342302         1
        22        21        28        26     9      180.000000       18.810098         2
        22        21        28        26     9        0.000000       -1.588451         3
        22        21        28        26     9      180.000000       -0.363249         4
        22        21        28        45     9        0.000000       -0.052324         1
        22        21        28        45     9      180.000000       13.948479         2
        22        21        28        45     9        0.000000       -0.577384         3
        22        21        28        45     9      180.000000        0.093952         4
        22        23        25        26     9        0.000000       -0.143238         1
        22        23        25        26     9      180.000000       17.087450         2
        22        23        25        26     9        0.000000       -1.147459         3
        22        23        25        26     9      180.000000       -0.384531         4
        22        23        25        44     9        0.000000        0.098565         1
        22        23        25        44     9      180.000000       12.433916         2
        22        23        25        44     9        0.000000       -0.442854         3
        22        23        25        44     9      180.000000        0.130980         4
        23        22        21        28     9        0.000000       -0.342302         1
        23        22        21        28     9      180.000000       18.810096         2
        23        22        21        28     9        0.000000       -1.588451         3
        23        22        21        28     9      180.000000       -0.363249         4
        23        25        26        27     9        0.000000        0.347297         1
        23        25        26        27     9      180.000000       23.388429         2
        23        25        26        27     9        0.000000        0.623001         3
        23        25        26        27     9      180.000000       -0.798052         4
        23        25        26        28     9        0.000000       -0.143237         1
        23        25        26        28     9      180.000000       17.087450         2
        23        25        26        28     9        0.000000       -1.147458         3
        23        25        26        28     9      180.000000       -0.384531         4
        24        23        22        43     9        0.000000        0.333425         1
        24        23        22        43     9      180.000000       16.367777         2
        24        23        22        43     9        0.000000        0.313595         3
        24        23        22        43     9      180.000000        0.089407         4
        24        23        25        26     9        0.000000        0.347297         1
        24        23        25        26     9      180.000000       23.388429         2
        24        23        25        26     9        0.000000        0.623001         3
        24        23        25        26     9      180.000000       -0.798052         4
        24        23        25        44     9        0.000000        0.299382         1
        24        23        25        44     9      180.000000       15.175831         2
        24        23        25        44     9        0.000000        0.237321         3
        24        23        25        44     9      180.000000        0.215427         4
        25        23        22        43     9        0.000000        0.126935         1
        25        23        22        43     9      180.000000       13.436919         2
        25        23        22        43     9        0.000000       -0.581726         3
        25        23        22        43     9      180.000000        0.110637         4
        25        26        28        45     9        0.000000        0.126936         1
        25        26        28        45     9      180.000000       13.436919         2
        25        26        28        45     9        0.000000       -0.581726         3
        25        26        28        45     9      180.000000        0.110636         4
        27        26        25        44     9        0.000000        0.299383         1
        27        26        25        44     9      180.000000       15.175831         2
        27        26        25        44     9        0.000000        0.237322         3
        27        26        25        44     9      180.000000        0.215426         4
        27        26        28        45     9        0.000000        0.333425         1
        27        26        28        45     9      180.000000       16.367779         2
        27        26        28        45     9        0.000000        0.313595         3
        27        26        28        45     9      180.000000        0.089406         4
        28        21        22        43     9        0.000000       -0.052323         1
        28        21        22        43     9      180.000000       13.948481         2
        28        21        22        43     9        0.000000       -0.577384         3
        28        21        22        43     9      180.000000        0.093952         4
        28        26        25        44     9        0.000000        0.098564         1
        28        26        25        44     9      180.000000       12.433917         2
        28        26        25        44     9        0.000000       -0.442854         3
        28        26        25        44     9      180.000000        0.130980         4
        29         8         9        36     9        0.000000       -0.074509         1
        29         8         9        36     9      180.000000       14.088791         2
        29         8         9        36     9        0.000000       -0.669107         3
        29         8         9        36     9      180.000000        0.114544         4
        29        12        11        38     9        0.000000       -0.025017         1
        29        12        11        38     9      180.000000       14.201021         2
        29        12        11        38     9        0.000000       -0.574314         3
        29        12        11        38     9      180.000000        0.003023         4
        29        12        13        39     9        0.000000       -0.019228         1
        29        12        13        39     9      180.000000       -0.013479         2
        29        12        13        39     9        0.000000       -0.042108         3
        29        12        13        39     9      180.000000        0.003235         4
        29        12        13        40     9        0.000000       -0.019228         1
        29        12        13        40     9      180.000000       -0.013479         2
        29        12        13        40     9        0.000000       -0.042108         3
        29        12        13        40     9      180.000000        0.003235         4
        33         3         4        34     9        0.000000       -0.227890         1
        33         3         4        34     9      180.000000       12.032921         2
        33         3         4        34     9        0.000000       -0.725421         3
        33         3         4        34     9      180.000000        0.370242         4
        36         9        10        37     9        0.000000       -0.187197         1
        36         9        10        37     9      180.000000       12.012661         2
        36         9        10        37     9        0.000000       -0.725036         3
        36         9        10        37     9      180.000000        0.347552         4
        37        10        11        38     9        0.000000       -0.084742         1
        37        10        11        38     9      180.000000       11.884861         2
        37        10        11        38     9        0.000000       -0.590612         3
        37        10        11        38     9      180.000000        0.230191         4
        41        17        18        42     9        0.000000       -0.176224         1
        41        17        18        42     9      180.000000       14.412884         2
        41        17        18        42     9        0.000000       -0.511875         3
        41        17        18        42     9      180.000000        0.397892         4

[ dihedrals ] ; impropers
;       ai        aj        ak        al funct           phase               k        pn
         5         4         6         8     4      180.000000        2.479804         2
         5         6         8         4     4      180.000000        2.479804         2
         5         8         4         6     4      180.000000        2.479804         2
         7         2         6        35     4      180.000000        4.687392         2
         7         6        35         2     4      180.000000        4.687392         2
         7        35         2         6     4      180.000000        4.687392         2
        10         9        11        37     4      180.000000        2.320952         2
        10        11        37         9     4      180.000000        2.320952         2
        10        37         9        11     4      180.000000        2.320952         2
        11        10        12        38     4      180.000000        2.361969         2
        11        12        38        10     4      180.000000        2.361969         2
        11        38        10        12     4      180.000000        2.361969         2
        19        14        18        20     4      180.000000       27.780523         2
        19        18        20        14     4      180.000000       27.780523         2
        19        20        14        18     4      180.000000       27.780523         2
        23        22        24        25     4      180.000000        1.595243         2
        23        24        25        22     4      180.000000        1.595243         2
        23        25        22        24     4      180.000000        1.595243         2
        26        25        27        28     4      180.000000        1.595244         2
        26        27        28        25     4      180.000000        1.595244         2
        26        28        25        27     4      180.000000        1.595244         2

[ pairs ]
;       ai        aj funct
         1         4     1
         1         6     1
         1        33     1
         1        35     1
         2         5     1
         2        34     1
         3         6     1
         3         8     1
         3        30     1
         3        31     1
         3        32     1
         3        35     1
         4         7     1
         4         9     1
         4        29     1
         5        10     1
         5        12     1
         5        33     1
         5        35     1
         5        36     1
         5        46     1
         6         9     1
         6        29     1
         6        34     1
         7         8     1
         7        30     1
         7        31     1
         7        32     1
         7        33     1
         8        11     1
         8        13     1
         8        34     1
         8        37     1
         9        12     1
         9        38     1
         9        46     1
        10        13     1
        10        29     1
        11        14     1
        11        36     1
        11        39     1
        11        40     1
        11        46     1
        12        15     1
        12        19     1
        12        37     1
        13        16     1
        13        18     1
        13        20     1
        13        38     1
        13        46     1
        14        17     1
        14        21     1
        14        29     1
        14        42     1
        15        18     1
        15        20     1
        15        22     1
        15        28     1
        15        39     1
        15        40     1
        15        41     1
        16        19     1
        16        23     1
        16        26     1
        16        42     1
        16        43     1
        16        45     1
        17        20     1
        17        22     1
        17        28     1
        18        21     1
        19        39     1
        19        40     1
        19        41     1
        20        42     1
        21        24     1
        21        25     1
        21        27     1
        21        41     1
        22        26     1
        22        44     1
        22        45     1
        23        27     1
        23        28     1
        24        26     1
        24        43     1
        24        44     1
        25        43     1
        25        45     1
        27        44     1
        27        45     1
        28        43     1
        28        44     1
        29        36     1
        29        38     1
        29        39     1
        29        40     1
        33        34     1
        36        37     1
        37        38     1
        41        42     1
