; ITP file created by ByteFF-ML, 2026-02-21 07:37:14.240507

[ atomtypes ]
;name           bonded.type        at.num        mass        charge   ptype           sigma         epsilon
 c0bf                                   6      0.0000       0.00000       A     3.39863e-01     4.51795e-01
 c1bf                                   6      0.0000       0.00000       A     3.39684e-01     4.50629e-01
 o2bf                                   8      0.0000       0.00000       A     3.15747e-01     3.00886e-01
 c3bf                                   6      0.0000       0.00000       A     3.31649e-01     4.13077e-01
 o4bf                                   8      0.0000       0.00000       A     3.04631e-01     6.13930e-01
 n5bf                                   7      0.0000       0.00000       A     3.27035e-01     4.89098e-01
 c6bf                                   6      0.0000       0.00000       A     3.31385e-01     4.13639e-01
 c7bf                                   6      0.0000       0.00000       A     3.31452e-01     4.11845e-01
 c8bf                                   6      0.0000       0.00000       A     3.31465e-01     4.13516e-01
 c9bf                                   6      0.0000       0.00000       A     3.31477e-01     4.12611e-01
 c10bf                                  6      0.0000       0.00000       A     3.31637e-01     4.13953e-01
 c11bf                                  6      0.0000       0.00000       A     3.39550e-01     4.50040e-01
 n12bf                                  7      0.0000       0.00000       A     3.18016e-01     6.86340e-01
 n13bf                                  7      0.0000       0.00000       A     3.38457e-01     3.91292e-01
 c14bf                                  6      0.0000       0.00000       A     3.31419e-01     4.13091e-01
 c15bf                                  6      0.0000       0.00000       A     3.31509e-01     4.14763e-01
 c16bf                                  6      0.0000       0.00000       A     3.31666e-01     4.12836e-01
 c17bf                                  6      0.0000       0.00000       A     3.31738e-01     4.11199e-01
 o18bf                                  8      0.0000       0.00000       A     3.04772e-01     6.11569e-01
 c19bf                                  6      0.0000       0.00000       A     3.31228e-01     4.12705e-01
 c20bf                                  6      0.0000       0.00000       A     3.31578e-01     4.12539e-01
 c21bf                                  6      0.0000       0.00000       A     3.31521e-01     4.13725e-01
 f22bf                                  9      0.0000       0.00000       A     3.03463e-01     3.48447e-01
 c23bf                                  6      0.0000       0.00000       A     3.31577e-01     4.12654e-01
 c24bf                                  6      0.0000       0.00000       A     3.31521e-01     4.13725e-01
 f25bf                                  9      0.0000       0.00000       A     3.03463e-01     3.48447e-01
 c26bf                                  6      0.0000       0.00000       A     3.31578e-01     4.12539e-01
 c27bf                                  6      0.0000       0.00000       A     3.31519e-01     4.13894e-01
 h28bf                                  1      0.0000       0.00000       A     2.59998e-01     8.74055e-02
 h29bf                                  1      0.0000       0.00000       A     2.59998e-01     8.74055e-02
 h30bf                                  1      0.0000       0.00000       A     2.59998e-01     8.74055e-02
 h31bf                                  1      0.0000       0.00000       A     2.42024e-01     8.75284e-02
 h32bf                                  1      0.0000       0.00000       A     2.42024e-01     8.75284e-02
 h33bf                                  1      0.0000       0.00000       A     1.10599e-01     4.09695e-02
 h34bf                                  1      0.0000       0.00000       A     2.62571e-01     6.74818e-02
 h35bf                                  1      0.0000       0.00000       A     2.62510e-01     6.73717e-02
 h36bf                                  1      0.0000       0.00000       A     2.62513e-01     6.77228e-02
 h37bf                                  1      0.0000       0.00000       A     2.41782e-01     8.82882e-02
 h38bf                                  1      0.0000       0.00000       A     2.41782e-01     8.82882e-02
 h39bf                                  1      0.0000       0.00000       A     2.62454e-01     6.74499e-02
 h40bf                                  1      0.0000       0.00000       A     2.62620e-01     6.80388e-02
 h41bf                                  1      0.0000       0.00000       A     2.62504e-01     6.74483e-02
 h42bf                                  1      0.0000       0.00000       A     2.62457e-01     6.72600e-02
 h43bf                                  1      0.0000       0.00000       A     2.62504e-01     6.74483e-02
 h44bf                                  1      0.0000       0.00000       A     2.62635e-01     6.78585e-02

[ moleculetype ]
;name             nrexcl
 CHEMBL3402745_200       3

[ atoms ]
;       nr            type      resi   res      atom      cgnr      charge          mass ; qtot
         1            c0bf         1   UNL        c0         1    -0.11202       12.0110 ; qtot   -0.112
         2            c1bf         1   UNL        c1         2     0.17396       12.0110 ; qtot    0.062
         3            o2bf         1   UNL        o2         3    -0.46234       15.9990 ; qtot   -0.400
         4            c3bf         1   UNL        c3         4     0.64515       12.0110 ; qtot    0.245
         5            o4bf         1   UNL        o4         5    -0.51312       15.9990 ; qtot   -0.268
         6            n5bf         1   UNL        n5         6    -0.14367       14.0070 ; qtot   -0.412
         7            c6bf         1   UNL        c6         7    -0.00528       12.0110 ; qtot   -0.417
         8            c7bf         1   UNL        c7         8    -0.15372       12.0110 ; qtot   -0.571
         9            c8bf         1   UNL        c8         9    -0.08420       12.0110 ; qtot   -0.655
        10            c9bf         1   UNL        c9        10    -0.10597       12.0110 ; qtot   -0.761
        11           c10bf         1   UNL       c10        11    -0.10594       12.0110 ; qtot   -0.867
        12           c11bf         1   UNL       c11        12     0.15737       12.0110 ; qtot   -0.710
        13           n12bf         1   UNL       n12        13    -0.13312       14.0070 ; qtot   -0.843
        14           n13bf         1   UNL       n13        14    -0.41361       14.0070 ; qtot   -1.257
        15           c14bf         1   UNL       c14        15     0.38382       12.0110 ; qtot   -0.873
        16           c15bf         1   UNL       c15        16    -0.20483       12.0110 ; qtot   -1.078
        17           c16bf         1   UNL       c16        17    -0.27047       12.0110 ; qtot   -1.348
        18           c17bf         1   UNL       c17        18     0.53165       12.0110 ; qtot   -0.816
        19           o18bf         1   UNL       o18        19    -0.53905       15.9990 ; qtot   -1.355
        20           c19bf         1   UNL       c19        20    -0.06260       12.0110 ; qtot   -1.418
        21           c20bf         1   UNL       c20        21    -0.13315       12.0110 ; qtot   -1.551
        22           c21bf         1   UNL       c21        22     0.18511       12.0110 ; qtot   -1.366
        23           f22bf         1   UNL       f22        23    -0.17136       18.9980 ; qtot   -1.537
        24           c23bf         1   UNL       c23        24    -0.17623       12.0110 ; qtot   -1.714
        25           c24bf         1   UNL       c24        25     0.18511       12.0110 ; qtot   -1.529
        26           f25bf         1   UNL       f25        26    -0.17136       18.9980 ; qtot   -1.700
        27           c26bf         1   UNL       c26        27    -0.13315       12.0110 ; qtot   -1.833
        28           c27bf         1   UNL       c27        28    -0.12436       12.0110 ; qtot   -1.957
        29           h28bf         1   UNL       h28        29     0.04709        1.0080 ; qtot   -1.910
        30           h29bf         1   UNL       h29        30     0.04709        1.0080 ; qtot   -1.863
        31           h30bf         1   UNL       h30        31     0.04709        1.0080 ; qtot   -1.816
        32           h31bf         1   UNL       h31        32     0.05778        1.0080 ; qtot   -1.758
        33           h32bf         1   UNL       h32        33     0.05778        1.0080 ; qtot   -1.701
        34           h33bf         1   UNL       h33        34     0.17023        1.0080 ; qtot   -1.530
        35           h34bf         1   UNL       h34        35     0.13129        1.0080 ; qtot   -1.399
        36           h35bf         1   UNL       h35        36     0.11737        1.0080 ; qtot   -1.282
        37           h36bf         1   UNL       h36        37     0.12305        1.0080 ; qtot   -1.159
        38           h37bf         1   UNL       h37        38     0.08001        1.0080 ; qtot   -1.079
        39           h38bf         1   UNL       h38        39     0.08001        1.0080 ; qtot   -0.999
        40           h39bf         1   UNL       h39        40     0.20036        1.0080 ; qtot   -0.798
        41           h40bf         1   UNL       h40        41     0.21660        1.0080 ; qtot   -0.582
        42           h41bf         1   UNL       h41        42     0.14507        1.0080 ; qtot   -0.437
        43           h42bf         1   UNL       h42        43     0.15622        1.0080 ; qtot   -0.280
        44           h43bf         1   UNL       h43        44     0.14507        1.0080 ; qtot   -0.135
        45           h44bf         1   UNL       h44        45     0.13527        1.0080 ; qtot   -0.000

[ bonds ]
;       ai        aj funct               r               k
         1         2     1        0.152101   202582.862524
         1        29     1        0.109345   303794.611621
         1        30     1        0.109345   303794.611621
         1        31     1        0.109345   303794.611621
         2         3     1        0.145204   162125.199023
         2        32     1        0.109214   304105.449316
         2        33     1        0.109214   304105.449316
         3         4     1        0.136327   219726.319873
         4         5     1        0.122024   622676.394238
         4         6     1        0.137242   279662.911523
         6         7     1        0.141077   249691.180957
         6        34     1        0.101213   417959.612549
         7         8     1        0.140491   285735.074316
         7        28     1        0.140355   286278.784912
         8         9     1        0.139575   319302.123438
         8        35     1        0.108360   325733.261377
         9        10     1        0.139731   309251.330078
         9        36     1        0.108631   319171.526660
        10        11     1        0.140096   293679.566895
        10        37     1        0.108630   318364.273096
        11        12     1        0.151531   196142.339697
        11        28     1        0.139731   303486.353174
        12        13     1        0.147619   169966.738745
        12        38     1        0.109007   307589.272852
        12        39     1        0.109007   307589.298389
        13        14     1        0.134329   260852.455518
        13        18     1        0.140843   163226.039966
        14        15     1        0.131532   385896.852393
        15        16     1        0.143758   228805.707129
        15        20     1        0.148335   209788.579297
        16        17     1        0.135943   427987.243750
        16        40     1        0.108511   322270.505957
        17        18     1        0.145315   222731.909961
        17        41     1        0.108453   327898.374121
        18        19     1        0.123473   582908.373145
        20        21     1        0.140422   291361.563477
        20        27     1        0.140422   291361.537939
        21        22     1        0.138920   313457.802734
        21        42     1        0.108416   325553.071533
        22        23     1        0.135453   293002.271680
        22        24     1        0.139184   305134.084082
        24        25     1        0.139184   305134.084082
        24        43     1        0.108383   329735.283936
        25        26     1        0.135453   293002.246143
        25        27     1        0.138920   313457.751660
        27        44     1        0.108416   325553.045996
        28        45     1        0.108461   322671.668408

[ angles ]
;       ai        aj        ak funct           theta             cth
         1         2         3     1      109.864281      650.101322
         1         2        32     1      111.580338      485.029574
         1         2        33     1      111.580338      485.029574
         2         1        29     1      110.404221      490.554273
         2         1        30     1      110.404221      490.554273
         2         1        31     1      110.404221      490.554273
         2         3         4     1      115.340927      601.488114
         3         2        32     1      107.256447      476.132190
         3         2        33     1      107.256447      476.132190
         3         4         5     1      124.830177      555.541555
         3         4         6     1      108.410423      534.760286
         4         6         7     1      128.496368      433.126389
         4         6        34     1      115.113892      499.355701
         5         4         6     1      127.095093      484.908273
         6         7         8     1      120.391090      602.044887
         6         7        28     1      119.737938      527.653787
         7         6        34     1      116.791542      436.596914
         7         8         9     1      119.465866      741.806614
         7         8        35     1      119.901962      450.433495
         7        28        11     1      120.550766      722.695279
         7        28        45     1      119.534073      433.123835
         8         7        28     1      119.522232      570.935900
         8         9        10     1      120.857605      697.544419
         8         9        36     1      119.193039      429.474838
         9         8        35     1      120.597885      402.264920
         9        10        11     1      119.728500      688.604515
         9        10        37     1      120.401230      427.768608
        10         9        36     1      119.915955      431.285100
        10        11        12     1      120.323288      507.628288
        10        11        28     1      119.764236      708.973871
        11        10        37     1      119.852127      389.013778
        11        12        13     1      112.023117      483.801974
        11        12        38     1      110.938492      460.951113
        11        12        39     1      110.938492      460.951113
        11        28        45     1      119.672874      376.808285
        12        11        28     1      119.897995      456.590811
        12        13        14     1      115.056007      530.634255
        12        13        18     1      118.386864      581.827413
        13        12        38     1      106.562515      548.029559
        13        12        39     1      106.562515      548.029559
        13        14        15     1      118.961220      469.877609
        13        18        17     1      113.384048      841.521301
        13        18        19     1      120.897690      657.687567
        14        13        18     1      126.285873      626.788622
        14        15        16     1      120.957664      605.734233
        14        15        20     1      116.403854      474.728415
        15        16        17     1      119.772232      754.938561
        15        16        40     1      119.792664      413.722815
        15        20        21     1      120.173340      502.618769
        15        20        27     1      120.173340      502.618769
        16        15        20     1      122.132950      560.325422
        16        17        18     1      120.825829      851.397586
        16        17        41     1      122.663757      418.560373
        17        16        40     1      120.435448      423.448112
        17        18        19     1      125.412392      492.999259
        18        17        41     1      116.227783      462.415251
        20        21        22     1      118.851624      676.766086
        20        21        42     1      121.437241      415.867102
        20        27        25     1      118.851624      676.766086
        20        27        44     1      121.437241      415.867102
        21        20        27     1      119.538841      609.508937
        21        22        23     1      118.631714      539.458986
        21        22        24     1      123.013466      615.042573
        22        21        42     1      119.635216      433.104523
        22        24        25     1      116.444824      693.663161
        22        24        43     1      121.754539      420.766843
        23        22        24     1      118.254990      546.814631
        24        25        26     1      118.254990      546.814568
        24        25        27     1      123.013451      615.042573
        25        24        43     1      121.754562      420.766843
        25        27        44     1      119.635216      433.104523
        26        25        27     1      118.631699      539.458986
        29         1        30     1      108.533691      362.240385
        29         1        31     1      108.533691      362.240385
        30         1        31     1      108.533691      362.240385
        32         2        33     1      108.859329      340.594812
        38        12        39     1      109.370117      342.663190

[ dihedrals ] ; propers for gromacs 4.5 or higher, use funct 9
;       ai        aj        ak        al funct           phase               k        pn
         1         2         3         4     9        0.000000       -1.770427         1
         1         2         3         4     9      180.000000       -0.455368         2
         1         2         3         4     9        0.000000        0.270999         3
         1         2         3         4     9      180.000000       -0.089951         4
         2         3         4         5     9        0.000000        1.074609         1
         2         3         4         5     9      180.000000        7.285038         2
         2         3         4         5     9        0.000000        0.054946         3
         2         3         4         5     9      180.000000       -0.020533         4
         2         3         4         6     9        0.000000       -1.414669         1
         2         3         4         6     9      180.000000        9.669190         2
         2         3         4         6     9        0.000000       -0.395593         3
         2         3         4         6     9      180.000000       -0.095211         4
         3         2         1        29     9        0.000000        0.134284         1
         3         2         1        29     9      180.000000        0.033565         2
         3         2         1        29     9        0.000000        0.548096         3
         3         2         1        29     9      180.000000        0.049045         4
         3         2         1        30     9        0.000000        0.134284         1
         3         2         1        30     9      180.000000        0.033565         2
         3         2         1        30     9        0.000000        0.548096         3
         3         2         1        30     9      180.000000        0.049045         4
         3         2         1        31     9        0.000000        0.134284         1
         3         2         1        31     9      180.000000        0.033565         2
         3         2         1        31     9        0.000000        0.548096         3
         3         2         1        31     9      180.000000        0.049045         4
         3         4         6         7     9        0.000000        0.177678         1
         3         4         6         7     9      180.000000        7.209008         2
         3         4         6         7     9        0.000000        0.192399         3
         3         4         6         7     9      180.000000       -0.524548         4
         3         4         6        34     9        0.000000        2.992785         1
         3         4         6        34     9      180.000000        8.801606         2
         3         4         6        34     9        0.000000       -0.229956         3
         3         4         6        34     9      180.000000        0.459841         4
         4         3         2        32     9        0.000000        0.698405         1
         4         3         2        32     9      180.000000        0.146532         2
         4         3         2        32     9        0.000000       -0.006942         3
         4         3         2        32     9      180.000000        0.066421         4
         4         3         2        33     9        0.000000        0.698405         1
         4         3         2        33     9      180.000000        0.146532         2
         4         3         2        33     9        0.000000       -0.006942         3
         4         3         2        33     9      180.000000        0.066421         4
         4         6         7         8     9        0.000000        0.121938         1
         4         6         7         8     9      180.000000        2.222778         2
         4         6         7         8     9        0.000000        0.006548         3
         4         6         7         8     9      180.000000        0.207499         4
         4         6         7        28     9        0.000000       -0.149088         1
         4         6         7        28     9      180.000000        2.276791         2
         4         6         7        28     9        0.000000       -0.008465         3
         4         6         7        28     9      180.000000        0.237952         4
         5         4         6         7     9        0.000000       -0.973987         1
         5         4         6         7     9      180.000000        7.249954         2
         5         4         6         7     9        0.000000       -0.187939         3
         5         4         6         7     9      180.000000       -0.801796         4
         5         4         6        34     9        0.000000       -0.336681         1
         5         4         6        34     9      180.000000        8.772429         2
         5         4         6        34     9        0.000000       -0.187879         3
         5         4         6        34     9      180.000000        0.314664         4
         6         7         8         9     9        0.000000        0.378666         1
         6         7         8         9     9      180.000000       17.180126         2
         6         7         8         9     9        0.000000        0.140305         3
         6         7         8         9     9      180.000000       -0.277352         4
         6         7         8        35     9        0.000000       -0.141439         1
         6         7         8        35     9      180.000000       13.710210         2
         6         7         8        35     9        0.000000       -0.198857         3
         6         7         8        35     9      180.000000        0.219108         4
         6         7        28        11     9        0.000000        0.338134         1
         6         7        28        11     9      180.000000       16.840760         2
         6         7        28        11     9        0.000000        0.112920         3
         6         7        28        11     9      180.000000       -0.353465         4
         6         7        28        45     9        0.000000       -0.135280         1
         6         7        28        45     9      180.000000       13.880462         2
         6         7        28        45     9        0.000000       -0.211342         3
         6         7        28        45     9      180.000000        0.213457         4
         7         8         9        10     9        0.000000       -0.025390         1
         7         8         9        10     9      180.000000       18.822545         2
         7         8         9        10     9        0.000000       -1.703958         3
         7         8         9        10     9      180.000000       -0.535316         4
         7         8         9        36     9        0.000000        0.067299         1
         7         8         9        36     9      180.000000       14.957107         2
         7         8         9        36     9        0.000000       -0.539988         3
         7         8         9        36     9      180.000000       -0.044223         4
         7        28        11        10     9        0.000000       -0.036723         1
         7        28        11        10     9      180.000000       18.416346         2
         7        28        11        10     9        0.000000       -1.490328         3
         7        28        11        10     9      180.000000       -0.455017         4
         7        28        11        12     9        0.000000        0.070659         1
         7        28        11        12     9      180.000000       15.716561         2
         7        28        11        12     9        0.000000       -0.270236         3
         7        28        11        12     9      180.000000       -0.316105         4
         8         7         6        34     9        0.000000        0.086473         1
         8         7         6        34     9      180.000000        3.027550         2
         8         7         6        34     9        0.000000        0.124890         3
         8         7         6        34     9      180.000000        0.152287         4
         8         7        28        11     9        0.000000        0.065693         1
         8         7        28        11     9      180.000000       15.576780         2
         8         7        28        11     9        0.000000       -0.898087         3
         8         7        28        11     9      180.000000       -0.165385         4
         8         7        28        45     9        0.000000        0.290892         1
         8         7        28        45     9      180.000000       12.706523         2
         8         7        28        45     9        0.000000       -0.427875         3
         8         7        28        45     9      180.000000        0.096478         4
         8         9        10        11     9        0.000000        0.151668         1
         8         9        10        11     9      180.000000       18.079224         2
         8         9        10        11     9        0.000000       -1.376472         3
         8         9        10        11     9      180.000000       -0.432841         4
         8         9        10        37     9        0.000000        0.243982         1
         8         9        10        37     9      180.000000       14.181026         2
         8         9        10        37     9        0.000000       -0.723026         3
         8         9        10        37     9      180.000000        0.086763         4
         9         8         7        28     9        0.000000        0.062350         1
         9         8         7        28     9      180.000000       16.418491         2
         9         8         7        28     9        0.000000       -0.912932         3
         9         8         7        28     9      180.000000       -0.148838         4
         9        10        11        12     9        0.000000        0.069777         1
         9        10        11        12     9      180.000000       15.936979         2
         9        10        11        12     9        0.000000       -0.376195         3
         9        10        11        12     9      180.000000       -0.263388         4
         9        10        11        28     9        0.000000       -0.094665         1
         9        10        11        28     9      180.000000       18.779954         2
         9        10        11        28     9        0.000000       -1.294816         3
         9        10        11        28     9      180.000000       -0.461005         4
        10         9         8        35     9        0.000000        0.032159         1
        10         9         8        35     9      180.000000       14.868730         2
        10         9         8        35     9        0.000000       -0.647140         3
        10         9         8        35     9      180.000000        0.129673         4
        10        11        12        13     9        0.000000        0.128582         1
        10        11        12        13     9      180.000000        0.319489         2
        10        11        12        13     9        0.000000        0.081427         3
        10        11        12        13     9      180.000000        0.036435         4
        10        11        12        38     9        0.000000       -0.036886         1
        10        11        12        38     9      180.000000       -0.039265         2
        10        11        12        38     9        0.000000       -0.015137         3
        10        11        12        38     9      180.000000        0.013817         4
        10        11        12        39     9        0.000000       -0.036886         1
        10        11        12        39     9      180.000000       -0.039265         2
        10        11        12        39     9        0.000000       -0.015137         3
        10        11        12        39     9      180.000000        0.013817         4
        10        11        28        45     9        0.000000       -0.118922         1
        10        11        28        45     9      180.000000       14.515208         2
        10        11        28        45     9        0.000000       -0.591368         3
        10        11        28        45     9      180.000000        0.050299         4
        11        10         9        36     9        0.000000        0.099063         1
        11        10         9        36     9      180.000000       14.544110         2
        11        10         9        36     9        0.000000       -0.666533         3
        11        10         9        36     9      180.000000        0.082491         4
        11        12        13        14     9        0.000000       -2.273917         1
        11        12        13        14     9      180.000000       -0.763368         2
        11        12        13        14     9        0.000000        0.236154         3
        11        12        13        14     9      180.000000       -0.048073         4
        11        12        13        18     9        0.000000       -0.315152         1
        11        12        13        18     9      180.000000       -1.899920         2
        11        12        13        18     9        0.000000        0.531794         3
        11        12        13        18     9      180.000000       -0.262816         4
        12        11        10        37     9        0.000000       -0.070524         1
        12        11        10        37     9      180.000000       12.958783         2
        12        11        10        37     9        0.000000       -0.468655         3
        12        11        10        37     9      180.000000        0.126129         4
        12        11        28        45     9        0.000000       -0.233019         1
        12        11        28        45     9      180.000000       13.139679         2
        12        11        28        45     9        0.000000       -0.569465         3
        12        11        28        45     9      180.000000        0.090550         4
        12        13        14        15     9        0.000000        2.124238         1
        12        13        14        15     9      180.000000       14.344748         2
        12        13        14        15     9        0.000000        0.850143         3
        12        13        14        15     9      180.000000       -0.499688         4
        12        13        18        17     9        0.000000        0.744818         1
        12        13        18        17     9      180.000000        9.254883         2
        12        13        18        17     9        0.000000        0.505207         3
        12        13        18        17     9      180.000000       -0.194692         4
        12        13        18        19     9        0.000000       -0.191359         1
        12        13        18        19     9      180.000000       10.139810         2
        12        13        18        19     9        0.000000       -1.043406         3
        12        13        18        19     9      180.000000        0.091597         4
        13        12        11        28     9        0.000000       -0.180935         1
        13        12        11        28     9      180.000000        0.462648         2
        13        12        11        28     9        0.000000        0.039518         3
        13        12        11        28     9      180.000000        0.023771         4
        13        14        15        16     9        0.000000       -0.095195         1
        13        14        15        16     9      180.000000       35.957180         2
        13        14        15        16     9        0.000000       -0.620289         3
        13        14        15        16     9      180.000000       -1.050184         4
        13        14        15        20     9        0.000000       -0.084948         1
        13        14        15        20     9      180.000000       34.972014         2
        13        14        15        20     9        0.000000        1.945584         3
        13        14        15        20     9      180.000000       -1.589659         4
        13        18        17        16     9        0.000000        1.364779         1
        13        18        17        16     9      180.000000        2.014246         2
        13        18        17        16     9        0.000000        0.435102         3
        13        18        17        16     9      180.000000        0.007037         4
        13        18        17        41     9        0.000000        0.158353         1
        13        18        17        41     9      180.000000        4.595400         2
        13        18        17        41     9        0.000000       -0.019784         3
        13        18        17        41     9      180.000000        0.196144         4
        14        13        12        38     9        0.000000        0.295604         1
        14        13        12        38     9      180.000000        0.076290         2
        14        13        12        38     9        0.000000        0.014238         3
        14        13        12        38     9      180.000000        0.085131         4
        14        13        12        39     9        0.000000        0.295604         1
        14        13        12        39     9      180.000000        0.076290         2
        14        13        12        39     9        0.000000        0.014238         3
        14        13        12        39     9      180.000000        0.085131         4
        14        13        18        17     9        0.000000        1.359758         1
        14        13        18        17     9      180.000000        2.455735         2
        14        13        18        17     9        0.000000        0.532356         3
        14        13        18        17     9      180.000000        0.115454         4
        14        13        18        19     9        0.000000       -0.191705         1
        14        13        18        19     9      180.000000        9.009476         2
        14        13        18        19     9        0.000000       -0.415666         3
        14        13        18        19     9      180.000000       -0.488867         4
        14        15        16        17     9        0.000000       -0.206460         1
        14        15        16        17     9      180.000000       12.226660         2
        14        15        16        17     9        0.000000       -0.564200         3
        14        15        16        17     9      180.000000       -0.418999         4
        14        15        16        40     9        0.000000        0.005072         1
        14        15        16        40     9      180.000000        9.301369         2
        14        15        16        40     9        0.000000       -0.286036         3
        14        15        16        40     9      180.000000       -0.092564         4
        14        15        20        21     9        0.000000       -0.217068         1
        14        15        20        21     9      180.000000        3.789456         2
        14        15        20        21     9        0.000000        0.058358         3
        14        15        20        21     9      180.000000        0.006680         4
        14        15        20        27     9        0.000000       -0.217067         1
        14        15        20        27     9      180.000000        3.789456         2
        14        15        20        27     9        0.000000        0.058358         3
        14        15        20        27     9      180.000000        0.006680         4
        15        14        13        18     9        0.000000        2.064315         1
        15        14        13        18     9      180.000000        8.395512         2
        15        14        13        18     9        0.000000        0.337796         3
        15        14        13        18     9      180.000000       -0.016133         4
        15        16        17        18     9        0.000000       -0.116202         1
        15        16        17        18     9      180.000000       21.080768         2
        15        16        17        18     9        0.000000       -0.986321         3
        15        16        17        18     9      180.000000       -0.634462         4
        15        16        17        41     9        0.000000       -0.069936         1
        15        16        17        41     9      180.000000       17.292472         2
        15        16        17        41     9        0.000000       -0.374657         3
        15        16        17        41     9      180.000000       -0.069790         4
        15        20        21        22     9        0.000000        0.230762         1
        15        20        21        22     9      180.000000       16.209562         2
        15        20        21        22     9        0.000000       -0.089588         3
        15        20        21        22     9      180.000000       -0.387375         4
        15        20        21        42     9        0.000000       -0.081645         1
        15        20        21        42     9      180.000000       12.448686         2
        15        20        21        42     9        0.000000       -0.389032         3
        15        20        21        42     9      180.000000        0.225184         4
        15        20        27        25     9        0.000000        0.230763         1
        15        20        27        25     9      180.000000       16.209562         2
        15        20        27        25     9        0.000000       -0.089588         3
        15        20        27        25     9      180.000000       -0.387374         4
        15        20        27        44     9        0.000000       -0.081645         1
        15        20        27        44     9      180.000000       12.448684         2
        15        20        27        44     9        0.000000       -0.389032         3
        15        20        27        44     9      180.000000        0.225185         4
        16        15        20        21     9        0.000000        0.162649         1
        16        15        20        21     9      180.000000        3.891274         2
        16        15        20        21     9        0.000000        0.150493         3
        16        15        20        21     9      180.000000       -0.119046         4
        16        15        20        27     9        0.000000        0.162649         1
        16        15        20        27     9      180.000000        3.891274         2
        16        15        20        27     9        0.000000        0.150493         3
        16        15        20        27     9      180.000000       -0.119046         4
        16        17        18        19     9        0.000000        0.373567         1
        16        17        18        19     9      180.000000        6.488703         2
        16        17        18        19     9        0.000000        0.040900         3
        16        17        18        19     9      180.000000       -0.219160         4
        17        16        15        20     9        0.000000        0.033405         1
        17        16        15        20     9      180.000000       12.689562         2
        17        16        15        20     9        0.000000       -0.240009         3
        17        16        15        20     9      180.000000       -0.455245         4
        18        13        12        38     9        0.000000       -0.051329         1
        18        13        12        38     9      180.000000        0.142959         2
        18        13        12        38     9        0.000000        0.143771         3
        18        13        12        38     9      180.000000        0.113206         4
        18        13        12        39     9        0.000000       -0.051329         1
        18        13        12        39     9      180.000000        0.142959         2
        18        13        12        39     9        0.000000        0.143771         3
        18        13        12        39     9      180.000000        0.113206         4
        18        17        16        40     9        0.000000        0.380985         1
        18        17        16        40     9      180.000000       17.184468         2
        18        17        16        40     9        0.000000       -0.152610         3
        18        17        16        40     9      180.000000       -0.094194         4
        19        18        17        41     9        0.000000       -1.098767         1
        19        18        17        41     9      180.000000        8.614287         2
        19        18        17        41     9        0.000000       -0.424066         3
        19        18        17        41     9      180.000000       -0.304321         4
        20        15        16        40     9        0.000000        0.013891         1
        20        15        16        40     9      180.000000       11.598305         2
        20        15        16        40     9        0.000000       -0.325133         3
        20        15        16        40     9      180.000000        0.059480         4
        20        21        22        23     9        0.000000        0.430936         1
        20        21        22        23     9      180.000000       23.370774         2
        20        21        22        23     9        0.000000        0.760673         3
        20        21        22        23     9      180.000000       -0.889889         4
        20        21        22        24     9        0.000000        0.038045         1
        20        21        22        24     9      180.000000       17.837120         2
        20        21        22        24     9        0.000000       -1.166641         3
        20        21        22        24     9      180.000000       -0.381872         4
        20        27        25        24     9        0.000000        0.038045         1
        20        27        25        24     9      180.000000       17.837118         2
        20        27        25        24     9        0.000000       -1.166641         3
        20        27        25        24     9      180.000000       -0.381871         4
        20        27        25        26     9        0.000000        0.430936         1
        20        27        25        26     9      180.000000       23.370774         2
        20        27        25        26     9        0.000000        0.760672         3
        20        27        25        26     9      180.000000       -0.889889         4
        21        20        27        25     9        0.000000       -0.342302         1
        21        20        27        25     9      180.000000       18.810098         2
        21        20        27        25     9        0.000000       -1.588451         3
        21        20        27        25     9      180.000000       -0.363249         4
        21        20        27        44     9        0.000000       -0.052324         1
        21        20        27        44     9      180.000000       13.948479         2
        21        20        27        44     9        0.000000       -0.577384         3
        21        20        27        44     9      180.000000        0.093952         4
        21        22        24        25     9        0.000000       -0.143238         1
        21        22        24        25     9      180.000000       17.087450         2
        21        22        24        25     9        0.000000       -1.147459         3
        21        22        24        25     9      180.000000       -0.384531         4
        21        22        24        43     9        0.000000        0.098565         1
        21        22        24        43     9      180.000000       12.433916         2
        21        22        24        43     9        0.000000       -0.442854         3
        21        22        24        43     9      180.000000        0.130980         4
        22        21        20        27     9        0.000000       -0.342302         1
        22        21        20        27     9      180.000000       18.810096         2
        22        21        20        27     9        0.000000       -1.588451         3
        22        21        20        27     9      180.000000       -0.363249         4
        22        24        25        26     9        0.000000        0.347297         1
        22        24        25        26     9      180.000000       23.388429         2
        22        24        25        26     9        0.000000        0.623001         3
        22        24        25        26     9      180.000000       -0.798052         4
        22        24        25        27     9        0.000000       -0.143237         1
        22        24        25        27     9      180.000000       17.087450         2
        22        24        25        27     9        0.000000       -1.147458         3
        22        24        25        27     9      180.000000       -0.384531         4
        23        22        21        42     9        0.000000        0.333425         1
        23        22        21        42     9      180.000000       16.367777         2
        23        22        21        42     9        0.000000        0.313595         3
        23        22        21        42     9      180.000000        0.089407         4
        23        22        24        25     9        0.000000        0.347297         1
        23        22        24        25     9      180.000000       23.388429         2
        23        22        24        25     9        0.000000        0.623001         3
        23        22        24        25     9      180.000000       -0.798052         4
        23        22        24        43     9        0.000000        0.299382         1
        23        22        24        43     9      180.000000       15.175831         2
        23        22        24        43     9        0.000000        0.237321         3
        23        22        24        43     9      180.000000        0.215427         4
        24        22        21        42     9        0.000000        0.126935         1
        24        22        21        42     9      180.000000       13.436919         2
        24        22        21        42     9        0.000000       -0.581726         3
        24        22        21        42     9      180.000000        0.110637         4
        24        25        27        44     9        0.000000        0.126936         1
        24        25        27        44     9      180.000000       13.436919         2
        24        25        27        44     9        0.000000       -0.581726         3
        24        25        27        44     9      180.000000        0.110636         4
        26        25        24        43     9        0.000000        0.299383         1
        26        25        24        43     9      180.000000       15.175831         2
        26        25        24        43     9        0.000000        0.237322         3
        26        25        24        43     9      180.000000        0.215426         4
        26        25        27        44     9        0.000000        0.333425         1
        26        25        27        44     9      180.000000       16.367779         2
        26        25        27        44     9        0.000000        0.313595         3
        26        25        27        44     9      180.000000        0.089406         4
        27        20        21        42     9        0.000000       -0.052323         1
        27        20        21        42     9      180.000000       13.948481         2
        27        20        21        42     9        0.000000       -0.577384         3
        27        20        21        42     9      180.000000        0.093952         4
        27        25        24        43     9        0.000000        0.098564         1
        27        25        24        43     9      180.000000       12.433917         2
        27        25        24        43     9        0.000000       -0.442854         3
        27        25        24        43     9      180.000000        0.130980         4
        28         7         6        34     9        0.000000        0.349025         1
        28         7         6        34     9      180.000000        3.102349         2
        28         7         6        34     9        0.000000        0.125122         3
        28         7         6        34     9      180.000000        0.097724         4
        28         7         8        35     9        0.000000        0.209886         1
        28         7         8        35     9      180.000000       13.059901         2
        28         7         8        35     9        0.000000       -0.423354         3
        28         7         8        35     9      180.000000        0.141881         4
        28        11        10        37     9        0.000000        0.079575         1
        28        11        10        37     9      180.000000       14.389485         2
        28        11        10        37     9        0.000000       -0.562172         3
        28        11        10        37     9      180.000000       -0.030429         4
        28        11        12        38     9        0.000000        0.005351         1
        28        11        12        38     9      180.000000       -0.002592         2
        28        11        12        38     9        0.000000       -0.032576         3
        28        11        12        38     9      180.000000        0.019840         4
        28        11        12        39     9        0.000000        0.005351         1
        28        11        12        39     9      180.000000       -0.002592         2
        28        11        12        39     9        0.000000       -0.032576         3
        28        11        12        39     9      180.000000        0.019840         4
        29         1         2        32     9        0.000000       -0.055428         1
        29         1         2        32     9      180.000000        0.033534         2
        29         1         2        32     9        0.000000        0.603498         3
        29         1         2        32     9      180.000000        0.011406         4
        29         1         2        33     9        0.000000       -0.055428         1
        29         1         2        33     9      180.000000        0.033534         2
        29         1         2        33     9        0.000000        0.603498         3
        29         1         2        33     9      180.000000        0.011406         4
        30         1         2        32     9        0.000000       -0.055428         1
        30         1         2        32     9      180.000000        0.033534         2
        30         1         2        32     9        0.000000        0.603498         3
        30         1         2        32     9      180.000000        0.011406         4
        30         1         2        33     9        0.000000       -0.055428         1
        30         1         2        33     9      180.000000        0.033534         2
        30         1         2        33     9        0.000000        0.603498         3
        30         1         2        33     9      180.000000        0.011406         4
        31         1         2        32     9        0.000000       -0.055428         1
        31         1         2        32     9      180.000000        0.033534         2
        31         1         2        32     9        0.000000        0.603498         3
        31         1         2        32     9      180.000000        0.011406         4
        31         1         2        33     9        0.000000       -0.055428         1
        31         1         2        33     9      180.000000        0.033534         2
        31         1         2        33     9        0.000000        0.603498         3
        31         1         2        33     9      180.000000        0.011406         4
        35         8         9        36     9        0.000000       -0.114464         1
        35         8         9        36     9      180.000000       11.958662         2
        35         8         9        36     9        0.000000       -0.636112         3
        35         8         9        36     9      180.000000        0.259580         4
        36         9        10        37     9        0.000000       -0.091782         1
        36         9        10        37     9      180.000000       11.699855         2
        36         9        10        37     9        0.000000       -0.599152         3
        36         9        10        37     9      180.000000        0.243487         4
        40        16        17        41     9        0.000000       -0.176224         1
        40        16        17        41     9      180.000000       14.412884         2
        40        16        17        41     9        0.000000       -0.511875         3
        40        16        17        41     9      180.000000        0.397892         4

[ dihedrals ] ; impropers
;       ai        aj        ak        al funct           phase               k        pn
         4         3         5         6     4      180.000000       27.893333         2
         4         5         6         3     4      180.000000       27.893333         2
         4         6         3         5     4      180.000000       27.893333         2
         9         8        10        36     4      180.000000        2.102397         2
         9        10        36         8     4      180.000000        2.102397         2
         9        36         8        10     4      180.000000        2.102397         2
        10         9        11        37     4      180.000000        0.946454         2
        10        11        37         9     4      180.000000        0.946454         2
        10        37         9        11     4      180.000000        0.946454         2
        18        13        17        19     4      180.000000       27.780523         2
        18        17        19        13     4      180.000000       27.780523         2
        18        19        13        17     4      180.000000       27.780523         2
        22        21        23        24     4      180.000000        1.595243         2
        22        23        24        21     4      180.000000        1.595243         2
        22        24        21        23     4      180.000000        1.595243         2
        25        24        26        27     4      180.000000        1.595243         2
        25        26        27        24     4      180.000000        1.595243         2
        25        27        24        26     4      180.000000        1.595243         2
        28         7        11        45     4      180.000000        0.655459         2
        28        11        45         7     4      180.000000        0.655459         2
        28        45         7        11     4      180.000000        0.655459         2

[ pairs ]
;       ai        aj funct
         1         4     1
         2         5     1
         2         6     1
         3         7     1
         3        29     1
         3        30     1
         3        31     1
         3        34     1
         4         8     1
         4        28     1
         4        32     1
         4        33     1
         5         7     1
         5        34     1
         6         9     1
         6        11     1
         6        35     1
         6        45     1
         7        10     1
         7        12     1
         7        36     1
         8        11     1
         8        34     1
         8        37     1
         8        45     1
         9        12     1
         9        28     1
        10        13     1
        10        35     1
        10        38     1
        10        39     1
        10        45     1
        11        14     1
        11        18     1
        11        36     1
        12        15     1
        12        17     1
        12        19     1
        12        37     1
        12        45     1
        13        16     1
        13        20     1
        13        28     1
        13        41     1
        14        17     1
        14        19     1
        14        21     1
        14        27     1
        14        38     1
        14        39     1
        14        40     1
        15        18     1
        15        22     1
        15        25     1
        15        41     1
        15        42     1
        15        44     1
        16        19     1
        16        21     1
        16        27     1
        17        20     1
        18        38     1
        18        39     1
        18        40     1
        19        41     1
        20        23     1
        20        24     1
        20        26     1
        20        40     1
        21        25     1
        21        43     1
        21        44     1
        22        26     1
        22        27     1
        23        25     1
        23        42     1
        23        43     1
        24        42     1
        24        44     1
        26        43     1
        26        44     1
        27        42     1
        27        43     1
        28        34     1
        28        35     1
        28        37     1
        28        38     1
        28        39     1
        29        32     1
        29        33     1
        30        32     1
        30        33     1
        31        32     1
        31        33     1
        35        36     1
        36        37     1
        40        41     1
