; ITP file created by ByteFF-ML, 2026-02-21 07:36:47.249379

[ atomtypes ]
;name           bonded.type        at.num        mass        charge   ptype           sigma         epsilon
 c0bf                                   6      0.0000       0.00000       A     3.39796e-01     4.51000e-01
 c1bf                                   6      0.0000       0.00000       A     3.31535e-01     4.12932e-01
 c2bf                                   6      0.0000       0.00000       A     3.31467e-01     4.12593e-01
 s3bf                                  16      0.0000       0.00000       A     3.53277e-01     1.18163e+00
 c4bf                                   6      0.0000       0.00000       A     3.31420e-01     4.14423e-01
 n5bf                                   7      0.0000       0.00000       A     3.38484e-01     3.92912e-01
 c6bf                                   6      0.0000       0.00000       A     3.31569e-01     4.11795e-01
 c7bf                                   6      0.0000       0.00000       A     3.31515e-01     4.12495e-01
 c8bf                                   6      0.0000       0.00000       A     3.31467e-01     4.13417e-01
 c9bf                                   6      0.0000       0.00000       A     3.31490e-01     4.12767e-01
 c10bf                                  6      0.0000       0.00000       A     3.31635e-01     4.14372e-01
 c11bf                                  6      0.0000       0.00000       A     3.39533e-01     4.50082e-01
 n12bf                                  7      0.0000       0.00000       A     3.18016e-01     6.86340e-01
 n13bf                                  7      0.0000       0.00000       A     3.38457e-01     3.91292e-01
 c14bf                                  6      0.0000       0.00000       A     3.31419e-01     4.13091e-01
 c15bf                                  6      0.0000       0.00000       A     3.31509e-01     4.14763e-01
 c16bf                                  6      0.0000       0.00000       A     3.31666e-01     4.12836e-01
 c17bf                                  6      0.0000       0.00000       A     3.31738e-01     4.11199e-01
 o18bf                                  8      0.0000       0.00000       A     3.04772e-01     6.11569e-01
 c19bf                                  6      0.0000       0.00000       A     3.31228e-01     4.12705e-01
 c20bf                                  6      0.0000       0.00000       A     3.31578e-01     4.12539e-01
 c21bf                                  6      0.0000       0.00000       A     3.31521e-01     4.13725e-01
 f22bf                                  9      0.0000       0.00000       A     3.03463e-01     3.48447e-01
 c23bf                                  6      0.0000       0.00000       A     3.31577e-01     4.12654e-01
 c24bf                                  6      0.0000       0.00000       A     3.31521e-01     4.13725e-01
 f25bf                                  9      0.0000       0.00000       A     3.03463e-01     3.48447e-01
 c26bf                                  6      0.0000       0.00000       A     3.31578e-01     4.12539e-01
 c27bf                                  6      0.0000       0.00000       A     3.31426e-01     4.13355e-01
 h28bf                                  1      0.0000       0.00000       A     2.60028e-01     8.72683e-02
 h29bf                                  1      0.0000       0.00000       A     2.60028e-01     8.72683e-02
 h30bf                                  1      0.0000       0.00000       A     2.60028e-01     8.72683e-02
 h31bf                                  1      0.0000       0.00000       A     2.54266e-01     6.69631e-02
 h32bf                                  1      0.0000       0.00000       A     2.62545e-01     6.76446e-02
 h33bf                                  1      0.0000       0.00000       A     2.62496e-01     6.74180e-02
 h34bf                                  1      0.0000       0.00000       A     2.62513e-01     6.77228e-02
 h35bf                                  1      0.0000       0.00000       A     2.41782e-01     8.82882e-02
 h36bf                                  1      0.0000       0.00000       A     2.41782e-01     8.82882e-02
 h37bf                                  1      0.0000       0.00000       A     2.62454e-01     6.74499e-02
 h38bf                                  1      0.0000       0.00000       A     2.62620e-01     6.80388e-02
 h39bf                                  1      0.0000       0.00000       A     2.62504e-01     6.74483e-02
 h40bf                                  1      0.0000       0.00000       A     2.62457e-01     6.72600e-02
 h41bf                                  1      0.0000       0.00000       A     2.62504e-01     6.74483e-02
 h42bf                                  1      0.0000       0.00000       A     2.62553e-01     6.79654e-02

[ moleculetype ]
;name             nrexcl
 CHEMBL3402751_2100       3

[ atoms ]
;       nr            type      resi   res      atom      cgnr      charge          mass ; qtot
         1            c0bf         1   UNL        c0         1    -0.11961       12.0110 ; qtot   -0.120
         2            c1bf         1   UNL        c1         2     0.29717       12.0110 ; qtot    0.178
         3            c2bf         1   UNL        c2         3    -0.25312       12.0110 ; qtot   -0.076
         4            s3bf         1   UNL        s3         4    -0.07287       32.0670 ; qtot   -0.148
         5            c4bf         1   UNL        c4         5     0.51426       12.0110 ; qtot    0.366
         6            n5bf         1   UNL        n5         6    -0.65054       14.0070 ; qtot   -0.285
         7            c6bf         1   UNL        c6         7    -0.13908       12.0110 ; qtot   -0.424
         8            c7bf         1   UNL        c7         8    -0.07882       12.0110 ; qtot   -0.503
         9            c8bf         1   UNL        c8         9    -0.11312       12.0110 ; qtot   -0.616
        10            c9bf         1   UNL        c9        10    -0.07973       12.0110 ; qtot   -0.695
        11           c10bf         1   UNL       c10        11    -0.12798       12.0110 ; qtot   -0.823
        12           c11bf         1   UNL       c11        12     0.15858       12.0110 ; qtot   -0.665
        13           n12bf         1   UNL       n12        13    -0.13332       14.0070 ; qtot   -0.798
        14           n13bf         1   UNL       n13        14    -0.41361       14.0070 ; qtot   -1.212
        15           c14bf         1   UNL       c14        15     0.38382       12.0110 ; qtot   -0.828
        16           c15bf         1   UNL       c15        16    -0.20483       12.0110 ; qtot   -1.033
        17           c16bf         1   UNL       c16        17    -0.27047       12.0110 ; qtot   -1.303
        18           c17bf         1   UNL       c17        18     0.53165       12.0110 ; qtot   -0.772
        19           o18bf         1   UNL       o18        19    -0.53905       15.9990 ; qtot   -1.311
        20           c19bf         1   UNL       c19        20    -0.06260       12.0110 ; qtot   -1.373
        21           c20bf         1   UNL       c20        21    -0.13315       12.0110 ; qtot   -1.506
        22           c21bf         1   UNL       c21        22     0.18511       12.0110 ; qtot   -1.321
        23           f22bf         1   UNL       f22        23    -0.17136       18.9980 ; qtot   -1.493
        24           c23bf         1   UNL       c23        24    -0.17623       12.0110 ; qtot   -1.669
        25           c24bf         1   UNL       c24        25     0.18511       12.0110 ; qtot   -1.484
        26           f25bf         1   UNL       f25        26    -0.17136       18.9980 ; qtot   -1.655
        27           c26bf         1   UNL       c26        27    -0.13315       12.0110 ; qtot   -1.788
        28           c27bf         1   UNL       c27        28    -0.05206       12.0110 ; qtot   -1.840
        29           h28bf         1   UNL       h28        29     0.05239        1.0080 ; qtot   -1.788
        30           h29bf         1   UNL       h29        30     0.05239        1.0080 ; qtot   -1.736
        31           h30bf         1   UNL       h30        31     0.05239        1.0080 ; qtot   -1.683
        32           h31bf         1   UNL       h31        32     0.15990        1.0080 ; qtot   -1.523
        33           h32bf         1   UNL       h32        33     0.12542        1.0080 ; qtot   -1.398
        34           h33bf         1   UNL       h33        34     0.11846        1.0080 ; qtot   -1.279
        35           h34bf         1   UNL       h34        35     0.12344        1.0080 ; qtot   -1.156
        36           h35bf         1   UNL       h35        36     0.08022        1.0080 ; qtot   -1.076
        37           h36bf         1   UNL       h36        37     0.08022        1.0080 ; qtot   -0.996
        38           h37bf         1   UNL       h37        38     0.20036        1.0080 ; qtot   -0.795
        39           h38bf         1   UNL       h38        39     0.21660        1.0080 ; qtot   -0.579
        40           h39bf         1   UNL       h39        40     0.14507        1.0080 ; qtot   -0.434
        41           h40bf         1   UNL       h40        41     0.15622        1.0080 ; qtot   -0.277
        42           h41bf         1   UNL       h41        42     0.14507        1.0080 ; qtot   -0.132
        43           h42bf         1   UNL       h42        43     0.13221        1.0080 ; qtot   -0.000

[ bonds ]
;       ai        aj funct               r               k
         1         2     1        0.150094   219179.085156
         1        29     1        0.109362   303604.717676
         1        30     1        0.109362   303604.717676
         1        31     1        0.109362   303604.717676
         2         3     1        0.137155   369480.219482
         2         6     1        0.137963   240531.326270
         3         4     1        0.173402   170249.830371
         3        32     1        0.108147   341945.010059
         4         5     1        0.176723    98381.701099
         5         6     1        0.131156   378327.167969
         5         7     1        0.146868   221418.255518
         7         8     1        0.140639   288239.600781
         7        28     1        0.140442   288847.767041
         8         9     1        0.139486   319357.232520
         8        33     1        0.108486   322189.374561
         9        10     1        0.139794   308293.892773
         9        34     1        0.108625   319578.307275
        10        11     1        0.140164   292187.127148
        10        35     1        0.108639   318468.438965
        11        12     1        0.151533   196152.503467
        11        28     1        0.139698   302365.018701
        12        13     1        0.147609   170063.639307
        12        36     1        0.109005   307731.029346
        12        37     1        0.109005   307731.029346
        13        14     1        0.134329   260852.455518
        13        18     1        0.140843   163226.039966
        14        15     1        0.131532   385896.852393
        15        16     1        0.143758   228805.707129
        15        20     1        0.148335   209788.579297
        16        17     1        0.135943   427987.243750
        16        38     1        0.108511   322270.505957
        17        18     1        0.145315   222731.909961
        17        39     1        0.108453   327898.374121
        18        19     1        0.123473   582908.373145
        20        21     1        0.140422   291361.563477
        20        27     1        0.140422   291361.537939
        21        22     1        0.138920   313457.802734
        21        40     1        0.108416   325553.071533
        22        23     1        0.135453   293002.246143
        22        24     1        0.139184   305134.084082
        24        25     1        0.139184   305134.084082
        24        41     1        0.108383   329735.283936
        25        26     1        0.135453   293002.246143
        25        27     1        0.138920   313457.751660
        27        42     1        0.108416   325553.045996
        28        43     1        0.108527   320667.694824

[ angles ]
;       ai        aj        ak funct           theta             cth
         1         2         3     1      126.330063      421.073352
         1         2         6     1      119.126907      466.845014
         2         1        29     1      110.723610      495.752319
         2         1        30     1      110.723610      495.752319
         2         1        31     1      110.723610      495.752319
         2         3         4     1      110.761765      167.360000
         2         3        32     1      128.249908      357.634544
         2         6         5     1      112.172096      345.941102
         3         2         6     1      114.546494      274.651388
         3         4         5     1       89.070534      167.360000
         4         3        32     1      121.025620      350.966549
         4         5         6     1      113.389450      167.360000
         4         5         7     1      122.565979      410.594902
         5         7         8     1      120.538742      517.087233
         5         7        28     1      120.386208      457.073973
         6         5         7     1      123.931503      387.641158
         7         8         9     1      120.006363      691.773096
         7         8        33     1      119.692970      436.978407
         7        28        11     1      120.839951      686.859182
         7        28        43     1      119.215797      419.241512
         8         7        28     1      119.107643      645.718260
         8         9        10     1      120.379074      720.080216
         8         9        34     1      119.759018      436.444202
         9         8        33     1      120.223610      423.143167
         9        10        11     1      120.129288      695.485681
         9        10        35     1      120.189346      423.092635
        10         9        34     1      119.934303      433.256213
        10        11        12     1      120.322006      510.421346
        10        11        28     1      119.390457      729.593172
        11        10        35     1      119.709030      387.323062
        11        12        13     1      112.027588      482.232048
        11        12        36     1      110.921669      460.224582
        11        12        37     1      110.921669      460.224582
        11        28        43     1      119.417252      385.290563
        12        11        28     1      120.223228      463.064149
        12        13        14     1      115.048035      530.742085
        12        13        18     1      118.386681      582.385399
        13        12        36     1      106.576157      547.884572
        13        12        37     1      106.576157      547.884572
        13        14        15     1      118.961220      469.877609
        13        18        17     1      113.384048      841.521301
        13        18        19     1      120.897690      657.687567
        14        13        18     1      126.285873      626.788622
        14        15        16     1      120.957664      605.734233
        14        15        20     1      116.403854      474.728415
        15        16        17     1      119.772232      754.938561
        15        16        38     1      119.792664      413.722815
        15        20        21     1      120.173340      502.618769
        15        20        27     1      120.173340      502.618769
        16        15        20     1      122.132950      560.325422
        16        17        18     1      120.825829      851.397586
        16        17        39     1      122.663757      418.560373
        17        16        38     1      120.435448      423.448112
        17        18        19     1      125.412392      492.999259
        18        17        39     1      116.227783      462.415251
        20        21        22     1      118.851624      676.766086
        20        21        40     1      121.437241      415.867102
        20        27        25     1      118.851624      676.766086
        20        27        42     1      121.437241      415.867102
        21        20        27     1      119.538841      609.508937
        21        22        23     1      118.631714      539.458986
        21        22        24     1      123.013466      615.042573
        22        21        40     1      119.635216      433.104523
        22        24        25     1      116.444824      693.663161
        22        24        41     1      121.754539      420.766843
        23        22        24     1      118.254990      546.814568
        24        25        26     1      118.254990      546.814568
        24        25        27     1      123.013451      615.042573
        25        24        41     1      121.754562      420.766843
        25        27        42     1      119.635216      433.104523
        26        25        27     1      118.631699      539.458986
        29         1        30     1      108.242859      360.762585
        29         1        31     1      108.242859      360.762616
        30         1        31     1      108.242859      360.762616
        36        12        37     1      109.373024      342.641420

[ dihedrals ] ; propers for gromacs 4.5 or higher, use funct 9
;       ai        aj        ak        al funct           phase               k        pn
         1         2         3         4     9        0.000000        0.786571         1
         1         2         3         4     9      180.000000       20.561487         2
         1         2         3         4     9        0.000000        0.707457         3
         1         2         3         4     9      180.000000       -1.565866         4
         1         2         3        32     9        0.000000       -0.101341         1
         1         2         3        32     9      180.000000       13.406801         2
         1         2         3        32     9        0.000000        0.046378         3
         1         2         3        32     9      180.000000        0.009657         4
         1         2         6         5     9        0.000000        0.627611         1
         1         2         6         5     9      180.000000       22.640758         2
         1         2         6         5     9        0.000000        1.203772         3
         1         2         6         5     9      180.000000       -0.739833         4
         2         3         4         5     9        0.000000       -0.458009         1
         2         3         4         5     9      180.000000       24.904876         2
         2         3         4         5     9        0.000000       -5.121397         3
         2         3         4         5     9      180.000000       -0.047941         4
         2         6         5         4     9        0.000000       -0.389632         1
         2         6         5         4     9      180.000000       30.409903         2
         2         6         5         4     9        0.000000       -3.216777         3
         2         6         5         4     9      180.000000        0.186167         4
         2         6         5         7     9        0.000000        0.835037         1
         2         6         5         7     9      180.000000       28.321797         2
         2         6         5         7     9        0.000000        1.080396         3
         2         6         5         7     9      180.000000       -0.794274         4
         3         2         1        29     9        0.000000        0.021201         1
         3         2         1        29     9      180.000000       -0.031529         2
         3         2         1        29     9        0.000000       -0.255524         3
         3         2         1        29     9      180.000000        0.005433         4
         3         2         1        30     9        0.000000        0.021201         1
         3         2         1        30     9      180.000000       -0.031529         2
         3         2         1        30     9        0.000000       -0.255524         3
         3         2         1        30     9      180.000000        0.005433         4
         3         2         1        31     9        0.000000        0.021201         1
         3         2         1        31     9      180.000000       -0.031529         2
         3         2         1        31     9        0.000000       -0.255524         3
         3         2         1        31     9      180.000000        0.005433         4
         3         2         6         5     9        0.000000       -0.272297         1
         3         2         6         5     9      180.000000       26.133642         2
         3         2         6         5     9        0.000000       -2.701787         3
         3         2         6         5     9      180.000000       -0.205071         4
         3         4         5         6     9        0.000000       -0.388061         1
         3         4         5         6     9      180.000000       31.828214         2
         3         4         5         6     9        0.000000       -5.578991         3
         3         4         5         6     9      180.000000       -0.264204         4
         3         4         5         7     9        0.000000        0.620451         1
         3         4         5         7     9      180.000000       18.785966         2
         3         4         5         7     9        0.000000        0.717018         3
         3         4         5         7     9      180.000000       -0.964928         4
         4         3         2         6     9        0.000000       -0.412964         1
         4         3         2         6     9      180.000000       29.710085         2
         4         3         2         6     9        0.000000       -4.351734         3
         4         3         2         6     9      180.000000       -0.792196         4
         4         5         7         8     9        0.000000       -0.292190         1
         4         5         7         8     9      180.000000        2.840117         2
         4         5         7         8     9        0.000000        0.165563         3
         4         5         7         8     9      180.000000       -0.190500         4
         4         5         7        28     9        0.000000       -0.261020         1
         4         5         7        28     9      180.000000        2.796221         2
         4         5         7        28     9        0.000000        0.189044         3
         4         5         7        28     9      180.000000       -0.185445         4
         5         4         3        32     9        0.000000        0.818456         1
         5         4         3        32     9      180.000000        8.380657         2
         5         4         3        32     9        0.000000        0.811917         3
         5         4         3        32     9      180.000000       -0.017901         4
         5         7         8         9     9        0.000000        0.099331         1
         5         7         8         9     9      180.000000       15.261302         2
         5         7         8         9     9        0.000000       -0.206709         3
         5         7         8         9     9      180.000000       -0.270735         4
         5         7         8        33     9        0.000000       -0.223521         1
         5         7         8        33     9      180.000000       12.497712         2
         5         7         8        33     9        0.000000       -0.243773         3
         5         7         8        33     9      180.000000        0.090690         4
         5         7        28        11     9        0.000000        0.150437         1
         5         7        28        11     9      180.000000       15.136723         2
         5         7        28        11     9        0.000000       -0.107939         3
         5         7        28        11     9      180.000000       -0.293168         4
         5         7        28        43     9        0.000000       -0.157581         1
         5         7        28        43     9      180.000000       12.632913         2
         5         7        28        43     9        0.000000       -0.197604         3
         5         7        28        43     9      180.000000        0.086980         4
         6         2         1        29     9        0.000000        0.013010         1
         6         2         1        29     9      180.000000        0.001345         2
         6         2         1        29     9        0.000000        0.287437         3
         6         2         1        29     9      180.000000        0.012672         4
         6         2         1        30     9        0.000000        0.013010         1
         6         2         1        30     9      180.000000        0.001345         2
         6         2         1        30     9        0.000000        0.287437         3
         6         2         1        30     9      180.000000        0.012672         4
         6         2         1        31     9        0.000000        0.013010         1
         6         2         1        31     9      180.000000        0.001345         2
         6         2         1        31     9        0.000000        0.287437         3
         6         2         1        31     9      180.000000        0.012672         4
         6         2         3        32     9        0.000000        0.459798         1
         6         2         3        32     9      180.000000       17.053378         2
         6         2         3        32     9        0.000000        0.166791         3
         6         2         3        32     9      180.000000       -0.717397         4
         6         5         7         8     9        0.000000        0.066720         1
         6         5         7         8     9      180.000000        3.361410         2
         6         5         7         8     9        0.000000       -0.096474         3
         6         5         7         8     9      180.000000       -0.024789         4
         6         5         7        28     9        0.000000        0.106614         1
         6         5         7        28     9      180.000000        3.362844         2
         6         5         7        28     9        0.000000       -0.105244         3
         6         5         7        28     9      180.000000       -0.006779         4
         7         8         9        10     9        0.000000       -0.069961         1
         7         8         9        10     9      180.000000       19.075897         2
         7         8         9        10     9        0.000000       -1.673733         3
         7         8         9        10     9      180.000000       -0.391884         4
         7         8         9        34     9        0.000000       -0.049983         1
         7         8         9        34     9      180.000000       14.962126         2
         7         8         9        34     9        0.000000       -0.518120         3
         7         8         9        34     9      180.000000        0.118382         4
         7        28        11        10     9        0.000000       -0.117958         1
         7        28        11        10     9      180.000000       19.170688         2
         7        28        11        10     9        0.000000       -1.441902         3
         7        28        11        10     9      180.000000       -0.465687         4
         7        28        11        12     9        0.000000        0.026435         1
         7        28        11        12     9      180.000000       16.308876         2
         7        28        11        12     9        0.000000       -0.276174         3
         7        28        11        12     9      180.000000       -0.349541         4
         8         7        28        11     9        0.000000       -0.031361         1
         8         7        28        11     9      180.000000       17.516985         2
         8         7        28        11     9        0.000000       -1.209514         3
         8         7        28        11     9      180.000000       -0.349260         4
         8         7        28        43     9        0.000000        0.049551         1
         8         7        28        43     9      180.000000       13.545095         2
         8         7        28        43     9        0.000000       -0.544055         3
         8         7        28        43     9      180.000000        0.065831         4
         8         9        10        11     9        0.000000        0.108197         1
         8         9        10        11     9      180.000000       17.850976         2
         8         9        10        11     9        0.000000       -1.322381         3
         8         9        10        11     9      180.000000       -0.404845         4
         8         9        10        35     9        0.000000        0.172318         1
         8         9        10        35     9      180.000000       14.010137         2
         8         9        10        35     9        0.000000       -0.651969         3
         8         9        10        35     9      180.000000        0.081128         4
         9         8         7        28     9        0.000000       -0.125182         1
         9         8         7        28     9      180.000000       18.048039         2
         9         8         7        28     9        0.000000       -1.319928         3
         9         8         7        28     9      180.000000       -0.311453         4
         9        10        11        12     9        0.000000        0.067707         1
         9        10        11        12     9      180.000000       15.885590         2
         9        10        11        12     9        0.000000       -0.317980         3
         9        10        11        12     9      180.000000       -0.267465         4
         9        10        11        28     9        0.000000       -0.133918         1
         9        10        11        28     9      180.000000       18.697964         2
         9        10        11        28     9        0.000000       -1.200897         3
         9        10        11        28     9      180.000000       -0.420310         4
        10         9         8        33     9        0.000000        0.044670         1
        10         9         8        33     9      180.000000       14.973594         2
        10         9         8        33     9        0.000000       -0.726626         3
        10         9         8        33     9      180.000000        0.124915         4
        10        11        12        13     9        0.000000        0.034697         1
        10        11        12        13     9      180.000000        0.285426         2
        10        11        12        13     9        0.000000        0.074010         3
        10        11        12        13     9      180.000000        0.035741         4
        10        11        12        36     9        0.000000       -0.019436         1
        10        11        12        36     9      180.000000       -0.039210         2
        10        11        12        36     9        0.000000       -0.000134         3
        10        11        12        36     9      180.000000        0.006470         4
        10        11        12        37     9        0.000000       -0.019436         1
        10        11        12        37     9      180.000000       -0.039210         2
        10        11        12        37     9        0.000000       -0.000134         3
        10        11        12        37     9      180.000000        0.006470         4
        10        11        28        43     9        0.000000       -0.066133         1
        10        11        28        43     9      180.000000       14.680807         2
        10        11        28        43     9        0.000000       -0.650446         3
        10        11        28        43     9      180.000000        0.046714         4
        11        10         9        34     9        0.000000        0.119243         1
        11        10         9        34     9      180.000000       14.676145         2
        11        10         9        34     9        0.000000       -0.627277         3
        11        10         9        34     9      180.000000        0.061234         4
        11        12        13        14     9        0.000000       -2.149561         1
        11        12        13        14     9      180.000000       -0.791220         2
        11        12        13        14     9        0.000000        0.247120         3
        11        12        13        14     9      180.000000       -0.039841         4
        11        12        13        18     9        0.000000       -0.294487         1
        11        12        13        18     9      180.000000       -1.936620         2
        11        12        13        18     9        0.000000        0.577663         3
        11        12        13        18     9      180.000000       -0.277452         4
        12        11        10        35     9        0.000000       -0.090986         1
        12        11        10        35     9      180.000000       13.017310         2
        12        11        10        35     9        0.000000       -0.450878         3
        12        11        10        35     9      180.000000        0.117033         4
        12        11        28        43     9        0.000000       -0.188855         1
        12        11        28        43     9      180.000000       13.184859         2
        12        11        28        43     9        0.000000       -0.494866         3
        12        11        28        43     9      180.000000        0.161809         4
        12        13        14        15     9        0.000000        2.137356         1
        12        13        14        15     9      180.000000       14.311581         2
        12        13        14        15     9        0.000000        0.842812         3
        12        13        14        15     9      180.000000       -0.492492         4
        12        13        18        17     9        0.000000        0.724863         1
        12        13        18        17     9      180.000000        9.240876         2
        12        13        18        17     9        0.000000        0.501435         3
        12        13        18        17     9      180.000000       -0.193002         4
        12        13        18        19     9        0.000000       -0.194580         1
        12        13        18        19     9      180.000000       10.127987         2
        12        13        18        19     9        0.000000       -1.046514         3
        12        13        18        19     9      180.000000        0.094108         4
        13        12        11        28     9        0.000000       -0.069887         1
        13        12        11        28     9      180.000000        0.374219         2
        13        12        11        28     9        0.000000        0.022760         3
        13        12        11        28     9      180.000000        0.039271         4
        13        14        15        16     9        0.000000       -0.095195         1
        13        14        15        16     9      180.000000       35.957180         2
        13        14        15        16     9        0.000000       -0.620289         3
        13        14        15        16     9      180.000000       -1.050184         4
        13        14        15        20     9        0.000000       -0.084948         1
        13        14        15        20     9      180.000000       34.972014         2
        13        14        15        20     9        0.000000        1.945584         3
        13        14        15        20     9      180.000000       -1.589659         4
        13        18        17        16     9        0.000000        1.364779         1
        13        18        17        16     9      180.000000        2.014246         2
        13        18        17        16     9        0.000000        0.435102         3
        13        18        17        16     9      180.000000        0.007037         4
        13        18        17        39     9        0.000000        0.158353         1
        13        18        17        39     9      180.000000        4.595400         2
        13        18        17        39     9        0.000000       -0.019784         3
        13        18        17        39     9      180.000000        0.196144         4
        14        13        12        36     9        0.000000        0.297991         1
        14        13        12        36     9      180.000000        0.078464         2
        14        13        12        36     9        0.000000        0.020180         3
        14        13        12        36     9      180.000000        0.085778         4
        14        13        12        37     9        0.000000        0.297991         1
        14        13        12        37     9      180.000000        0.078464         2
        14        13        12        37     9        0.000000        0.020180         3
        14        13        12        37     9      180.000000        0.085778         4
        14        13        18        17     9        0.000000        1.359758         1
        14        13        18        17     9      180.000000        2.455735         2
        14        13        18        17     9        0.000000        0.532356         3
        14        13        18        17     9      180.000000        0.115454         4
        14        13        18        19     9        0.000000       -0.191705         1
        14        13        18        19     9      180.000000        9.009476         2
        14        13        18        19     9        0.000000       -0.415666         3
        14        13        18        19     9      180.000000       -0.488867         4
        14        15        16        17     9        0.000000       -0.206460         1
        14        15        16        17     9      180.000000       12.226660         2
        14        15        16        17     9        0.000000       -0.564200         3
        14        15        16        17     9      180.000000       -0.418999         4
        14        15        16        38     9        0.000000        0.005072         1
        14        15        16        38     9      180.000000        9.301369         2
        14        15        16        38     9        0.000000       -0.286036         3
        14        15        16        38     9      180.000000       -0.092564         4
        14        15        20        21     9        0.000000       -0.217068         1
        14        15        20        21     9      180.000000        3.789456         2
        14        15        20        21     9        0.000000        0.058358         3
        14        15        20        21     9      180.000000        0.006680         4
        14        15        20        27     9        0.000000       -0.217067         1
        14        15        20        27     9      180.000000        3.789456         2
        14        15        20        27     9        0.000000        0.058358         3
        14        15        20        27     9      180.000000        0.006680         4
        15        14        13        18     9        0.000000        2.064315         1
        15        14        13        18     9      180.000000        8.395512         2
        15        14        13        18     9        0.000000        0.337796         3
        15        14        13        18     9      180.000000       -0.016133         4
        15        16        17        18     9        0.000000       -0.116202         1
        15        16        17        18     9      180.000000       21.080768         2
        15        16        17        18     9        0.000000       -0.986321         3
        15        16        17        18     9      180.000000       -0.634462         4
        15        16        17        39     9        0.000000       -0.069936         1
        15        16        17        39     9      180.000000       17.292472         2
        15        16        17        39     9        0.000000       -0.374657         3
        15        16        17        39     9      180.000000       -0.069790         4
        15        20        21        22     9        0.000000        0.230762         1
        15        20        21        22     9      180.000000       16.209562         2
        15        20        21        22     9        0.000000       -0.089588         3
        15        20        21        22     9      180.000000       -0.387375         4
        15        20        21        40     9        0.000000       -0.081645         1
        15        20        21        40     9      180.000000       12.448686         2
        15        20        21        40     9        0.000000       -0.389032         3
        15        20        21        40     9      180.000000        0.225184         4
        15        20        27        25     9        0.000000        0.230763         1
        15        20        27        25     9      180.000000       16.209562         2
        15        20        27        25     9        0.000000       -0.089588         3
        15        20        27        25     9      180.000000       -0.387374         4
        15        20        27        42     9        0.000000       -0.081645         1
        15        20        27        42     9      180.000000       12.448684         2
        15        20        27        42     9        0.000000       -0.389032         3
        15        20        27        42     9      180.000000        0.225185         4
        16        15        20        21     9        0.000000        0.162649         1
        16        15        20        21     9      180.000000        3.891274         2
        16        15        20        21     9        0.000000        0.150493         3
        16        15        20        21     9      180.000000       -0.119046         4
        16        15        20        27     9        0.000000        0.162649         1
        16        15        20        27     9      180.000000        3.891274         2
        16        15        20        27     9        0.000000        0.150493         3
        16        15        20        27     9      180.000000       -0.119046         4
        16        17        18        19     9        0.000000        0.373567         1
        16        17        18        19     9      180.000000        6.488703         2
        16        17        18        19     9        0.000000        0.040900         3
        16        17        18        19     9      180.000000       -0.219160         4
        17        16        15        20     9        0.000000        0.033405         1
        17        16        15        20     9      180.000000       12.689562         2
        17        16        15        20     9        0.000000       -0.240009         3
        17        16        15        20     9      180.000000       -0.455245         4
        18        13        12        36     9        0.000000       -0.044506         1
        18        13        12        36     9      180.000000        0.147445         2
        18        13        12        36     9        0.000000        0.145499         3
        18        13        12        36     9      180.000000        0.114507         4
        18        13        12        37     9        0.000000       -0.044506         1
        18        13        12        37     9      180.000000        0.147445         2
        18        13        12        37     9        0.000000        0.145499         3
        18        13        12        37     9      180.000000        0.114507         4
        18        17        16        38     9        0.000000        0.380985         1
        18        17        16        38     9      180.000000       17.184468         2
        18        17        16        38     9        0.000000       -0.152610         3
        18        17        16        38     9      180.000000       -0.094194         4
        19        18        17        39     9        0.000000       -1.098767         1
        19        18        17        39     9      180.000000        8.614287         2
        19        18        17        39     9        0.000000       -0.424066         3
        19        18        17        39     9      180.000000       -0.304321         4
        20        15        16        38     9        0.000000        0.013891         1
        20        15        16        38     9      180.000000       11.598305         2
        20        15        16        38     9        0.000000       -0.325133         3
        20        15        16        38     9      180.000000        0.059480         4
        20        21        22        23     9        0.000000        0.430937         1
        20        21        22        23     9      180.000000       23.370776         2
        20        21        22        23     9        0.000000        0.760673         3
        20        21        22        23     9      180.000000       -0.889888         4
        20        21        22        24     9        0.000000        0.038045         1
        20        21        22        24     9      180.000000       17.837120         2
        20        21        22        24     9        0.000000       -1.166641         3
        20        21        22        24     9      180.000000       -0.381872         4
        20        27        25        24     9        0.000000        0.038045         1
        20        27        25        24     9      180.000000       17.837118         2
        20        27        25        24     9        0.000000       -1.166641         3
        20        27        25        24     9      180.000000       -0.381871         4
        20        27        25        26     9        0.000000        0.430936         1
        20        27        25        26     9      180.000000       23.370774         2
        20        27        25        26     9        0.000000        0.760672         3
        20        27        25        26     9      180.000000       -0.889889         4
        21        20        27        25     9        0.000000       -0.342302         1
        21        20        27        25     9      180.000000       18.810098         2
        21        20        27        25     9        0.000000       -1.588451         3
        21        20        27        25     9      180.000000       -0.363249         4
        21        20        27        42     9        0.000000       -0.052324         1
        21        20        27        42     9      180.000000       13.948479         2
        21        20        27        42     9        0.000000       -0.577384         3
        21        20        27        42     9      180.000000        0.093952         4
        21        22        24        25     9        0.000000       -0.143238         1
        21        22        24        25     9      180.000000       17.087450         2
        21        22        24        25     9        0.000000       -1.147459         3
        21        22        24        25     9      180.000000       -0.384531         4
        21        22        24        41     9        0.000000        0.098565         1
        21        22        24        41     9      180.000000       12.433916         2
        21        22        24        41     9        0.000000       -0.442854         3
        21        22        24        41     9      180.000000        0.130980         4
        22        21        20        27     9        0.000000       -0.342302         1
        22        21        20        27     9      180.000000       18.810096         2
        22        21        20        27     9        0.000000       -1.588451         3
        22        21        20        27     9      180.000000       -0.363249         4
        22        24        25        26     9        0.000000        0.347297         1
        22        24        25        26     9      180.000000       23.388429         2
        22        24        25        26     9        0.000000        0.623001         3
        22        24        25        26     9      180.000000       -0.798052         4
        22        24        25        27     9        0.000000       -0.143237         1
        22        24        25        27     9      180.000000       17.087450         2
        22        24        25        27     9        0.000000       -1.147458         3
        22        24        25        27     9      180.000000       -0.384531         4
        23        22        21        40     9        0.000000        0.333426         1
        23        22        21        40     9      180.000000       16.367779         2
        23        22        21        40     9        0.000000        0.313595         3
        23        22        21        40     9      180.000000        0.089407         4
        23        22        24        25     9        0.000000        0.347297         1
        23        22        24        25     9      180.000000       23.388433         2
        23        22        24        25     9        0.000000        0.623000         3
        23        22        24        25     9      180.000000       -0.798053         4
        23        22        24        41     9        0.000000        0.299382         1
        23        22        24        41     9      180.000000       15.175832         2
        23        22        24        41     9        0.000000        0.237322         3
        23        22        24        41     9      180.000000        0.215427         4
        24        22        21        40     9        0.000000        0.126935         1
        24        22        21        40     9      180.000000       13.436919         2
        24        22        21        40     9        0.000000       -0.581726         3
        24        22        21        40     9      180.000000        0.110637         4
        24        25        27        42     9        0.000000        0.126936         1
        24        25        27        42     9      180.000000       13.436919         2
        24        25        27        42     9        0.000000       -0.581726         3
        24        25        27        42     9      180.000000        0.110636         4
        26        25        24        41     9        0.000000        0.299383         1
        26        25        24        41     9      180.000000       15.175831         2
        26        25        24        41     9        0.000000        0.237322         3
        26        25        24        41     9      180.000000        0.215426         4
        26        25        27        42     9        0.000000        0.333425         1
        26        25        27        42     9      180.000000       16.367779         2
        26        25        27        42     9        0.000000        0.313595         3
        26        25        27        42     9      180.000000        0.089406         4
        27        20        21        40     9        0.000000       -0.052323         1
        27        20        21        40     9      180.000000       13.948481         2
        27        20        21        40     9        0.000000       -0.577384         3
        27        20        21        40     9      180.000000        0.093952         4
        27        25        24        41     9        0.000000        0.098564         1
        27        25        24        41     9      180.000000       12.433917         2
        27        25        24        41     9        0.000000       -0.442854         3
        27        25        24        41     9      180.000000        0.130980         4
        28         7         8        33     9        0.000000       -0.073934         1
        28         7         8        33     9      180.000000       13.550017         2
        28         7         8        33     9        0.000000       -0.625874         3
        28         7         8        33     9      180.000000        0.140055         4
        28        11        10        35     9        0.000000       -0.021704         1
        28        11        10        35     9      180.000000       14.139575         2
        28        11        10        35     9        0.000000       -0.563491         3
        28        11        10        35     9      180.000000        0.010915         4
        28        11        12        36     9        0.000000       -0.013710         1
        28        11        12        36     9      180.000000       -0.023720         2
        28        11        12        36     9        0.000000       -0.070859         3
        28        11        12        36     9      180.000000        0.001298         4
        28        11        12        37     9        0.000000       -0.013710         1
        28        11        12        37     9      180.000000       -0.023720         2
        28        11        12        37     9        0.000000       -0.070859         3
        28        11        12        37     9      180.000000        0.001298         4
        33         8         9        34     9        0.000000       -0.214947         1
        33         8         9        34     9      180.000000       12.187192         2
        33         8         9        34     9        0.000000       -0.693546         3
        33         8         9        34     9      180.000000        0.341606         4
        34         9        10        35     9        0.000000       -0.091579         1
        34         9        10        35     9      180.000000       11.846993         2
        34         9        10        35     9        0.000000       -0.583540         3
        34         9        10        35     9      180.000000        0.226250         4
        38        16        17        39     9        0.000000       -0.176224         1
        38        16        17        39     9      180.000000       14.412884         2
        38        16        17        39     9        0.000000       -0.511875         3
        38        16        17        39     9      180.000000        0.397892         4

[ dihedrals ] ; impropers
;       ai        aj        ak        al funct           phase               k        pn
         5         4         6         7     4      180.000000        2.213361         2
         5         6         7         4     4      180.000000        2.213361         2
         5         7         4         6     4      180.000000        2.213361         2
         9         8        10        34     4      180.000000        2.344414         2
         9        10        34         8     4      180.000000        2.344414         2
         9        34         8        10     4      180.000000        2.344414         2
        10         9        11        35     4      180.000000        2.344543         2
        10        11        35         9     4      180.000000        2.344543         2
        10        35         9        11     4      180.000000        2.344543         2
        18        13        17        19     4      180.000000       27.780523         2
        18        17        19        13     4      180.000000       27.780523         2
        18        19        13        17     4      180.000000       27.780523         2
        22        21        23        24     4      180.000000        1.595244         2
        22        23        24        21     4      180.000000        1.595244         2
        22        24        21        23     4      180.000000        1.595244         2
        25        24        26        27     4      180.000000        1.595244         2
        25        26        27        24     4      180.000000        1.595244         2
        25        27        24        26     4      180.000000        1.595244         2
        28         7        11        43     4      180.000000        0.773040         2
        28        11        43         7     4      180.000000        0.773040         2
        28        43         7        11     4      180.000000        0.773040         2

[ pairs ]
;       ai        aj funct
         1         4     1
         1         5     1
         1        32     1
         2         7     1
         3         7     1
         3        29     1
         3        30     1
         3        31     1
         4         8     1
         4        28     1
         5         9     1
         5        11     1
         5        32     1
         5        33     1
         5        43     1
         6         8     1
         6        28     1
         6        29     1
         6        30     1
         6        31     1
         6        32     1
         7        10     1
         7        12     1
         7        34     1
         8        11     1
         8        35     1
         8        43     1
         9        12     1
         9        28     1
        10        13     1
        10        33     1
        10        36     1
        10        37     1
        10        43     1
        11        14     1
        11        18     1
        11        34     1
        12        15     1
        12        17     1
        12        19     1
        12        35     1
        12        43     1
        13        16     1
        13        20     1
        13        28     1
        13        39     1
        14        17     1
        14        19     1
        14        21     1
        14        27     1
        14        36     1
        14        37     1
        14        38     1
        15        18     1
        15        22     1
        15        25     1
        15        39     1
        15        40     1
        15        42     1
        16        19     1
        16        21     1
        16        27     1
        17        20     1
        18        36     1
        18        37     1
        18        38     1
        19        39     1
        20        23     1
        20        24     1
        20        26     1
        20        38     1
        21        25     1
        21        41     1
        21        42     1
        22        26     1
        22        27     1
        23        25     1
        23        40     1
        23        41     1
        24        40     1
        24        42     1
        26        41     1
        26        42     1
        27        40     1
        27        41     1
        28        33     1
        28        35     1
        28        36     1
        28        37     1
        33        34     1
        34        35     1
        38        39     1
