; ITP file created by ByteFF-ML, 2025-12-06 03:35:32.439024

[ atomtypes ]
;name           bonded.type        at.num        mass        charge   ptype           sigma         epsilon
 o0bf                                   8      0.0000       0.00000       A     3.04983e-01     6.12168e-01
 c1bf                                   6      0.0000       0.00000       A     3.31510e-01     4.09599e-01
 o2bf                                   8      0.0000       0.00000       A     3.04983e-01     6.12168e-01
 c3bf                                   6      0.0000       0.00000       A     3.31411e-01     4.12431e-01
 c4bf                                   6      0.0000       0.00000       A     3.31535e-01     4.11984e-01
 c5bf                                   6      0.0000       0.00000       A     3.31443e-01     4.12467e-01
 c6bf                                   6      0.0000       0.00000       A     3.31475e-01     4.13232e-01
 c7bf                                   6      0.0000       0.00000       A     3.31513e-01     4.13159e-01
 c8bf                                   6      0.0000       0.00000       A     3.31628e-01     4.12094e-01
 c9bf                                   6      0.0000       0.00000       A     3.31450e-01     4.10839e-01
 c10bf                                  6      0.0000       0.00000       A     3.31413e-01     4.11832e-01
 h11bf                                  1      0.0000       0.00000       A     2.62421e-01     6.72807e-02
 cl12bf                                17      0.0000       0.00000       A     3.46694e-01     1.10387e+00
 h13bf                                  1      0.0000       0.00000       A     2.62518e-01     6.73557e-02
 br14bf                                35      0.0000       0.00000       A     3.61378e-01     1.64284e+00
 h15bf                                  1      0.0000       0.00000       A     2.62892e-01     6.63853e-02
 o16bf                                  8      0.0000       0.00000       A     3.15985e-01     3.04271e-01

[ moleculetype ]
;name             nrexcl
 11                    3

[ atoms ]
;       nr            type      resi   res      atom      cgnr      charge          mass ; qtot
         1            o0bf         1   UNL        o0         1    -0.71244       15.9990 ; qtot   -0.712
         2            c1bf         1   UNL        c1         2     0.70195       12.0110 ; qtot   -0.010
         3            o2bf         1   UNL        o2         3    -0.71244       15.9990 ; qtot   -0.723
         4            c3bf         1   UNL        c3         4    -0.01081       12.0110 ; qtot   -0.734
         5            c4bf         1   UNL        c4         5     0.05036       12.0110 ; qtot   -0.683
         6            c5bf         1   UNL        c5         6    -0.09382       12.0110 ; qtot   -0.777
         7            c6bf         1   UNL        c6         7     0.13754       12.0110 ; qtot   -0.640
         8            c7bf         1   UNL        c7         8    -0.09088       12.0110 ; qtot   -0.731
         9            c8bf         1   UNL        c8         9     0.03422       12.0110 ; qtot   -0.696
        10            c9bf         1   UNL        c9        10    -0.08808       12.0110 ; qtot   -0.784
        11           c10bf         1   UNL       c10        11    -0.27875       12.0110 ; qtot   -1.063
        12           h11bf         1   UNL       h11        12     0.15467        1.0080 ; qtot   -0.908
        13          cl12bf         1   UNL      cl12        13    -0.19986       35.4530 ; qtot   -1.108
        14           h13bf         1   UNL       h13        14     0.14772        1.0080 ; qtot   -0.961
        15          br14bf         1   UNL      br14        15    -0.08122       79.9040 ; qtot   -1.042
        16           h15bf         1   UNL       h15        16     0.20825        1.0080 ; qtot   -0.834
        17           o16bf         1   UNL       o16        17    -0.16641       15.9990 ; qtot   -1.000

[ bonds ]
;       ai        aj funct               r               k
         1         2     1        0.125690   494664.789551
         2         3     1        0.125690   494664.789551
         2         4     1        0.153677   124028.351904
         4        11     1        0.137005   375929.693066
         4        17     1        0.139223   182308.376807
         5         6     1        0.139188   318718.115283
         5        10     1        0.141710   252601.287793
         5        17     1        0.135901   255172.593799
         6         7     1        0.139463   304692.853906
         6        12     1        0.108366   328929.051855
         7         8     1        0.140823   277384.362939
         7        13     1        0.175650   150890.173291
         8         9     1        0.138838   319734.900830
         8        14     1        0.108317   329331.618848
         9        10     1        0.140347   289587.602637
         9        15     1        0.191015   126228.578174
        10        11     1        0.143373   252792.943799
        11        16     1        0.107956   340437.145898

[ angles ]
;       ai        aj        ak funct           theta             cth
         1         2         3     1      131.639725      696.383821
         1         2         4     1      114.052719      321.374051
         2         4        11     1      131.141296      322.578701
         2         4        17     1      119.104874      441.796174
         3         2         4     1      114.052719      321.374051
         4        11        10     1      106.952660      408.284655
         4        11        16     1      123.641846      347.929166
         4        17         5     1      107.060936      593.523281
         5         6         7     1      115.731117      745.616814
         5         6        12     1      122.039284      447.492290
         5        10         9     1      117.386581      660.216890
         5        10        11     1      105.629593      256.920207
         6         5        10     1      123.925476      609.437369
         6         5        17     1      125.988052      504.767877
         6         7         8     1      122.770981      580.757408
         6         7        13     1      118.897720      331.970739
         7         6        12     1      122.166809      422.355858
         7         8         9     1      119.408279      573.055671
         7         8        14     1      119.904297      427.278934
         8         7        13     1      118.338913      397.853416
         8         9        10     1      120.553177      705.668156
         8         9        15     1      119.944115      349.553134
         9         8        14     1      120.796097      404.165328
         9        10        11     1      137.124954      355.705822
        10         5        17     1      110.072754      227.832290
        10         9        15     1      119.750183      333.768934
        10        11        16     1      128.821487      369.576686
        11         4        17     1      110.451683      195.690007

[ dihedrals ] ; propers for gromacs 4.5 or higher, use funct 9
;       ai        aj        ak        al funct           phase               k        pn
         1         2         4        11     9        0.000000        0.575804         1
         1         2         4        11     9      180.000000        0.907799         2
         1         2         4        11     9        0.000000       -0.010788         3
         1         2         4        11     9      180.000000        0.022124         4
         1         2         4        17     9        0.000000       -1.741585         1
         1         2         4        17     9      180.000000        2.063998         2
         1         2         4        17     9        0.000000        0.173877         3
         1         2         4        17     9      180.000000       -0.161698         4
         2         4        11        10     9        0.000000        0.359955         1
         2         4        11        10     9      180.000000       15.408629         2
         2         4        11        10     9        0.000000       -0.538983         3
         2         4        11        10     9      180.000000       -0.803919         4
         2         4        11        16     9        0.000000        0.058152         1
         2         4        11        16     9      180.000000       12.232751         2
         2         4        11        16     9        0.000000       -0.186537         3
         2         4        11        16     9      180.000000       -0.025002         4
         2         4        17         5     9        0.000000        0.963153         1
         2         4        17         5     9      180.000000        6.956923         2
         2         4        17         5     9        0.000000       -0.111467         3
         2         4        17         5     9      180.000000        0.089522         4
         3         2         4        11     9        0.000000        0.575804         1
         3         2         4        11     9      180.000000        0.907799         2
         3         2         4        11     9        0.000000       -0.010788         3
         3         2         4        11     9      180.000000        0.022124         4
         3         2         4        17     9        0.000000       -1.741585         1
         3         2         4        17     9      180.000000        2.063998         2
         3         2         4        17     9        0.000000        0.173877         3
         3         2         4        17     9      180.000000       -0.161698         4
         4        11        10         5     9        0.000000       -0.191809         1
         4        11        10         5     9      180.000000       22.624991         2
         4        11        10         5     9        0.000000       -8.562486         3
         4        11        10         5     9      180.000000       -0.022571         4
         4        11        10         9     9        0.000000        0.197387         1
         4        11        10         9     9      180.000000        3.852683         2
         4        11        10         9     9        0.000000       -0.665645         3
         4        11        10         9     9      180.000000        0.144704         4
         4        17         5         6     9        0.000000        0.894280         1
         4        17         5         6     9      180.000000        5.451963         2
         4        17         5         6     9        0.000000       -0.634456         3
         4        17         5         6     9      180.000000        0.220300         4
         4        17         5        10     9        0.000000        0.575239         1
         4        17         5        10     9      180.000000       21.943266         2
         4        17         5        10     9        0.000000       -6.192313         3
         4        17         5        10     9      180.000000       -0.312112         4
         5         6         7         8     9        0.000000       -0.209063         1
         5         6         7         8     9      180.000000       19.353516         2
         5         6         7         8     9        0.000000       -1.562678         3
         5         6         7         8     9      180.000000       -0.437072         4
         5         6         7        13     9        0.000000        0.384930         1
         5         6         7        13     9      180.000000       22.046021         2
         5         6         7        13     9        0.000000        0.470810         3
         5         6         7        13     9      180.000000       -0.910623         4
         5        10         9         8     9        0.000000       -0.044157         1
         5        10         9         8     9      180.000000       17.428918         2
         5        10         9         8     9        0.000000       -1.602858         3
         5        10         9         8     9      180.000000       -0.447644         4
         5        10         9        15     9        0.000000        0.438437         1
         5        10         9        15     9      180.000000       16.517964         2
         5        10         9        15     9        0.000000        0.386986         3
         5        10         9        15     9      180.000000       -0.824637         4
         5        10        11        16     9        0.000000        1.043123         1
         5        10        11        16     9      180.000000       10.289830         2
         5        10        11        16     9        0.000000        0.218679         3
         5        10        11        16     9      180.000000        0.006324         4
         5        17         4        11     9        0.000000        0.244732         1
         5        17         4        11     9      180.000000       22.422460         2
         5        17         4        11     9        0.000000       -4.849441         3
         5        17         4        11     9      180.000000       -0.390344         4
         6         5        10         9     9        0.000000       -0.029718         1
         6         5        10         9     9      180.000000       11.064924         2
         6         5        10         9     9        0.000000       -1.630609         3
         6         5        10         9     9      180.000000       -0.083243         4
         6         5        10        11     9        0.000000        0.214169         1
         6         5        10        11     9      180.000000       11.529846         2
         6         5        10        11     9        0.000000       -2.238976         3
         6         5        10        11     9      180.000000       -0.021252         4
         6         7         8         9     9        0.000000       -0.067512         1
         6         7         8         9     9      180.000000       16.833632         2
         6         7         8         9     9        0.000000       -1.293441         3
         6         7         8         9     9      180.000000       -0.386847         4
         6         7         8        14     9        0.000000        0.007809         1
         6         7         8        14     9      180.000000       13.050107         2
         6         7         8        14     9        0.000000       -0.610621         3
         6         7         8        14     9      180.000000        0.195451         4
         7         6         5        10     9        0.000000       -0.284282         1
         7         6         5        10     9      180.000000       16.878621         2
         7         6         5        10     9        0.000000       -1.739145         3
         7         6         5        10     9      180.000000       -0.243020         4
         7         6         5        17     9        0.000000        0.277837         1
         7         6         5        17     9      180.000000       16.604952         2
         7         6         5        17     9        0.000000       -0.120678         3
         7         6         5        17     9      180.000000       -0.338619         4
         7         8         9        10     9        0.000000       -0.234238         1
         7         8         9        10     9      180.000000       19.918752         2
         7         8         9        10     9        0.000000       -1.491542         3
         7         8         9        10     9      180.000000       -0.435510         4
         7         8         9        15     9        0.000000        0.468611         1
         7         8         9        15     9      180.000000       19.230886         2
         7         8         9        15     9        0.000000        0.387471         3
         7         8         9        15     9      180.000000       -0.647740         4
         8         7         6        12     9        0.000000        0.050130         1
         8         7         6        12     9      180.000000       13.597567         2
         8         7         6        12     9        0.000000       -0.478307         3
         8         7         6        12     9      180.000000        0.094710         4
         8         9        10        11     9        0.000000        0.137076         1
         8         9        10        11     9      180.000000       11.670988         2
         8         9        10        11     9        0.000000       -0.345657         3
         8         9        10        11     9      180.000000       -0.172001         4
         9         8         7        13     9        0.000000        0.394152         1
         9         8         7        13     9      180.000000       17.050280         2
         9         8         7        13     9        0.000000        0.431357         3
         9         8         7        13     9      180.000000       -0.503340         4
         9        10         5        17     9        0.000000        0.418222         1
         9        10         5        17     9      180.000000       11.727430         2
         9        10         5        17     9        0.000000       -1.915860         3
         9        10         5        17     9      180.000000        0.063674         4
         9        10        11        16     9        0.000000       -0.474814         1
         9        10        11        16     9      180.000000        4.434187         2
         9        10        11        16     9        0.000000       -0.255899         3
         9        10        11        16     9      180.000000        0.196764         4
        10         5         6        12     9        0.000000        0.029295         1
        10         5         6        12     9      180.000000       12.027992         2
        10         5         6        12     9        0.000000       -0.544263         3
        10         5         6        12     9      180.000000        0.049145         4
        10         9         8        14     9        0.000000        0.015330         1
        10         9         8        14     9      180.000000       15.451537         2
        10         9         8        14     9        0.000000       -0.507678         3
        10         9         8        14     9      180.000000       -0.043975         4
        10        11         4        17     9        0.000000       -0.226066         1
        10        11         4        17     9      180.000000       34.370695         2
        10        11         4        17     9        0.000000       -5.822946         3
        10        11         4        17     9      180.000000       -0.587433         4
        11        10         5        17     9        0.000000       -0.039237         1
        11        10         5        17     9      180.000000       19.764973         2
        11        10         5        17     9        0.000000       -6.415229         3
        11        10         5        17     9      180.000000       -0.132993         4
        11        10         9        15     9        0.000000        0.350696         1
        11        10         9        15     9      180.000000       12.177179         2
        11        10         9        15     9        0.000000        0.466623         3
        11        10         9        15     9      180.000000       -0.358758         4
        12         6         5        17     9        0.000000        0.073971         1
        12         6         5        17     9      180.000000       12.209825         2
        12         6         5        17     9        0.000000       -0.218712         3
        12         6         5        17     9      180.000000        0.074487         4
        12         6         7        13     9        0.000000        0.210382         1
        12         6         7        13     9      180.000000       13.677936         2
        12         6         7        13     9        0.000000       -0.067069         3
        12         6         7        13     9      180.000000        0.232808         4
        13         7         8        14     9        0.000000        0.112982         1
        13         7         8        14     9      180.000000       12.792931         2
        13         7         8        14     9        0.000000       -0.160858         3
        13         7         8        14     9      180.000000        0.237121         4
        14         8         9        15     9        0.000000        0.082037         1
        14         8         9        15     9      180.000000       13.936451         2
        14         8         9        15     9        0.000000       -0.067958         3
        14         8         9        15     9      180.000000        0.191604         4
        16        11         4        17     9        0.000000        0.778452         1
        16        11         4        17     9      180.000000       17.645410         2
        16        11         4        17     9        0.000000        0.166185         3
        16        11         4        17     9      180.000000       -0.382218         4

[ dihedrals ] ; impropers
;       ai        aj        ak        al funct           phase               k        pn
         2         1         3         4     4      180.000000       27.893333         2
         2         3         4         1     4      180.000000       27.893333         2
         2         4         1         3     4      180.000000       27.893333         2

[ pairs ]
;       ai        aj funct
         1        11     1
         1        17     1
         2         5     1
         2        10     1
         2        16     1
         3        11     1
         3        17     1
         4         6     1
         4         9     1
         5         8     1
         5        13     1
         5        15     1
         5        16     1
         6         9     1
         6        11     1
         6        14     1
         7        10     1
         7        15     1
         7        17     1
         8        11     1
         8        12     1
         9        13     1
         9        16     1
         9        17     1
        10        12     1
        10        14     1
        11        15     1
        12        13     1
        12        17     1
        13        14     1
        14        15     1
        16        17     1
