; ITP file created by ByteFF-ML, 2025-12-06 03:35:22.041893

[ atomtypes ]
;name           bonded.type        at.num        mass        charge   ptype           sigma         epsilon
 o0bf                                   8      0.0000       0.00000       A     3.04439e-01     6.12694e-01
 c1bf                                   6      0.0000       0.00000       A     3.31173e-01     4.10091e-01
 o2bf                                   8      0.0000       0.00000       A     3.04439e-01     6.12694e-01
 c3bf                                   6      0.0000       0.00000       A     3.31365e-01     4.12670e-01
 c4bf                                   6      0.0000       0.00000       A     3.31476e-01     4.11074e-01
 c5bf                                   6      0.0000       0.00000       A     3.31401e-01     4.13085e-01
 c6bf                                   6      0.0000       0.00000       A     3.31466e-01     4.12830e-01
 c7bf                                   6      0.0000       0.00000       A     3.31539e-01     4.13704e-01
 c8bf                                   6      0.0000       0.00000       A     3.31410e-01     4.13417e-01
 c9bf                                   6      0.0000       0.00000       A     3.31348e-01     4.11521e-01
 c10bf                                  6      0.0000       0.00000       A     3.31282e-01     4.11629e-01
 h11bf                                  1      0.0000       0.00000       A     2.62545e-01     6.71770e-02
 h12bf                                  1      0.0000       0.00000       A     2.62542e-01     6.71626e-02
 br13bf                                35      0.0000       0.00000       A     3.61477e-01     1.64757e+00
 h14bf                                  1      0.0000       0.00000       A     2.62484e-01     6.71163e-02
 h15bf                                  1      0.0000       0.00000       A     2.62686e-01     6.62257e-02
 n16bf                                  7      0.0000       0.00000       A     3.20739e-01     8.58847e-01
 c17bf                                  6      0.0000       0.00000       A     3.39868e-01     4.51016e-01
 h18bf                                  1      0.0000       0.00000       A     2.41962e-01     8.74215e-02
 h19bf                                  1      0.0000       0.00000       A     2.41962e-01     8.74215e-02
 h20bf                                  1      0.0000       0.00000       A     2.41962e-01     8.74215e-02

[ moleculetype ]
;name             nrexcl
 14                    3

[ atoms ]
;       nr            type      resi   res      atom      cgnr      charge          mass ; qtot
         1            o0bf         1   UNL        o0         1    -0.72711       15.9990 ; qtot   -0.727
         2            c1bf         1   UNL        c1         2     0.71424       12.0110 ; qtot   -0.013
         3            o2bf         1   UNL        o2         3    -0.72711       15.9990 ; qtot   -0.740
         4            c3bf         1   UNL        c3         4    -0.08698       12.0110 ; qtot   -0.827
         5            c4bf         1   UNL        c4         5    -0.07222       12.0110 ; qtot   -0.899
         6            c5bf         1   UNL        c5         6    -0.12703       12.0110 ; qtot   -1.026
         7            c6bf         1   UNL        c6         7    -0.06869       12.0110 ; qtot   -1.095
         8            c7bf         1   UNL        c7         8    -0.03555       12.0110 ; qtot   -1.130
         9            c8bf         1   UNL        c8         9    -0.04598       12.0110 ; qtot   -1.176
        10            c9bf         1   UNL        c9        10    -0.10430       12.0110 ; qtot   -1.281
        11           c10bf         1   UNL       c10        11    -0.28057       12.0110 ; qtot   -1.561
        12           h11bf         1   UNL       h11        12     0.12019        1.0080 ; qtot   -1.441
        13           h12bf         1   UNL       h12        13     0.13120        1.0080 ; qtot   -1.310
        14          br13bf         1   UNL      br13        14    -0.11288       79.9040 ; qtot   -1.423
        15           h14bf         1   UNL       h14        15     0.13601        1.0080 ; qtot   -1.287
        16           h15bf         1   UNL       h15        16     0.19379        1.0080 ; qtot   -1.093
        17           n16bf         1   UNL       n16        17    -0.09307       14.0070 ; qtot   -1.186
        18           c17bf         1   UNL       c17        18     0.04781       12.0110 ; qtot   -1.138
        19           h18bf         1   UNL       h18        19     0.04608        1.0080 ; qtot   -1.092
        20           h19bf         1   UNL       h19        20     0.04608        1.0080 ; qtot   -1.046
        21           h20bf         1   UNL       h20        21     0.04609        1.0080 ; qtot   -1.000

[ bonds ]
;       ai        aj funct               r               k
         1         2     1        0.126099   483478.922754
         2         3     1        0.126099   483478.922754
         2         4     1        0.153548   124637.092749
         4        11     1        0.138357   348445.225879
         4        17     1        0.139856   231903.690479
         5         6     1        0.140190   304342.663525
         5        10     1        0.143429   231100.344092
         5        17     1        0.137751   271301.704395
         6         7     1        0.139349   323381.191455
         6        12     1        0.108550   320137.927490
         7         8     1        0.140950   274834.916699
         7        13     1        0.108424   325529.551855
         8         9     1        0.138696   320394.320068
         8        14     1        0.192145   119361.074878
         9        10     1        0.141018   296937.540234
         9        15     1        0.108485   323593.123926
        10        11     1        0.142952   257893.904785
        11        16     1        0.108032   337333.033643
        17        18     1        0.145549   214565.167920
        18        19     1        0.109327   299382.412012
        18        20     1        0.109327   299382.412012
        18        21     1        0.109327   299382.412012

[ angles ]
;       ai        aj        ak funct           theta             cth
         1         2         3     1      129.799103      711.801595
         1         2         4     1      115.118080      345.944453
         2         4        11     1      127.474770      372.226863
         2         4        17     1      124.556236      441.642281
         3         2         4     1      115.118080      345.944453
         4        11        10     1      107.994034      435.444903
         4        11        16     1      123.639526      372.114372
         4        17         5     1      109.094727      426.341881
         4        17        18     1      126.889565      424.972805
         5         6         7     1      118.236130      792.346277
         5         6        12     1      121.666245      435.335189
         5        10         9     1      119.078247      739.705676
         5        10        11     1      106.527786      228.470782
         5        17        18     1      123.764633      534.025583
         6         5        10     1      121.581665      649.362597
         6         5        17     1      130.295319      431.572360
         6         7         8     1      120.099258      551.804966
         6         7        13     1      120.229126      421.632168
         7         6        12     1      120.112015      439.420552
         7         8         9     1      122.558006      594.263730
         7         8        14     1      118.362411      337.313357
         8         7        13     1      119.757042      424.955568
         8         9        10     1      118.047264      640.168025
         8         9        15     1      121.041702      416.738141
         9         8        14     1      119.142685      296.906628
         9        10        11     1      134.363892      422.605196
        10         5        17     1      108.026749      216.215012
        10         9        15     1      120.796005      439.048349
        10        11        16     1      128.213409      375.294572
        11         4        17     1      108.920776      245.956679
        17        18        19     1      109.550049      478.710991
        17        18        20     1      109.550049      478.710991
        17        18        21     1      109.550049      478.710991
        19        18        20     1      109.352684      341.903078
        19        18        21     1      109.352684      341.903078
        20        18        21     1      109.352684      341.903078

[ dihedrals ] ; propers for gromacs 4.5 or higher, use funct 9
;       ai        aj        ak        al funct           phase               k        pn
         1         2         4        11     9        0.000000       -0.293308         1
         1         2         4        11     9      180.000000        1.459594         2
         1         2         4        11     9        0.000000        0.079309         3
         1         2         4        11     9      180.000000        0.046615         4
         1         2         4        17     9        0.000000        0.076135         1
         1         2         4        17     9      180.000000        3.279889         2
         1         2         4        17     9        0.000000        0.024520         3
         1         2         4        17     9      180.000000        0.092515         4
         2         4        11        10     9        0.000000       -0.044280         1
         2         4        11        10     9      180.000000       16.636775         2
         2         4        11        10     9        0.000000       -0.638767         3
         2         4        11        10     9      180.000000       -0.846653         4
         2         4        11        16     9        0.000000       -0.030989         1
         2         4        11        16     9      180.000000       12.109817         2
         2         4        11        16     9        0.000000       -0.299019         3
         2         4        11        16     9      180.000000        0.062417         4
         2         4        17         5     9        0.000000       -0.138098         1
         2         4        17         5     9      180.000000        6.530148         2
         2         4        17         5     9        0.000000        0.427529         3
         2         4        17         5     9      180.000000       -0.041296         4
         2         4        17        18     9        0.000000        0.587304         1
         2         4        17        18     9      180.000000        4.276061         2
         2         4        17        18     9        0.000000        0.489681         3
         2         4        17        18     9      180.000000       -0.086987         4
         3         2         4        11     9        0.000000       -0.293308         1
         3         2         4        11     9      180.000000        1.459594         2
         3         2         4        11     9        0.000000        0.079309         3
         3         2         4        11     9      180.000000        0.046615         4
         3         2         4        17     9        0.000000        0.076135         1
         3         2         4        17     9      180.000000        3.279889         2
         3         2         4        17     9        0.000000        0.024520         3
         3         2         4        17     9      180.000000        0.092515         4
         4        11        10         5     9        0.000000        0.003792         1
         4        11        10         5     9      180.000000       22.563923         2
         4        11        10         5     9        0.000000       -7.931748         3
         4        11        10         5     9      180.000000       -0.264768         4
         4        11        10         9     9        0.000000        0.252954         1
         4        11        10         9     9      180.000000        4.699852         2
         4        11        10         9     9        0.000000       -0.690240         3
         4        11        10         9     9      180.000000        0.112757         4
         4        17         5         6     9        0.000000        0.350674         1
         4        17         5         6     9      180.000000        3.432745         2
         4        17         5         6     9        0.000000        0.025986         3
         4        17         5         6     9      180.000000        0.234736         4
         4        17         5        10     9        0.000000        0.041866         1
         4        17         5        10     9      180.000000       17.848796         2
         4        17         5        10     9        0.000000       -5.493679         3
         4        17         5        10     9      180.000000       -0.271965         4
         4        17        18        19     9        0.000000       -0.037562         1
         4        17        18        19     9      180.000000        0.033329         2
         4        17        18        19     9        0.000000       -0.172045         3
         4        17        18        19     9      180.000000        0.069217         4
         4        17        18        20     9        0.000000       -0.037562         1
         4        17        18        20     9      180.000000        0.033329         2
         4        17        18        20     9        0.000000       -0.172045         3
         4        17        18        20     9      180.000000        0.069217         4
         4        17        18        21     9        0.000000       -0.037562         1
         4        17        18        21     9      180.000000        0.033329         2
         4        17        18        21     9        0.000000       -0.172045         3
         4        17        18        21     9      180.000000        0.069217         4
         5         6         7         8     9        0.000000       -0.072268         1
         5         6         7         8     9      180.000000       20.789521         2
         5         6         7         8     9        0.000000       -1.630358         3
         5         6         7         8     9      180.000000       -0.531272         4
         5         6         7        13     9        0.000000       -0.105747         1
         5         6         7        13     9      180.000000       15.704407         2
         5         6         7        13     9        0.000000       -0.653930         3
         5         6         7        13     9      180.000000       -0.013421         4
         5        10         9         8     9        0.000000       -0.030784         1
         5        10         9         8     9      180.000000       18.013292         2
         5        10         9         8     9        0.000000       -1.746646         3
         5        10         9         8     9      180.000000       -0.453388         4
         5        10         9        15     9        0.000000        0.549391         1
         5        10         9        15     9      180.000000       12.465260         2
         5        10         9        15     9        0.000000       -0.370179         3
         5        10         9        15     9      180.000000       -0.059011         4
         5        10        11        16     9        0.000000        1.524175         1
         5        10        11        16     9      180.000000        9.183065         2
         5        10        11        16     9        0.000000        0.229825         3
         5        10        11        16     9      180.000000       -0.135593         4
         5        17         4        11     9        0.000000        0.000942         1
         5        17         4        11     9      180.000000       22.230600         2
         5        17         4        11     9        0.000000       -5.891320         3
         5        17         4        11     9      180.000000       -0.444622         4
         5        17        18        19     9        0.000000       -0.139077         1
         5        17        18        19     9      180.000000       -0.024124         2
         5        17        18        19     9        0.000000        1.113238         3
         5        17        18        19     9      180.000000        0.025124         4
         5        17        18        20     9        0.000000       -0.139077         1
         5        17        18        20     9      180.000000       -0.024124         2
         5        17        18        20     9        0.000000        1.113238         3
         5        17        18        20     9      180.000000        0.025124         4
         5        17        18        21     9        0.000000       -0.139077         1
         5        17        18        21     9      180.000000       -0.024124         2
         5        17        18        21     9        0.000000        1.113238         3
         5        17        18        21     9      180.000000        0.025124         4
         6         5        10         9     9        0.000000       -0.069335         1
         6         5        10         9     9      180.000000       10.429174         2
         6         5        10         9     9        0.000000       -1.239777         3
         6         5        10         9     9      180.000000       -0.035757         4
         6         5        10        11     9        0.000000        0.169413         1
         6         5        10        11     9      180.000000       10.078298         2
         6         5        10        11     9        0.000000       -1.915679         3
         6         5        10        11     9      180.000000        0.088244         4
         6         5        17        18     9        0.000000       -0.013895         1
         6         5        17        18     9      180.000000        2.766385         2
         6         5        17        18     9        0.000000        0.191251         3
         6         5        17        18     9      180.000000        0.299063         4
         6         7         8         9     9        0.000000       -0.164634         1
         6         7         8         9     9      180.000000       16.351632         2
         6         7         8         9     9        0.000000       -1.220083         3
         6         7         8         9     9      180.000000       -0.261323         4
         6         7         8        14     9        0.000000        0.428667         1
         6         7         8        14     9      180.000000       16.406217         2
         6         7         8        14     9        0.000000        0.241510         3
         6         7         8        14     9      180.000000       -0.354091         4
         7         6         5        10     9        0.000000       -0.064773         1
         7         6         5        10     9      180.000000       17.286522         2
         7         6         5        10     9        0.000000       -1.515607         3
         7         6         5        10     9      180.000000       -0.322939         4
         7         6         5        17     9        0.000000        0.292787         1
         7         6         5        17     9      180.000000       15.572614         2
         7         6         5        17     9        0.000000       -0.397749         3
         7         6         5        17     9      180.000000       -0.236441         4
         7         8         9        10     9        0.000000       -0.132436         1
         7         8         9        10     9      180.000000       19.920930         2
         7         8         9        10     9        0.000000       -1.416898         3
         7         8         9        10     9      180.000000       -0.495123         4
         7         8         9        15     9        0.000000        0.058263         1
         7         8         9        15     9      180.000000       14.179911         2
         7         8         9        15     9        0.000000       -0.534665         3
         7         8         9        15     9      180.000000        0.076947         4
         8         7         6        12     9        0.000000        0.120599         1
         8         7         6        12     9      180.000000       14.567152         2
         8         7         6        12     9        0.000000       -0.459375         3
         8         7         6        12     9      180.000000        0.143178         4
         8         9        10        11     9        0.000000        0.066028         1
         8         9        10        11     9      180.000000       12.278810         2
         8         9        10        11     9        0.000000       -0.601258         3
         8         9        10        11     9      180.000000       -0.183492         4
         9         8         7        13     9        0.000000       -0.066340         1
         9         8         7        13     9      180.000000       12.657490         2
         9         8         7        13     9        0.000000       -0.664882         3
         9         8         7        13     9      180.000000        0.129676         4
         9        10         5        17     9        0.000000        0.158839         1
         9        10         5        17     9      180.000000       10.714468         2
         9        10         5        17     9        0.000000       -2.234950         3
         9        10         5        17     9      180.000000        0.073568         4
         9        10        11        16     9        0.000000       -0.261698         1
         9        10        11        16     9      180.000000        4.368238         2
         9        10        11        16     9        0.000000       -0.327742         3
         9        10        11        16     9      180.000000        0.184654         4
        10         5         6        12     9        0.000000        0.116985         1
        10         5         6        12     9      180.000000       12.188548         2
        10         5         6        12     9        0.000000       -0.190266         3
        10         5         6        12     9      180.000000       -0.008031         4
        10         5        17        18     9        0.000000        0.293745         1
        10         5        17        18     9      180.000000        3.002161         2
        10         5        17        18     9        0.000000        0.997640         3
        10         5        17        18     9      180.000000        0.219963         4
        10         9         8        14     9        0.000000        0.285360         1
        10         9         8        14     9      180.000000       21.261902         2
        10         9         8        14     9        0.000000        0.417639         3
        10         9         8        14     9      180.000000       -1.053148         4
        10        11         4        17     9        0.000000       -0.238163         1
        10        11         4        17     9      180.000000       32.303747         2
        10        11         4        17     9        0.000000       -6.488026         3
        10        11         4        17     9      180.000000       -0.778245         4
        11         4        17        18     9        0.000000        0.820660         1
        11         4        17        18     9      180.000000        4.273541         2
        11         4        17        18     9        0.000000        0.539824         3
        11         4        17        18     9      180.000000        0.414244         4
        11        10         5        17     9        0.000000        0.412254         1
        11        10         5        17     9      180.000000       19.321177         2
        11        10         5        17     9        0.000000       -6.620783         3
        11        10         5        17     9      180.000000       -0.161190         4
        11        10         9        15     9        0.000000       -0.157806         1
        11        10         9        15     9      180.000000       10.113582         2
        11        10         9        15     9        0.000000       -0.207576         3
        11        10         9        15     9      180.000000        0.165228         4
        12         6         5        17     9        0.000000        0.025822         1
        12         6         5        17     9      180.000000       11.481754         2
        12         6         5        17     9        0.000000       -0.211953         3
        12         6         5        17     9      180.000000        0.182447         4
        12         6         7        13     9        0.000000       -0.104149         1
        12         6         7        13     9      180.000000       12.261287         2
        12         6         7        13     9        0.000000       -0.719714         3
        12         6         7        13     9      180.000000        0.269607         4
        13         7         8        14     9        0.000000        0.034757         1
        13         7         8        14     9      180.000000       12.337781         2
        13         7         8        14     9        0.000000       -0.039121         3
        13         7         8        14     9      180.000000        0.154655         4
        14         8         9        15     9        0.000000        0.120583         1
        14         8         9        15     9      180.000000       13.566101         2
        14         8         9        15     9        0.000000       -0.050571         3
        14         8         9        15     9      180.000000        0.229622         4
        16        11         4        17     9        0.000000        0.387281         1
        16        11         4        17     9      180.000000       16.153497         2
        16        11         4        17     9        0.000000       -0.413078         3
        16        11         4        17     9      180.000000       -0.353402         4

[ dihedrals ] ; impropers
;       ai        aj        ak        al funct           phase               k        pn
         2         1         3         4     4      180.000000       27.893333         2
         2         3         4         1     4      180.000000       27.893333         2
         2         4         1         3     4      180.000000       27.893333         2

[ pairs ]
;       ai        aj funct
         1        11     1
         1        17     1
         2         5     1
         2        10     1
         2        16     1
         2        18     1
         3        11     1
         3        17     1
         4         6     1
         4         9     1
         4        19     1
         4        20     1
         4        21     1
         5         8     1
         5        13     1
         5        15     1
         5        16     1
         5        19     1
         5        20     1
         5        21     1
         6         9     1
         6        11     1
         6        14     1
         6        18     1
         7        10     1
         7        15     1
         7        17     1
         8        11     1
         8        12     1
         9        13     1
         9        16     1
         9        17     1
        10        12     1
        10        14     1
        10        18     1
        11        15     1
        11        18     1
        12        13     1
        12        17     1
        13        14     1
        14        15     1
        16        17     1
