; ITP file created by ByteFF-ML, 2025-12-06 03:36:23.646198

[ atomtypes ]
;name           bonded.type        at.num        mass        charge   ptype           sigma         epsilon
 o0bf                                   8      0.0000       0.00000       A     3.04473e-01     6.10295e-01
 c1bf                                   6      0.0000       0.00000       A     3.31664e-01     4.10731e-01
 o2bf                                   8      0.0000       0.00000       A     3.04473e-01     6.10295e-01
 c3bf                                   6      0.0000       0.00000       A     3.31605e-01     4.10876e-01
 c4bf                                   6      0.0000       0.00000       A     3.31555e-01     4.10027e-01
 c5bf                                   6      0.0000       0.00000       A     3.31452e-01     4.13079e-01
 c6bf                                   6      0.0000       0.00000       A     3.31551e-01     4.12965e-01
 c7bf                                   6      0.0000       0.00000       A     3.31492e-01     4.13128e-01
 c8bf                                   6      0.0000       0.00000       A     3.31498e-01     4.11502e-01
 c9bf                                   6      0.0000       0.00000       A     3.31449e-01     4.12493e-01
 c10bf                                  6      0.0000       0.00000       A     3.31503e-01     4.09609e-01
 h11bf                                  1      0.0000       0.00000       A     2.62492e-01     6.72679e-02
 h12bf                                  1      0.0000       0.00000       A     2.62487e-01     6.74786e-02
 h13bf                                  1      0.0000       0.00000       A     2.62490e-01     6.69950e-02
 n14bf                                  7      0.0000       0.00000       A     3.20759e-01     8.60313e-01
 h15bf                                  1      0.0000       0.00000       A     1.10652e-01     4.18649e-02
 c16bf                                  6      0.0000       0.00000       A     3.39873e-01     4.50641e-01
 h17bf                                  1      0.0000       0.00000       A     2.59964e-01     8.70321e-02
 h18bf                                  1      0.0000       0.00000       A     2.59964e-01     8.70321e-02
 h19bf                                  1      0.0000       0.00000       A     2.59964e-01     8.70321e-02
 c20bf                                  6      0.0000       0.00000       A     3.31487e-01     4.13016e-01
 c21bf                                  6      0.0000       0.00000       A     3.31479e-01     4.12985e-01
 c22bf                                  6      0.0000       0.00000       A     3.31443e-01     4.13358e-01
 c23bf                                  6      0.0000       0.00000       A     3.31316e-01     4.12024e-01
 c24bf                                  6      0.0000       0.00000       A     3.31443e-01     4.13358e-01
 c25bf                                  6      0.0000       0.00000       A     3.31479e-01     4.12985e-01
 h26bf                                  1      0.0000       0.00000       A     2.62457e-01     6.73477e-02
 h27bf                                  1      0.0000       0.00000       A     2.62462e-01     6.73892e-02
 h28bf                                  1      0.0000       0.00000       A     2.62521e-01     6.75935e-02
 h29bf                                  1      0.0000       0.00000       A     2.62521e-01     6.75935e-02
 h30bf                                  1      0.0000       0.00000       A     2.62462e-01     6.73892e-02

[ moleculetype ]
;name             nrexcl
 15                    3

[ atoms ]
;       nr            type      resi   res      atom      cgnr      charge          mass ; qtot
         1            o0bf         1   UNL        o0         1    -0.71837       15.9990 ; qtot   -0.718
         2            c1bf         1   UNL        c1         2     0.70702       12.0110 ; qtot   -0.011
         3            o2bf         1   UNL        o2         3    -0.71837       15.9990 ; qtot   -0.730
         4            c3bf         1   UNL        c3         4    -0.10190       12.0110 ; qtot   -0.832
         5            c4bf         1   UNL        c4         5    -0.07188       12.0110 ; qtot   -0.903
         6            c5bf         1   UNL        c5         6    -0.10649       12.0110 ; qtot   -1.010
         7            c6bf         1   UNL        c6         7    -0.08848       12.0110 ; qtot   -1.098
         8            c7bf         1   UNL        c7         8    -0.14091       12.0110 ; qtot   -1.239
         9            c8bf         1   UNL        c8         9    -0.07308       12.0110 ; qtot   -1.312
        10            c9bf         1   UNL        c9        10    -0.10406       12.0110 ; qtot   -1.417
        11           c10bf         1   UNL       c10        11    -0.15798       12.0110 ; qtot   -1.575
        12           h11bf         1   UNL       h11        12     0.11093        1.0080 ; qtot   -1.464
        13           h12bf         1   UNL       h12        13     0.11322        1.0080 ; qtot   -1.350
        14           h13bf         1   UNL       h13        14     0.12191        1.0080 ; qtot   -1.228
        15           n14bf         1   UNL       n14        15    -0.23908       14.0070 ; qtot   -1.468
        16           h15bf         1   UNL       h15        16     0.36569        1.0080 ; qtot   -1.102
        17           c16bf         1   UNL       c16        17    -0.04129       12.0110 ; qtot   -1.143
        18           h17bf         1   UNL       h17        18     0.04028        1.0080 ; qtot   -1.103
        19           h18bf         1   UNL       h18        19     0.04028        1.0080 ; qtot   -1.063
        20           h19bf         1   UNL       h19        20     0.04028        1.0080 ; qtot   -1.022
        21           c20bf         1   UNL       c20        21    -0.10586       12.0110 ; qtot   -1.128
        22           c21bf         1   UNL       c21        22    -0.11569       12.0110 ; qtot   -1.244
        23           c22bf         1   UNL       c22        23    -0.11977       12.0110 ; qtot   -1.364
        24           c23bf         1   UNL       c23        24     0.01351       12.0110 ; qtot   -1.350
        25           c24bf         1   UNL       c24        25    -0.11977       12.0110 ; qtot   -1.470
        26           c25bf         1   UNL       c25        26    -0.11569       12.0110 ; qtot   -1.586
        27           h26bf         1   UNL       h26        27     0.11631        1.0080 ; qtot   -1.469
        28           h27bf         1   UNL       h27        28     0.11428        1.0080 ; qtot   -1.355
        29           h28bf         1   UNL       h28        29     0.12033        1.0080 ; qtot   -1.235
        30           h29bf         1   UNL       h29        30     0.12033        1.0080 ; qtot   -1.114
        31           h30bf         1   UNL       h30        31     0.11430        1.0080 ; qtot   -1.000

[ bonds ]
;       ai        aj funct               r               k
         1         2     1        0.126069   483035.036719
         2         3     1        0.126069   483035.036719
         2         4     1        0.153991   120044.511768
         4        11     1        0.139879   302276.992285
         4        15     1        0.138105   270761.390234
         5         6     1        0.140660   286448.427930
         5        10     1        0.142820   235970.347461
         5        15     1        0.137122   294584.448828
         6         7     1        0.139492   312256.128516
         6        17     1        0.150895   208274.394702
         7         8     1        0.141374   278470.839258
         7        12     1        0.108702   315542.805566
         8         9     1        0.139041   329824.868115
         8        13     1        0.108627   318800.395850
         9        10     1        0.141005   294957.673682
         9        14     1        0.108496   321780.270068
        10        11     1        0.144800   221230.864209
        11        24     1        0.147334   225030.735010
        15        16     1        0.101689   404831.163379
        17        18     1        0.109510   297097.657910
        17        19     1        0.109510   297097.657910
        17        20     1        0.109510   297097.657910
        21        22     1        0.139961   304980.708203
        21        26     1        0.139961   304980.708203
        21        27     1        0.108616   320706.562305
        22        23     1        0.139689   313823.008936
        22        28     1        0.108652   318855.811377
        23        24     1        0.141056   277174.473437
        23        29     1        0.108543   320395.775684
        24        25     1        0.141056   277174.473437
        25        26     1        0.139689   313822.983398
        25        30     1        0.108543   320395.775684
        26        31     1        0.108652   318855.811377

[ angles ]
;       ai        aj        ak funct           theta             cth
         1         2         3     1      130.251617      709.505554
         1         2         4     1      114.979309      325.362756
         2         4        11     1      137.815582      318.135818
         2         4        15     1      114.269997      377.726759
         3         2         4     1      114.979309      325.362756
         4        11        10     1      106.612610      415.508561
         4        11        24     1      129.018585      411.839676
         4        15         5     1      111.098839      410.227263
         4        15        16     1      116.958961      387.572176
         5         6         7     1      116.113632      788.093837
         5         6        17     1      120.963821      459.520524
         5        10         9     1      118.536072      742.622844
         5        10        11     1      107.433472      167.360000
         5        15        16     1      131.976700      287.919257
         6         5        10     1      123.236938      631.357658
         6         5        15     1      129.986084      442.355149
         6         7         8     1      122.054115      632.337006
         6         7        12     1      118.804031      413.743627
         6        17        18     1      111.376099      472.058989
         6        17        19     1      111.376099      472.058989
         6        17        20     1      111.376099      472.058989
         7         6        17     1      122.907021      484.785344
         7         8         9     1      121.203430      642.735015
         7         8        13     1      119.072632      449.176718
         8         7        12     1      119.014137      445.550863
         8         9        10     1      118.852554      719.324509
         8         9        14     1      120.932373      428.814640
         9         8        13     1      119.807396      445.688253
         9        10        11     1      134.394928      420.826600
        10         5        15     1      106.993248      177.806497
        10         9        14     1      120.347900      440.434886
        10        11        24     1      124.635498      418.592263
        11         4        15     1      108.397118      251.779682
        11        24        23     1      121.091759      460.467121
        11        24        25     1      121.091759      460.467121
        18        17        19     1      107.461288      361.781675
        18        17        20     1      107.461288      361.781675
        19        17        20     1      107.461288      361.781675
        21        22        23     1      120.261551      714.533109
        21        22        28     1      120.100784      432.525948
        21        26        25     1      120.261551      714.533172
        21        26        31     1      120.100784      432.525948
        22        21        26     1      119.478737      686.179894
        22        21        27     1      120.272484      426.530441
        22        23        24     1      121.158585      721.647364
        22        23        29     1      119.971664      420.385383
        23        22        28     1      119.651993      427.871044
        23        24        25     1      117.607826      712.916609
        24        23        29     1      118.948891      414.894585
        24        25        26     1      121.158585      721.647364
        24        25        30     1      118.948891      414.894617
        25        26        31     1      119.651993      427.871107
        26        21        27     1      120.272484      426.530409
        26        25        30     1      119.971664      420.385383

[ dihedrals ] ; propers for gromacs 4.5 or higher, use funct 9
;       ai        aj        ak        al funct           phase               k        pn
         1         2         4        11     9        0.000000       -5.891257         1
         1         2         4        11     9      180.000000        1.561809         2
         1         2         4        11     9        0.000000       -0.105488         3
         1         2         4        11     9      180.000000       -0.067847         4
         1         2         4        15     9        0.000000        9.647714         1
         1         2         4        15     9      180.000000        2.248267         2
         1         2         4        15     9        0.000000        1.229729         3
         1         2         4        15     9      180.000000        0.439593         4
         2         4        11        10     9        0.000000        0.835033         1
         2         4        11        10     9      180.000000       16.604157         2
         2         4        11        10     9        0.000000       -1.152427         3
         2         4        11        10     9      180.000000       -0.865841         4
         2         4        11        24     9        0.000000        0.238809         1
         2         4        11        24     9      180.000000       12.620171         2
         2         4        11        24     9        0.000000        0.377174         3
         2         4        11        24     9      180.000000       -0.854588         4
         2         4        15         5     9        0.000000       -0.625173         1
         2         4        15         5     9      180.000000        8.615800         2
         2         4        15         5     9        0.000000        0.503906         3
         2         4        15         5     9      180.000000       -0.317949         4
         2         4        15        16     9        0.000000        0.095062         1
         2         4        15        16     9      180.000000        3.240482         2
         2         4        15        16     9        0.000000        0.221922         3
         2         4        15        16     9      180.000000        0.187606         4
         3         2         4        11     9        0.000000       -5.891257         1
         3         2         4        11     9      180.000000        1.561809         2
         3         2         4        11     9        0.000000       -0.105488         3
         3         2         4        11     9      180.000000       -0.067847         4
         3         2         4        15     9        0.000000        9.647714         1
         3         2         4        15     9      180.000000        2.248267         2
         3         2         4        15     9        0.000000        1.229729         3
         3         2         4        15     9      180.000000        0.439593         4
         4        11        10         5     9        0.000000        0.146446         1
         4        11        10         5     9      180.000000       22.706564         2
         4        11        10         5     9        0.000000       -9.101460         3
         4        11        10         5     9      180.000000        0.176690         4
         4        11        10         9     9        0.000000       -0.098392         1
         4        11        10         9     9      180.000000        3.438935         2
         4        11        10         9     9        0.000000       -1.365511         3
         4        11        10         9     9      180.000000        0.267043         4
         4        11        24        23     9        0.000000        0.563657         1
         4        11        24        23     9      180.000000        3.344425         2
         4        11        24        23     9        0.000000       -0.032519         3
         4        11        24        23     9      180.000000        0.516251         4
         4        11        24        25     9        0.000000        0.563658         1
         4        11        24        25     9      180.000000        3.344426         2
         4        11        24        25     9        0.000000       -0.032519         3
         4        11        24        25     9      180.000000        0.516251         4
         4        15         5         6     9        0.000000       -0.729094         1
         4        15         5         6     9      180.000000        4.593834         2
         4        15         5         6     9        0.000000        0.179012         3
         4        15         5         6     9      180.000000        0.030740         4
         4        15         5        10     9        0.000000       -1.152462         1
         4        15         5        10     9      180.000000       17.140566         2
         4        15         5        10     9        0.000000       -4.934122         3
         4        15         5        10     9      180.000000       -0.439960         4
         5         6         7         8     9        0.000000       -0.073077         1
         5         6         7         8     9      180.000000       22.162596         2
         5         6         7         8     9        0.000000       -1.585984         3
         5         6         7         8     9      180.000000       -0.631953         4
         5         6         7        12     9        0.000000       -0.083492         1
         5         6         7        12     9      180.000000       17.091295         2
         5         6         7        12     9        0.000000       -0.631172         3
         5         6         7        12     9      180.000000       -0.155919         4
         5         6        17        18     9        0.000000       -0.041591         1
         5         6        17        18     9      180.000000        0.023648         2
         5         6        17        18     9        0.000000        0.403433         3
         5         6        17        18     9      180.000000        0.047572         4
         5         6        17        19     9        0.000000       -0.041591         1
         5         6        17        19     9      180.000000        0.023648         2
         5         6        17        19     9        0.000000        0.403433         3
         5         6        17        19     9      180.000000        0.047572         4
         5         6        17        20     9        0.000000       -0.041591         1
         5         6        17        20     9      180.000000        0.023648         2
         5         6        17        20     9        0.000000        0.403433         3
         5         6        17        20     9      180.000000        0.047572         4
         5        10         9         8     9        0.000000        0.098556         1
         5        10         9         8     9      180.000000       19.587222         2
         5        10         9         8     9        0.000000       -1.660384         3
         5        10         9         8     9      180.000000       -0.498403         4
         5        10         9        14     9        0.000000        0.524759         1
         5        10         9        14     9      180.000000       13.586194         2
         5        10         9        14     9        0.000000       -0.061954         3
         5        10         9        14     9      180.000000       -0.021262         4
         5        10        11        24     9        0.000000        1.605631         1
         5        10        11        24     9      180.000000       11.676098         2
         5        10        11        24     9        0.000000        0.706162         3
         5        10        11        24     9      180.000000       -0.553966         4
         5        15         4        11     9        0.000000        0.152444         1
         5        15         4        11     9      180.000000       20.968836         2
         5        15         4        11     9        0.000000       -5.451009         3
         5        15         4        11     9      180.000000       -0.911334         4
         6         5        10         9     9        0.000000       -0.216064         1
         6         5        10         9     9      180.000000        8.993105         2
         6         5        10         9     9        0.000000       -1.687448         3
         6         5        10         9     9      180.000000        0.076449         4
         6         5        10        11     9        0.000000       -0.213827         1
         6         5        10        11     9      180.000000       10.210344         2
         6         5        10        11     9        0.000000       -2.717853         3
         6         5        10        11     9      180.000000        0.172884         4
         6         5        15        16     9        0.000000        1.204221         1
         6         5        15        16     9      180.000000        0.288186         2
         6         5        15        16     9        0.000000        0.266673         3
         6         5        15        16     9      180.000000       -0.190570         4
         6         7         8         9     9        0.000000        0.108554         1
         6         7         8         9     9      180.000000       17.056499         2
         6         7         8         9     9        0.000000       -1.518010         3
         6         7         8         9     9      180.000000       -0.341525         4
         6         7         8        13     9        0.000000        0.138629         1
         6         7         8        13     9      180.000000       13.303518         2
         6         7         8        13     9        0.000000       -0.723879         3
         6         7         8        13     9      180.000000        0.120344         4
         7         6         5        10     9        0.000000        0.001342         1
         7         6         5        10     9      180.000000       16.587952         2
         7         6         5        10     9        0.000000       -1.295886         3
         7         6         5        10     9      180.000000       -0.364294         4
         7         6         5        15     9        0.000000        0.123101         1
         7         6         5        15     9      180.000000       16.199354         2
         7         6         5        15     9        0.000000       -0.358426         3
         7         6         5        15     9      180.000000       -0.403209         4
         7         6        17        18     9        0.000000       -0.009062         1
         7         6        17        18     9      180.000000        0.029819         2
         7         6        17        18     9        0.000000       -0.048834         3
         7         6        17        18     9      180.000000       -0.019828         4
         7         6        17        19     9        0.000000       -0.009062         1
         7         6        17        19     9      180.000000        0.029819         2
         7         6        17        19     9        0.000000       -0.048834         3
         7         6        17        19     9      180.000000       -0.019828         4
         7         6        17        20     9        0.000000       -0.009062         1
         7         6        17        20     9      180.000000        0.029819         2
         7         6        17        20     9        0.000000       -0.048834         3
         7         6        17        20     9      180.000000       -0.019828         4
         7         8         9        10     9        0.000000       -0.084095         1
         7         8         9        10     9      180.000000       21.008578         2
         7         8         9        10     9        0.000000       -1.889647         3
         7         8         9        10     9      180.000000       -0.474888         4
         7         8         9        14     9        0.000000        0.007555         1
         7         8         9        14     9      180.000000       15.354493         2
         7         8         9        14     9        0.000000       -0.530903         3
         7         8         9        14     9      180.000000        0.085012         4
         8         7         6        17     9        0.000000        0.165784         1
         8         7         6        17     9      180.000000       16.721869         2
         8         7         6        17     9        0.000000       -0.105994         3
         8         7         6        17     9      180.000000       -0.170944         4
         8         9        10        11     9        0.000000        0.043364         1
         8         9        10        11     9      180.000000       14.068024         2
         8         9        10        11     9        0.000000       -0.814722         3
         8         9        10        11     9      180.000000       -0.173612         4
         9         8         7        12     9        0.000000        0.073229         1
         9         8         7        12     9      180.000000       13.389130         2
         9         8         7        12     9        0.000000       -0.751651         3
         9         8         7        12     9      180.000000        0.166620         4
         9        10         5        15     9        0.000000        0.114024         1
         9        10         5        15     9      180.000000       10.920639         2
         9        10         5        15     9        0.000000       -1.843483         3
         9        10         5        15     9      180.000000       -0.035784         4
         9        10        11        24     9        0.000000       -0.029015         1
         9        10        11        24     9      180.000000        6.607830         2
         9        10        11        24     9        0.000000        0.206747         3
         9        10        11        24     9      180.000000       -0.019259         4
        10         5         6        17     9        0.000000       -0.008068         1
        10         5         6        17     9      180.000000       12.433672         2
        10         5         6        17     9        0.000000        0.079246         3
        10         5         6        17     9      180.000000       -0.247300         4
        10         5        15        16     9        0.000000        0.734302         1
        10         5        15        16     9      180.000000        1.005473         2
        10         5        15        16     9        0.000000        0.494748         3
        10         5        15        16     9      180.000000        0.236841         4
        10         9         8        13     9        0.000000        0.011134         1
        10         9         8        13     9      180.000000       15.925569         2
        10         9         8        13     9        0.000000       -0.662137         3
        10         9         8        13     9      180.000000       -0.024991         4
        10        11         4        15     9        0.000000       -0.374765         1
        10        11         4        15     9      180.000000       32.063948         2
        10        11         4        15     9        0.000000       -6.067155         3
        10        11         4        15     9      180.000000       -0.641661         4
        10        11        24        23     9        0.000000       -0.036926         1
        10        11        24        23     9      180.000000        4.914677         2
        10        11        24        23     9        0.000000       -0.231423         3
        10        11        24        23     9      180.000000        1.234035         4
        10        11        24        25     9        0.000000       -0.036925         1
        10        11        24        25     9      180.000000        4.914677         2
        10        11        24        25     9        0.000000       -0.231423         3
        10        11        24        25     9      180.000000        1.234035         4
        11         4        15        16     9        0.000000        2.248876         1
        11         4        15        16     9      180.000000        3.557849         2
        11         4        15        16     9        0.000000        0.862607         3
        11         4        15        16     9      180.000000        0.147315         4
        11        10         5        15     9        0.000000        0.154694         1
        11        10         5        15     9      180.000000       19.852108         2
        11        10         5        15     9        0.000000       -6.522602         3
        11        10         5        15     9      180.000000       -0.443798         4
        11        10         9        14     9        0.000000       -0.079614         1
        11        10         9        14     9      180.000000       10.356968         2
        11        10         9        14     9        0.000000       -0.232953         3
        11        10         9        14     9      180.000000        0.106868         4
        11        24        23        22     9        0.000000        0.312497         1
        11        24        23        22     9      180.000000       15.434578         2
        11        24        23        22     9        0.000000        0.057753         3
        11        24        23        22     9      180.000000       -0.304975         4
        11        24        23        29     9        0.000000       -0.028764         1
        11        24        23        29     9      180.000000       13.060322         2
        11        24        23        29     9        0.000000       -0.225663         3
        11        24        23        29     9      180.000000        0.194267         4
        11        24        25        26     9        0.000000        0.312498         1
        11        24        25        26     9      180.000000       15.434578         2
        11        24        25        26     9        0.000000        0.057753         3
        11        24        25        26     9      180.000000       -0.304975         4
        11        24        25        30     9        0.000000       -0.028765         1
        11        24        25        30     9      180.000000       13.060321         2
        11        24        25        30     9        0.000000       -0.225663         3
        11        24        25        30     9      180.000000        0.194267         4
        12         7         6        17     9        0.000000       -0.108675         1
        12         7         6        17     9      180.000000       13.110079         2
        12         7         6        17     9        0.000000       -0.356662         3
        12         7         6        17     9      180.000000        0.246335         4
        12         7         8        13     9        0.000000       -0.269495         1
        12         7         8        13     9      180.000000       10.088334         2
        12         7         8        13     9        0.000000       -0.428261         3
        12         7         8        13     9      180.000000        0.173867         4
        13         8         9        14     9        0.000000       -0.216801         1
        13         8         9        14     9      180.000000       12.419695         2
        13         8         9        14     9        0.000000       -0.682538         3
        13         8         9        14     9      180.000000        0.297882         4
        15         4        11        24     9        0.000000        1.185197         1
        15         4        11        24     9      180.000000       17.402395         2
        15         4        11        24     9        0.000000        0.123033         3
        15         4        11        24     9      180.000000       -0.992668         4
        15         5         6        17     9        0.000000        0.091518         1
        15         5         6        17     9      180.000000       13.754409         2
        15         5         6        17     9        0.000000        0.001980         3
        15         5         6        17     9      180.000000       -0.313609         4
        21        22        23        24     9        0.000000       -0.108904         1
        21        22        23        24     9      180.000000       18.899197         2
        21        22        23        24     9        0.000000       -1.387926         3
        21        22        23        24     9      180.000000       -0.455375         4
        21        22        23        29     9        0.000000        0.052912         1
        21        22        23        29     9      180.000000       14.793339         2
        21        22        23        29     9        0.000000       -0.669788         3
        21        22        23        29     9      180.000000        0.127398         4
        21        26        25        24     9        0.000000       -0.108905         1
        21        26        25        24     9      180.000000       18.899197         2
        21        26        25        24     9        0.000000       -1.387926         3
        21        26        25        24     9      180.000000       -0.455375         4
        21        26        25        30     9        0.000000        0.052912         1
        21        26        25        30     9      180.000000       14.793338         2
        21        26        25        30     9        0.000000       -0.669788         3
        21        26        25        30     9      180.000000        0.127398         4
        22        21        26        25     9        0.000000       -0.017429         1
        22        21        26        25     9      180.000000       18.442017         2
        22        21        26        25     9        0.000000       -1.534877         3
        22        21        26        25     9      180.000000       -0.391901         4
        22        21        26        31     9        0.000000        0.013207         1
        22        21        26        31     9      180.000000       14.294612         2
        22        21        26        31     9        0.000000       -0.695467         3
        22        21        26        31     9      180.000000        0.140930         4
        22        23        24        25     9        0.000000       -0.048344         1
        22        23        24        25     9      180.000000       18.032579         2
        22        23        24        25     9        0.000000       -1.108067         3
        22        23        24        25     9      180.000000       -0.467538         4
        23        22        21        26     9        0.000000       -0.017428         1
        23        22        21        26     9      180.000000       18.442015         2
        23        22        21        26     9        0.000000       -1.534876         3
        23        22        21        26     9      180.000000       -0.391901         4
        23        22        21        27     9        0.000000        0.028147         1
        23        22        21        27     9      180.000000       13.913170         2
        23        22        21        27     9        0.000000       -0.718134         3
        23        22        21        27     9      180.000000        0.138450         4
        23        24        25        26     9        0.000000       -0.048345         1
        23        24        25        26     9      180.000000       18.032579         2
        23        24        25        26     9        0.000000       -1.108066         3
        23        24        25        26     9      180.000000       -0.467537         4
        23        24        25        30     9        0.000000        0.046238         1
        23        24        25        30     9      180.000000       13.307744         2
        23        24        25        30     9        0.000000       -0.338137         3
        23        24        25        30     9      180.000000        0.191891         4
        24        23        22        28     9        0.000000       -0.052775         1
        24        23        22        28     9      180.000000       14.663959         2
        24        23        22        28     9        0.000000       -0.516831         3
        24        23        22        28     9      180.000000        0.079397         4
        24        25        26        31     9        0.000000       -0.052775         1
        24        25        26        31     9      180.000000       14.663961         2
        24        25        26        31     9        0.000000       -0.516831         3
        24        25        26        31     9      180.000000        0.079397         4
        25        24        23        29     9        0.000000        0.046238         1
        25        24        23        29     9      180.000000       13.307743         2
        25        24        23        29     9        0.000000       -0.338137         3
        25        24        23        29     9      180.000000        0.191890         4
        25        26        21        27     9        0.000000        0.028146         1
        25        26        21        27     9      180.000000       13.913173         2
        25        26        21        27     9        0.000000       -0.718134         3
        25        26        21        27     9      180.000000        0.138450         4
        26        21        22        28     9        0.000000        0.013207         1
        26        21        22        28     9      180.000000       14.294610         2
        26        21        22        28     9        0.000000       -0.695467         3
        26        21        22        28     9      180.000000        0.140930         4
        27        21        22        28     9        0.000000       -0.090246         1
        27        21        22        28     9      180.000000       11.320692         2
        27        21        22        28     9        0.000000       -0.539114         3
        27        21        22        28     9      180.000000        0.243654         4
        27        21        26        31     9        0.000000       -0.090247         1
        27        21        26        31     9      180.000000       11.320692         2
        27        21        26        31     9        0.000000       -0.539114         3
        27        21        26        31     9      180.000000        0.243654         4
        28        22        23        29     9        0.000000       -0.160743         1
        28        22        23        29     9      180.000000       12.144067         2
        28        22        23        29     9        0.000000       -0.666469         3
        28        22        23        29     9      180.000000        0.289106         4
        30        25        26        31     9        0.000000       -0.160743         1
        30        25        26        31     9      180.000000       12.144065         2
        30        25        26        31     9        0.000000       -0.666469         3
        30        25        26        31     9      180.000000        0.289107         4

[ dihedrals ] ; impropers
;       ai        aj        ak        al funct           phase               k        pn
         2         1         3         4     4      180.000000       27.893333         2
         2         3         4         1     4      180.000000       27.893333         2
         2         4         1         3     4      180.000000       27.893333         2
        21        22        26        27     4      180.000000        1.020403         2
        21        26        27        22     4      180.000000        1.020403         2
        21        27        22        26     4      180.000000        1.020403         2
        22        21        23        28     4      180.000000        1.627100         2
        22        23        28        21     4      180.000000        1.627100         2
        22        28        21        23     4      180.000000        1.627100         2
        26        21        25        31     4      180.000000        1.627099         2
        26        25        31        21     4      180.000000        1.627099         2
        26        31        21        25     4      180.000000        1.627099         2

[ pairs ]
;       ai        aj funct
         1        11     1
         1        15     1
         2         5     1
         2        10     1
         2        16     1
         2        24     1
         3        11     1
         3        15     1
         4         6     1
         4         9     1
         4        23     1
         4        25     1
         5         8     1
         5        12     1
         5        14     1
         5        18     1
         5        19     1
         5        20     1
         5        24     1
         6         9     1
         6        11     1
         6        13     1
         6        16     1
         7        10     1
         7        14     1
         7        15     1
         7        18     1
         7        19     1
         7        20     1
         8        11     1
         8        17     1
         9        12     1
         9        15     1
         9        24     1
        10        13     1
        10        16     1
        10        17     1
        10        23     1
        10        25     1
        11        14     1
        11        16     1
        11        22     1
        11        26     1
        11        29     1
        11        30     1
        12        13     1
        12        17     1
        13        14     1
        15        17     1
        15        24     1
        21        24     1
        21        29     1
        21        30     1
        22        25     1
        22        31     1
        23        26     1
        23        27     1
        23        30     1
        24        28     1
        24        31     1
        25        27     1
        25        29     1
        26        28     1
        27        28     1
        27        31     1
        28        29     1
        30        31     1
