; ITP file created by ByteFF-ML, 2025-12-06 03:35:14.044725

[ atomtypes ]
;name           bonded.type        at.num        mass        charge   ptype           sigma         epsilon
 o0bf                                   8      0.0000       0.00000       A     3.04978e-01     6.11714e-01
 c1bf                                   6      0.0000       0.00000       A     3.31556e-01     4.11590e-01
 o2bf                                   8      0.0000       0.00000       A     3.04978e-01     6.11714e-01
 c3bf                                   6      0.0000       0.00000       A     3.31842e-01     4.13936e-01
 s4bf                                  16      0.0000       0.00000       A     3.53490e-01     1.18488e+00
 c5bf                                   6      0.0000       0.00000       A     3.31383e-01     4.12431e-01
 c6bf                                   6      0.0000       0.00000       A     3.31496e-01     4.12084e-01
 c7bf                                   6      0.0000       0.00000       A     3.31523e-01     4.12702e-01
 c8bf                                   6      0.0000       0.00000       A     3.31513e-01     4.12386e-01
 c9bf                                   6      0.0000       0.00000       A     3.31470e-01     4.13332e-01
 c10bf                                  6      0.0000       0.00000       A     3.31527e-01     4.13483e-01
 c11bf                                  6      0.0000       0.00000       A     3.31501e-01     4.13219e-01
 h12bf                                  1      0.0000       0.00000       A     2.62394e-01     6.71578e-02
 cl13bf                                17      0.0000       0.00000       A     3.46694e-01     1.10425e+00
 h14bf                                  1      0.0000       0.00000       A     2.62494e-01     6.72839e-02
 h15bf                                  1      0.0000       0.00000       A     2.62512e-01     6.70381e-02
 cl16bf                                17      0.0000       0.00000       A     3.46880e-01     1.10743e+00

[ moleculetype ]
;name             nrexcl
 4                     3

[ atoms ]
;       nr            type      resi   res      atom      cgnr      charge          mass ; qtot
         1            o0bf         1   UNL        o0         1    -0.71928       15.9990 ; qtot   -0.719
         2            c1bf         1   UNL        c1         2     0.71135       12.0110 ; qtot   -0.008
         3            o2bf         1   UNL        o2         3    -0.71928       15.9990 ; qtot   -0.727
         4            c3bf         1   UNL        c3         4    -0.07305       12.0110 ; qtot   -0.800
         5            s4bf         1   UNL        s4         5     0.08550       32.0670 ; qtot   -0.715
         6            c5bf         1   UNL        c5         6    -0.19111       12.0110 ; qtot   -0.906
         7            c6bf         1   UNL        c6         7    -0.07322       12.0110 ; qtot   -0.979
         8            c7bf         1   UNL        c7         8     0.13648       12.0110 ; qtot   -0.843
         9            c8bf         1   UNL        c8         9    -0.10572       12.0110 ; qtot   -0.948
        10            c9bf         1   UNL        c9        10    -0.06078       12.0110 ; qtot   -1.009
        11           c10bf         1   UNL       c10        11    -0.06547       12.0110 ; qtot   -1.075
        12           c11bf         1   UNL       c11        12     0.07531       12.0110 ; qtot   -0.999
        13           h12bf         1   UNL       h12        13     0.14144        1.0080 ; qtot   -0.858
        14          cl13bf         1   UNL      cl13        14    -0.21134       35.4530 ; qtot   -1.069
        15           h14bf         1   UNL       h14        15     0.13626        1.0080 ; qtot   -0.933
        16           h15bf         1   UNL       h15        16     0.13437        1.0080 ; qtot   -0.799
        17          cl16bf         1   UNL      cl16        17    -0.20146       35.4530 ; qtot   -1.000

[ bonds ]
;       ai        aj funct               r               k
         1         2     1        0.125647   495326.660352
         2         3     1        0.125647   495326.660352
         2         4     1        0.154358   106368.764038
         4         5     1        0.176396   128522.627783
         4        12     1        0.136815   378545.484717
         5         6     1        0.174877   157672.088965
         6         7     1        0.139997   304675.871729
         6        11     1        0.142071   249492.706543
         7         8     1        0.139127   312039.701514
         7        13     1        0.108438   324784.710986
         8         9     1        0.140812   279329.882080
         8        14     1        0.175897   147428.477661
         9        10     1        0.138793   333788.253027
         9        15     1        0.108448   325513.642236
        10        11     1        0.140741   291778.431250
        10        16     1        0.108472   324120.414160
        11        12     1        0.144174   230945.691357
        12        17     1        0.174857   157324.158618

[ angles ]
;       ai        aj        ak funct           theta             cth
         1         2         3     1      131.184891      697.819390
         1         2         4     1      114.284973      327.702402
         2         4         5     1      114.407265      568.233563
         2         4        12     1      134.031128      421.985570
         3         2         4     1      114.284973      327.702402
         4         5         6     1       91.602608      500.745941
         4        12        11     1      114.530685      360.159206
         4        12        17     1      124.907814      325.278995
         5         4        12     1      111.347107      167.360000
         5         6         7     1      127.042908      363.920759
         5         6        11     1      111.590332      167.360000
         6         7         8     1      117.579895      656.238911
         6         7        13     1      121.615112      425.606508
         6        11        10     1      118.854286      693.553416
         6        11        12     1      111.208679      470.633763
         7         6        11     1      121.552780      685.279073
         7         8         9     1      122.088425      600.807103
         7         8        14     1      119.107376      331.972143
         8         7        13     1      120.724754      431.215703
         8         9        10     1      119.885864      614.282142
         8         9        15     1      119.506325      436.299407
         9         8        14     1      118.808739      401.176177
         9        10        11     1      120.102089      716.319876
         9        10        16     1      120.308311      430.056062
        10         9        15     1      120.792404      425.424684
        10        11        12     1      129.715317      377.561087
        11        10        16     1      119.632668      434.713201
        11        12        17     1      120.205711      385.123774

[ dihedrals ] ; propers for gromacs 4.5 or higher, use funct 9
;       ai        aj        ak        al funct           phase               k        pn
         1         2         4         5     9        0.000000        0.234091         1
         1         2         4         5     9      180.000000        3.492737         2
         1         2         4         5     9        0.000000        0.181866         3
         1         2         4         5     9      180.000000        0.253052         4
         1         2         4        12     9        0.000000       -3.086416         1
         1         2         4        12     9      180.000000        1.828336         2
         1         2         4        12     9        0.000000        0.005220         3
         1         2         4        12     9      180.000000        0.108289         4
         2         4         5         6     9        0.000000       -0.515528         1
         2         4         5         6     9      180.000000       11.158338         2
         2         4         5         6     9        0.000000       -0.655626         3
         2         4         5         6     9      180.000000       -0.055100         4
         2         4        12        11     9        0.000000       -0.462417         1
         2         4        12        11     9      180.000000       16.141773         2
         2         4        12        11     9        0.000000       -0.821084         3
         2         4        12        11     9      180.000000       -0.812503         4
         2         4        12        17     9        0.000000        0.085985         1
         2         4        12        17     9      180.000000       16.984348         2
         2         4        12        17     9        0.000000        0.645950         3
         2         4        12        17     9      180.000000       -1.059974         4
         3         2         4         5     9        0.000000        0.234091         1
         3         2         4         5     9      180.000000        3.492737         2
         3         2         4         5     9        0.000000        0.181866         3
         3         2         4         5     9      180.000000        0.253052         4
         3         2         4        12     9        0.000000       -3.086416         1
         3         2         4        12     9      180.000000        1.828336         2
         3         2         4        12     9        0.000000        0.005220         3
         3         2         4        12     9      180.000000        0.108289         4
         4         5         6         7     9        0.000000        0.131789         1
         4         5         6         7     9      180.000000        5.990859         2
         4         5         6         7     9        0.000000       -0.338925         3
         4         5         6         7     9      180.000000        0.356765         4
         4         5         6        11     9        0.000000       -0.206955         1
         4         5         6        11     9      180.000000       21.256769         2
         4         5         6        11     9        0.000000       -5.243569         3
         4         5         6        11     9      180.000000       -0.474971         4
         4        12        11         6     9        0.000000       -0.029395         1
         4        12        11         6     9      180.000000       15.856991         2
         4        12        11         6     9        0.000000       -4.724752         3
         4        12        11         6     9      180.000000        0.209626         4
         4        12        11        10     9        0.000000       -0.394680         1
         4        12        11        10     9      180.000000        4.113206         2
         4        12        11        10     9        0.000000       -1.051099         3
         4        12        11        10     9      180.000000        0.299202         4
         5         4        12        11     9        0.000000       -0.278443         1
         5         4        12        11     9      180.000000       26.406734         2
         5         4        12        11     9        0.000000       -3.521317         3
         5         4        12        11     9      180.000000       -1.133673         4
         5         4        12        17     9        0.000000        0.453482         1
         5         4        12        17     9      180.000000       24.524312         2
         5         4        12        17     9        0.000000        0.770014         3
         5         4        12        17     9      180.000000       -1.506883         4
         5         6         7         8     9        0.000000       -0.055884         1
         5         6         7         8     9      180.000000       13.739593         2
         5         6         7         8     9        0.000000       -0.396435         3
         5         6         7         8     9      180.000000       -0.279628         4
         5         6         7        13     9        0.000000        0.006492         1
         5         6         7        13     9      180.000000       11.111646         2
         5         6         7        13     9        0.000000       -0.168048         3
         5         6         7        13     9      180.000000        0.040598         4
         5         6        11        10     9        0.000000        0.274198         1
         5         6        11        10     9      180.000000       11.896551         2
         5         6        11        10     9        0.000000       -1.024308         3
         5         6        11        10     9      180.000000       -0.206416         4
         5         6        11        12     9        0.000000       -0.119108         1
         5         6        11        12     9      180.000000       16.011624         2
         5         6        11        12     9        0.000000       -3.348232         3
         5         6        11        12     9      180.000000       -0.412377         4
         6         5         4        12     9        0.000000        0.186219         1
         6         5         4        12     9      180.000000       20.732969         2
         6         5         4        12     9        0.000000       -5.324790         3
         6         5         4        12     9      180.000000       -0.426407         4
         6         7         8         9     9        0.000000       -0.207448         1
         6         7         8         9     9      180.000000       19.182575         2
         6         7         8         9     9        0.000000       -1.525151         3
         6         7         8         9     9      180.000000       -0.476266         4
         6         7         8        14     9        0.000000        0.268925         1
         6         7         8        14     9      180.000000       21.271379         2
         6         7         8        14     9        0.000000        0.227557         3
         6         7         8        14     9      180.000000       -0.883668         4
         6        11        10         9     9        0.000000       -0.240861         1
         6        11        10         9     9      180.000000       18.156340         2
         6        11        10         9     9        0.000000       -1.415360         3
         6        11        10         9     9      180.000000       -0.392553         4
         6        11        10        16     9        0.000000        0.177104         1
         6        11        10        16     9      180.000000       13.267507         2
         6        11        10        16     9        0.000000       -0.275321         3
         6        11        10        16     9      180.000000        0.008255         4
         6        11        12        17     9        0.000000        1.164614         1
         6        11        12        17     9      180.000000       14.549455         2
         6        11        12        17     9        0.000000        0.557154         3
         6        11        12        17     9      180.000000       -0.428554         4
         7         6        11        10     9        0.000000        0.027954         1
         7         6        11        10     9      180.000000       12.214062         2
         7         6        11        10     9        0.000000       -1.331114         3
         7         6        11        10     9      180.000000       -0.118275         4
         7         6        11        12     9        0.000000        0.170758         1
         7         6        11        12     9      180.000000       12.671352         2
         7         6        11        12     9        0.000000       -1.725167         3
         7         6        11        12     9      180.000000       -0.105962         4
         7         8         9        10     9        0.000000       -0.161114         1
         7         8         9        10     9      180.000000       16.059564         2
         7         8         9        10     9        0.000000       -1.203900         3
         7         8         9        10     9      180.000000       -0.223522         4
         7         8         9        15     9        0.000000       -0.004557         1
         7         8         9        15     9      180.000000       12.742692         2
         7         8         9        15     9        0.000000       -0.557676         3
         7         8         9        15     9      180.000000        0.142127         4
         8         7         6        11     9        0.000000        0.027113         1
         8         7         6        11     9      180.000000       17.578483         2
         8         7         6        11     9        0.000000       -1.303959         3
         8         7         6        11     9      180.000000       -0.307541         4
         8         9        10        11     9        0.000000       -0.291131         1
         8         9        10        11     9      180.000000       20.595118         2
         8         9        10        11     9        0.000000       -1.685918         3
         8         9        10        11     9      180.000000       -0.467330         4
         8         9        10        16     9        0.000000        0.011012         1
         8         9        10        16     9      180.000000       15.195854         2
         8         9        10        16     9        0.000000       -0.506231         3
         8         9        10        16     9      180.000000        0.136282         4
         9         8         7        13     9        0.000000        0.011192         1
         9         8         7        13     9      180.000000       14.005133         2
         9         8         7        13     9        0.000000       -0.513795         3
         9         8         7        13     9      180.000000        0.118690         4
         9        10        11        12     9        0.000000       -0.147519         1
         9        10        11        12     9      180.000000       13.748420         2
         9        10        11        12     9        0.000000       -0.640202         3
         9        10        11        12     9      180.000000       -0.165498         4
        10         9         8        14     9        0.000000        0.337195         1
        10         9         8        14     9      180.000000       17.007723         2
        10         9         8        14     9        0.000000        0.196680         3
        10         9         8        14     9      180.000000       -0.367875         4
        10        11        12        17     9        0.000000        0.209283         1
        10        11        12        17     9      180.000000        8.479476         2
        10        11        12        17     9        0.000000        0.160040         3
        10        11        12        17     9      180.000000       -0.044271         4
        11         6         7        13     9        0.000000        0.295073         1
        11         6         7        13     9      180.000000       12.426870         2
        11         6         7        13     9        0.000000       -0.187006         3
        11         6         7        13     9      180.000000        0.046504         4
        11        10         9        15     9        0.000000       -0.081149         1
        11        10         9        15     9      180.000000       15.980520         2
        11        10         9        15     9        0.000000       -0.603337         3
        11        10         9        15     9      180.000000        0.023798         4
        12        11        10        16     9        0.000000       -0.039420         1
        12        11        10        16     9      180.000000       10.894958         2
        12        11        10        16     9        0.000000       -0.305622         3
        12        11        10        16     9      180.000000        0.091724         4
        13         7         8        14     9        0.000000        0.172553         1
        13         7         8        14     9      180.000000       13.797922         2
        13         7         8        14     9        0.000000       -0.083648         3
        13         7         8        14     9      180.000000        0.278138         4
        14         8         9        15     9        0.000000        0.129738         1
        14         8         9        15     9      180.000000       12.737211         2
        14         8         9        15     9        0.000000       -0.136448         3
        14         8         9        15     9      180.000000        0.229076         4
        15         9        10        16     9        0.000000       -0.186894         1
        15         9        10        16     9      180.000000       12.573314         2
        15         9        10        16     9        0.000000       -0.782846         3
        15         9        10        16     9      180.000000        0.282428         4

[ dihedrals ] ; impropers
;       ai        aj        ak        al funct           phase               k        pn
         2         1         3         4     4      180.000000       27.893333         2
         2         3         4         1     4      180.000000       27.893333         2
         2         4         1         3     4      180.000000       27.893333         2

[ pairs ]
;       ai        aj funct
         1         5     1
         1        12     1
         2         6     1
         2        11     1
         2        17     1
         3         5     1
         3        12     1
         4         7     1
         4        10     1
         5         8     1
         5        10     1
         5        13     1
         5        17     1
         6         9     1
         6        14     1
         6        16     1
         6        17     1
         7        10     1
         7        12     1
         7        15     1
         8        11     1
         8        16     1
         9        12     1
         9        13     1
        10        14     1
        10        17     1
        11        13     1
        11        15     1
        12        16     1
        13        14     1
        14        15     1
        15        16     1
