; ITP file created by ByteFF-ML, 2025-12-06 03:35:50.346626

[ atomtypes ]
;name           bonded.type        at.num        mass        charge   ptype           sigma         epsilon
 o0bf                                   8      0.0000       0.00000       A     3.04978e-01     6.11714e-01
 c1bf                                   6      0.0000       0.00000       A     3.31556e-01     4.11590e-01
 o2bf                                   8      0.0000       0.00000       A     3.04978e-01     6.11714e-01
 c3bf                                   6      0.0000       0.00000       A     3.31842e-01     4.13936e-01
 s4bf                                  16      0.0000       0.00000       A     3.53396e-01     1.18651e+00
 c5bf                                   6      0.0000       0.00000       A     3.31357e-01     4.12533e-01
 c6bf                                   6      0.0000       0.00000       A     3.31475e-01     4.12560e-01
 c7bf                                   6      0.0000       0.00000       A     3.31460e-01     4.12254e-01
 c8bf                                   6      0.0000       0.00000       A     3.31580e-01     4.12986e-01
 c9bf                                   6      0.0000       0.00000       A     3.31499e-01     4.13414e-01
 c10bf                                  6      0.0000       0.00000       A     3.31496e-01     4.13977e-01
 c11bf                                  6      0.0000       0.00000       A     3.31501e-01     4.13219e-01
 h12bf                                  1      0.0000       0.00000       A     2.62569e-01     6.73685e-02
 h13bf                                  1      0.0000       0.00000       A     2.62472e-01     6.73302e-02
 h14bf                                  1      0.0000       0.00000       A     2.62520e-01     6.70892e-02
 cl15bf                                17      0.0000       0.00000       A     3.46880e-01     1.10743e+00
 c16bf                                  6      0.0000       0.00000       A     3.39822e-01     4.50500e-01
 h17bf                                  1      0.0000       0.00000       A     2.59989e-01     8.72060e-02
 h18bf                                  1      0.0000       0.00000       A     2.59989e-01     8.72060e-02
 h19bf                                  1      0.0000       0.00000       A     2.59989e-01     8.72060e-02

[ moleculetype ]
;name             nrexcl
 5                     3

[ atoms ]
;       nr            type      resi   res      atom      cgnr      charge          mass ; qtot
         1            o0bf         1   UNL        o0         1    -0.71928       15.9990 ; qtot   -0.719
         2            c1bf         1   UNL        c1         2     0.71135       12.0110 ; qtot   -0.008
         3            o2bf         1   UNL        o2         3    -0.71928       15.9990 ; qtot   -0.727
         4            c3bf         1   UNL        c3         4    -0.07209       12.0110 ; qtot   -0.799
         5            s4bf         1   UNL        s4         5     0.07208       32.0670 ; qtot   -0.727
         6            c5bf         1   UNL        c5         6    -0.19182       12.0110 ; qtot   -0.919
         7            c6bf         1   UNL        c6         7    -0.08999       12.0110 ; qtot   -1.009
         8            c7bf         1   UNL        c7         8    -0.06192       12.0110 ; qtot   -1.071
         9            c8bf         1   UNL        c8         9    -0.11819       12.0110 ; qtot   -1.189
        10            c9bf         1   UNL        c9        10    -0.07001       12.0110 ; qtot   -1.259
        11           c10bf         1   UNL       c10        11    -0.07079       12.0110 ; qtot   -1.330
        12           c11bf         1   UNL       c11        12     0.07556       12.0110 ; qtot   -1.254
        13           h12bf         1   UNL       h12        13     0.12407        1.0080 ; qtot   -1.130
        14           h13bf         1   UNL       h13        14     0.11656        1.0080 ; qtot   -1.014
        15           h14bf         1   UNL       h14        15     0.12788        1.0080 ; qtot   -0.886
        16          cl15bf         1   UNL      cl15        16    -0.20146       35.4530 ; qtot   -1.087
        17           c16bf         1   UNL       c16        17    -0.04677       12.0110 ; qtot   -1.134
        18           h17bf         1   UNL       h17        18     0.04470        1.0080 ; qtot   -1.089
        19           h18bf         1   UNL       h18        19     0.04470        1.0080 ; qtot   -1.045
        20           h19bf         1   UNL       h19        20     0.04470        1.0080 ; qtot   -1.000

[ bonds ]
;       ai        aj funct               r               k
         1         2     1        0.125647   495326.660352
         2         3     1        0.125647   495326.660352
         2         4     1        0.154358   106368.764038
         4         5     1        0.176355   128958.303638
         4        12     1        0.136815   378545.484717
         5         6     1        0.175087   155241.569043
         6         7     1        0.140101   300964.614697
         6        11     1        0.141947   251732.413184
         7         8     1        0.139558   300379.023242
         7        13     1        0.108651   316946.299561
         8         9     1        0.141633   266004.899316
         8        17     1        0.151133   205417.098608
         9        10     1        0.138705   337133.690967
         9        14     1        0.108718   315701.697461
        10        11     1        0.140818   290736.108594
        10        15     1        0.108509   322321.018359
        11        12     1        0.144220   230565.724707
        12        16     1        0.174857   157324.145850
        17        18     1        0.109448   299437.086963
        17        19     1        0.109448   299437.086963
        17        20     1        0.109448   299437.086963

[ angles ]
;       ai        aj        ak funct           theta             cth
         1         2         3     1      131.184891      697.819390
         1         2         4     1      114.284973      327.702434
         2         4         5     1      114.504349      567.566469
         2         4        12     1      134.031128      421.985570
         3         2         4     1      114.284973      327.702434
         4         5         6     1       91.678345      494.162922
         4        12        11     1      114.602646      359.531728
         4        12        16     1      124.907814      325.278995
         5         4        12     1      111.263062      167.360000
         5         6         7     1      127.223465      366.874094
         5         6        11     1      111.466965      167.360000
         6         7         8     1      119.465431      712.213126
         6         7        13     1      120.387192      436.079756
         6        11        10     1      118.562088      676.954677
         6        11        12     1      111.206741      477.486040
         7         6        11     1      121.425003      681.833542
         7         8         9     1      119.077805      653.711694
         7         8        17     1      120.972305      407.959249
         8         7        13     1      120.238136      417.224623
         8         9        10     1      121.877792      676.311078
         8         9        14     1      118.806664      436.403311
         8        17        18     1      111.277367      479.351717
         8        17        19     1      111.277367      479.351717
         8        17        20     1      111.277367      479.351717
         9         8        17     1      119.933311      532.400210
         9        10        11     1      119.767227      708.587623
         9        10        15     1      120.724655      434.078413
        10         9        14     1      119.441147      440.525511
        10        11        12     1      129.863220      376.379644
        11        10        15     1      119.516663      437.457164
        11        12        16     1      120.225182      386.925321
        18        17        19     1      107.653427      359.012750
        18        17        20     1      107.653427      359.012750
        19        17        20     1      107.653427      359.012750

[ dihedrals ] ; propers for gromacs 4.5 or higher, use funct 9
;       ai        aj        ak        al funct           phase               k        pn
         1         2         4         5     9        0.000000        0.138954         1
         1         2         4         5     9      180.000000        3.554328         2
         1         2         4         5     9        0.000000        0.146869         3
         1         2         4         5     9      180.000000        0.250243         4
         1         2         4        12     9        0.000000       -3.086416         1
         1         2         4        12     9      180.000000        1.828336         2
         1         2         4        12     9        0.000000        0.005220         3
         1         2         4        12     9      180.000000        0.108289         4
         2         4         5         6     9        0.000000       -0.647775         1
         2         4         5         6     9      180.000000       11.278797         2
         2         4         5         6     9        0.000000       -0.794061         3
         2         4         5         6     9      180.000000       -0.088681         4
         2         4        12        11     9        0.000000       -0.511754         1
         2         4        12        11     9      180.000000       16.233209         2
         2         4        12        11     9        0.000000       -0.848335         3
         2         4        12        11     9      180.000000       -0.829320         4
         2         4        12        16     9        0.000000        0.085985         1
         2         4        12        16     9      180.000000       16.984348         2
         2         4        12        16     9        0.000000        0.645950         3
         2         4        12        16     9      180.000000       -1.059974         4
         3         2         4         5     9        0.000000        0.138954         1
         3         2         4         5     9      180.000000        3.554328         2
         3         2         4         5     9        0.000000        0.146869         3
         3         2         4         5     9      180.000000        0.250243         4
         3         2         4        12     9        0.000000       -3.086416         1
         3         2         4        12     9      180.000000        1.828336         2
         3         2         4        12     9        0.000000        0.005220         3
         3         2         4        12     9      180.000000        0.108289         4
         4         5         6         7     9        0.000000        0.138734         1
         4         5         6         7     9      180.000000        5.707623         2
         4         5         6         7     9        0.000000       -0.325687         3
         4         5         6         7     9      180.000000        0.383026         4
         4         5         6        11     9        0.000000       -0.185530         1
         4         5         6        11     9      180.000000       21.262840         2
         4         5         6        11     9        0.000000       -5.023750         3
         4         5         6        11     9      180.000000       -0.482515         4
         4        12        11         6     9        0.000000        0.013972         1
         4        12        11         6     9      180.000000       16.024078         2
         4        12        11         6     9        0.000000       -4.807021         3
         4        12        11         6     9      180.000000        0.162457         4
         4        12        11        10     9        0.000000       -0.404026         1
         4        12        11        10     9      180.000000        4.123839         2
         4        12        11        10     9        0.000000       -1.125078         3
         4        12        11        10     9      180.000000        0.320077         4
         5         4        12        11     9        0.000000       -0.309232         1
         5         4        12        11     9      180.000000       26.456737         2
         5         4        12        11     9        0.000000       -3.555023         3
         5         4        12        11     9      180.000000       -1.164573         4
         5         4        12        16     9        0.000000        0.493357         1
         5         4        12        16     9      180.000000       24.413307         2
         5         4        12        16     9        0.000000        0.772272         3
         5         4        12        16     9      180.000000       -1.497424         4
         5         6         7         8     9        0.000000        0.036067         1
         5         6         7         8     9      180.000000       13.786925         2
         5         6         7         8     9        0.000000       -0.385833         3
         5         6         7         8     9      180.000000       -0.214995         4
         5         6         7        13     9        0.000000        0.072139         1
         5         6         7        13     9      180.000000       11.017649         2
         5         6         7        13     9        0.000000       -0.163329         3
         5         6         7        13     9      180.000000       -0.005565         4
         5         6        11        10     9        0.000000        0.371428         1
         5         6        11        10     9      180.000000       11.938038         2
         5         6        11        10     9        0.000000       -1.023777         3
         5         6        11        10     9      180.000000       -0.205863         4
         5         6        11        12     9        0.000000       -0.073102         1
         5         6        11        12     9      180.000000       15.992690         2
         5         6        11        12     9        0.000000       -3.288897         3
         5         6        11        12     9      180.000000       -0.429241         4
         6         5         4        12     9        0.000000        0.167231         1
         6         5         4        12     9      180.000000       21.327073         2
         6         5         4        12     9        0.000000       -5.427966         3
         6         5         4        12     9      180.000000       -0.533412         4
         6         7         8         9     9        0.000000       -0.220834         1
         6         7         8         9     9      180.000000       20.339346         2
         6         7         8         9     9        0.000000       -1.583199         3
         6         7         8         9     9      180.000000       -0.557583         4
         6         7         8        17     9        0.000000        0.139841         1
         6         7         8        17     9      180.000000       17.659889         2
         6         7         8        17     9        0.000000       -0.075177         3
         6         7         8        17     9      180.000000       -0.373132         4
         6        11        10         9     9        0.000000       -0.259281         1
         6        11        10         9     9      180.000000       18.136792         2
         6        11        10         9     9        0.000000       -1.485466         3
         6        11        10         9     9      180.000000       -0.405904         4
         6        11        10        15     9        0.000000        0.167504         1
         6        11        10        15     9      180.000000       13.243652         2
         6        11        10        15     9        0.000000       -0.254694         3
         6        11        10        15     9      180.000000       -0.011763         4
         6        11        12        16     9        0.000000        1.184019         1
         6        11        12        16     9      180.000000       14.596003         2
         6        11        12        16     9        0.000000        0.529134         3
         6        11        12        16     9      180.000000       -0.456529         4
         7         6        11        10     9        0.000000        0.141295         1
         7         6        11        10     9      180.000000       12.203041         2
         7         6        11        10     9        0.000000       -1.322416         3
         7         6        11        10     9      180.000000       -0.127120         4
         7         6        11        12     9        0.000000        0.204496         1
         7         6        11        12     9      180.000000       12.601056         2
         7         6        11        12     9        0.000000       -1.696473         3
         7         6        11        12     9      180.000000       -0.106550         4
         7         8         9        10     9        0.000000       -0.106272         1
         7         8         9        10     9      180.000000       16.959897         2
         7         8         9        10     9        0.000000       -1.214685         3
         7         8         9        10     9      180.000000       -0.264732         4
         7         8         9        14     9        0.000000       -0.029949         1
         7         8         9        14     9      180.000000       13.584080         2
         7         8         9        14     9        0.000000       -0.534474         3
         7         8         9        14     9      180.000000        0.117252         4
         7         8        17        18     9        0.000000       -0.021704         1
         7         8        17        18     9      180.000000        0.007002         2
         7         8        17        18     9        0.000000       -0.046986         3
         7         8        17        18     9      180.000000        0.010432         4
         7         8        17        19     9        0.000000       -0.021704         1
         7         8        17        19     9      180.000000        0.007002         2
         7         8        17        19     9        0.000000       -0.046986         3
         7         8        17        19     9      180.000000        0.010432         4
         7         8        17        20     9        0.000000       -0.021704         1
         7         8        17        20     9      180.000000        0.007002         2
         7         8        17        20     9        0.000000       -0.046986         3
         7         8        17        20     9      180.000000        0.010432         4
         8         7         6        11     9        0.000000        0.045508         1
         8         7         6        11     9      180.000000       17.727973         2
         8         7         6        11     9        0.000000       -1.273333         3
         8         7         6        11     9      180.000000       -0.309809         4
         8         9        10        11     9        0.000000       -0.213699         1
         8         9        10        11     9      180.000000       20.628657         2
         8         9        10        11     9        0.000000       -1.771604         3
         8         9        10        11     9      180.000000       -0.479558         4
         8         9        10        15     9        0.000000       -0.028983         1
         8         9        10        15     9      180.000000       15.291292         2
         8         9        10        15     9        0.000000       -0.588679         3
         8         9        10        15     9      180.000000        0.113124         4
         9         8         7        13     9        0.000000       -0.016245         1
         9         8         7        13     9      180.000000       14.750131         2
         9         8         7        13     9        0.000000       -0.349742         3
         9         8         7        13     9      180.000000        0.122691         4
         9         8        17        18     9        0.000000       -0.022338         1
         9         8        17        18     9      180.000000       -0.004158         2
         9         8        17        18     9        0.000000        0.064402         3
         9         8        17        18     9      180.000000        0.013955         4
         9         8        17        19     9        0.000000       -0.022338         1
         9         8        17        19     9      180.000000       -0.004158         2
         9         8        17        19     9        0.000000        0.064402         3
         9         8        17        19     9      180.000000        0.013955         4
         9         8        17        20     9        0.000000       -0.022339         1
         9         8        17        20     9      180.000000       -0.004158         2
         9         8        17        20     9        0.000000        0.064402         3
         9         8        17        20     9      180.000000        0.013955         4
         9        10        11        12     9        0.000000       -0.151801         1
         9        10        11        12     9      180.000000       13.465708         2
         9        10        11        12     9        0.000000       -0.608184         3
         9        10        11        12     9      180.000000       -0.180151         4
        10         9         8        17     9        0.000000        0.078407         1
        10         9         8        17     9      180.000000       14.222456         2
        10         9         8        17     9        0.000000       -0.204463         3
        10         9         8        17     9      180.000000       -0.076956         4
        10        11        12        16     9        0.000000        0.216675         1
        10        11        12        16     9      180.000000        8.192090         2
        10        11        12        16     9        0.000000        0.170239         3
        10        11        12        16     9      180.000000       -0.027413         4
        11         6         7        13     9        0.000000        0.409483         1
        11         6         7        13     9      180.000000       12.595471         2
        11         6         7        13     9        0.000000       -0.050732         3
        11         6         7        13     9      180.000000       -0.045080         4
        11        10         9        14     9        0.000000       -0.041160         1
        11        10         9        14     9      180.000000       16.267008         2
        11        10         9        14     9        0.000000       -0.556291         3
        11        10         9        14     9      180.000000        0.006305         4
        12        11        10        15     9        0.000000       -0.036960         1
        12        11        10        15     9      180.000000       10.735492         2
        12        11        10        15     9        0.000000       -0.269435         3
        12        11        10        15     9      180.000000        0.084799         4
        13         7         8        17     9        0.000000       -0.209409         1
        13         7         8        17     9      180.000000       13.250368         2
        13         7         8        17     9        0.000000       -0.461282         3
        13         7         8        17     9      180.000000        0.250361         4
        14         9         8        17     9        0.000000       -0.217612         1
        14         9         8        17     9      180.000000       12.445201         2
        14         9         8        17     9        0.000000       -0.413636         3
        14         9         8        17     9      180.000000        0.251667         4
        14         9        10        15     9        0.000000       -0.182504         1
        14         9        10        15     9      180.000000       12.714735         2
        14         9        10        15     9        0.000000       -0.680662         3
        14         9        10        15     9      180.000000        0.286247         4

[ dihedrals ] ; impropers
;       ai        aj        ak        al funct           phase               k        pn
         2         1         3         4     4      180.000000       27.893333         2
         2         3         4         1     4      180.000000       27.893333         2
         2         4         1         3     4      180.000000       27.893333         2

[ pairs ]
;       ai        aj funct
         1         5     1
         1        12     1
         2         6     1
         2        11     1
         2        16     1
         3         5     1
         3        12     1
         4         7     1
         4        10     1
         5         8     1
         5        10     1
         5        13     1
         5        16     1
         6         9     1
         6        15     1
         6        16     1
         6        17     1
         7        10     1
         7        12     1
         7        14     1
         7        18     1
         7        19     1
         7        20     1
         8        11     1
         8        15     1
         9        12     1
         9        13     1
         9        18     1
         9        19     1
         9        20     1
        10        16     1
        10        17     1
        11        13     1
        11        14     1
        12        15     1
        13        17     1
        14        15     1
        14        17     1
