; ITP file created by ByteFF-ML, 2025-12-06 03:36:33.244572

[ atomtypes ]
;name           bonded.type        at.num        mass        charge   ptype           sigma         epsilon
 o0bf                                   8      0.0000       0.00000       A     3.04935e-01     6.11516e-01
 c1bf                                   6      0.0000       0.00000       A     3.31542e-01     4.11275e-01
 o2bf                                   8      0.0000       0.00000       A     3.04935e-01     6.11516e-01
 c3bf                                   6      0.0000       0.00000       A     3.31353e-01     4.11111e-01
 c4bf                                   6      0.0000       0.00000       A     3.31655e-01     4.11665e-01
 c5bf                                   6      0.0000       0.00000       A     3.31415e-01     4.13104e-01
 c6bf                                   6      0.0000       0.00000       A     3.31515e-01     4.12501e-01
 c7bf                                   6      0.0000       0.00000       A     3.31489e-01     4.13005e-01
 c8bf                                   6      0.0000       0.00000       A     3.31533e-01     4.13232e-01
 c9bf                                   6      0.0000       0.00000       A     3.31383e-01     4.12787e-01
 c10bf                                  6      0.0000       0.00000       A     3.31412e-01     4.13842e-01
 h11bf                                  1      0.0000       0.00000       A     2.62522e-01     6.71004e-02
 h12bf                                  1      0.0000       0.00000       A     2.62437e-01     6.70014e-02
 cl13bf                                17      0.0000       0.00000       A     3.46758e-01     1.10611e+00
 h14bf                                  1      0.0000       0.00000       A     2.62532e-01     6.72376e-02
 o15bf                                  8      0.0000       0.00000       A     3.15655e-01     3.06070e-01
 c16bf                                  6      0.0000       0.00000       A     3.39695e-01     4.48473e-01
 h17bf                                  1      0.0000       0.00000       A     2.60066e-01     8.68964e-02
 h18bf                                  1      0.0000       0.00000       A     2.60066e-01     8.68964e-02
 h19bf                                  1      0.0000       0.00000       A     2.60066e-01     8.68964e-02

[ moleculetype ]
;name             nrexcl
 7                     3

[ atoms ]
;       nr            type      resi   res      atom      cgnr      charge          mass ; qtot
         1            o0bf         1   UNL        o0         1    -0.71643       15.9990 ; qtot   -0.716
         2            c1bf         1   UNL        c1         2     0.70708       12.0110 ; qtot   -0.009
         3            o2bf         1   UNL        o2         3    -0.71643       15.9990 ; qtot   -0.726
         4            c3bf         1   UNL        c3         4    -0.00874       12.0110 ; qtot   -0.735
         5            c4bf         1   UNL        c4         5     0.04074       12.0110 ; qtot   -0.694
         6            c5bf         1   UNL        c5         6    -0.10282       12.0110 ; qtot   -0.797
         7            c6bf         1   UNL        c6         7    -0.08123       12.0110 ; qtot   -0.878
         8            c7bf         1   UNL        c7         8     0.10053       12.0110 ; qtot   -0.777
         9            c8bf         1   UNL        c8         9    -0.05879       12.0110 ; qtot   -0.836
        10            c9bf         1   UNL        c9        10    -0.10588       12.0110 ; qtot   -0.942
        11           c10bf         1   UNL       c10        11    -0.18575       12.0110 ; qtot   -1.128
        12           h11bf         1   UNL       h11        12     0.13947        1.0080 ; qtot   -0.988
        13           h12bf         1   UNL       h12        13     0.13420        1.0080 ; qtot   -0.854
        14          cl13bf         1   UNL      cl13        14    -0.21498       35.4530 ; qtot   -1.069
        15           h14bf         1   UNL       h14        15     0.13973        1.0080 ; qtot   -0.929
        16           o15bf         1   UNL       o15        16    -0.16668       15.9990 ; qtot   -1.096
        17           c16bf         1   UNL       c16        17    -0.02215       12.0110 ; qtot   -1.118
        18           h17bf         1   UNL       h17        18     0.03937        1.0080 ; qtot   -1.079
        19           h18bf         1   UNL       h18        19     0.03937        1.0080 ; qtot   -1.039
        20           h19bf         1   UNL       h19        20     0.03939        1.0080 ; qtot   -1.000

[ bonds ]
;       ai        aj funct               r               k
         1         2     1        0.125876   490432.933008
         2         3     1        0.125876   490432.933008
         2         4     1        0.153440   125845.891821
         4        11     1        0.137543   358750.343311
         4        16     1        0.139571   182907.324170
         5         6     1        0.139126   319118.179639
         5        10     1        0.141357   259217.646387
         5        16     1        0.135843   256758.499365
         6         7     1        0.139722   313508.749268
         6        12     1        0.108475   325256.100488
         7         8     1        0.140686   279665.056641
         7        13     1        0.108427   326127.196826
         8         9     1        0.139133   309341.501611
         8        14     1        0.176189   145443.414307
         9        10     1        0.140721   300089.994238
         9        15     1        0.108441   324795.870703
        10        11     1        0.144237   231326.424121
        11        17     1        0.150049   219286.979443
        17        18     1        0.109479   297468.277979
        17        19     1        0.109479   297468.277979
        17        20     1        0.109479   297468.277979

[ angles ]
;       ai        aj        ak funct           theta             cth
         1         2         3     1      130.868622      690.982020
         1         2         4     1      114.653625      329.401322
         2         4        11     1      132.037857      376.509692
         2         4        16     1      117.430504      468.293542
         3         2         4     1      114.653625      329.401322
         4        11        10     1      106.219872      409.158024
         4        11        17     1      127.729172      398.096083
         4        16         5     1      107.089615      610.110400
         5         6         7     1      117.120056      799.704284
         5         6        12     1      121.431091      442.694665
         5        10         9     1      119.258606      716.427643
         5        10        11     1      105.905685      302.214771
         6         5        10     1      123.103722      604.977824
         6         5        16     1      126.754662      515.231771
         6         7         8     1      120.306107      582.454987
         6         7        13     1      120.288223      418.780184
         7         6        12     1      121.396744      430.731104
         7         8         9     1      122.554855      590.633310
         7         8        14     1      118.387039      391.863145
         8         7        13     1      119.560509      427.663395
         8         9        10     1      117.597656      669.256771
         8         9        15     1      120.741348      420.779420
         9         8        14     1      119.095558      325.897344
         9        10        11     1      134.634827      404.966267
        10         5        16     1      110.190369      222.969913
        10         9        15     1      121.619385      436.839996
        10        11        17     1      125.798424      547.098476
        11         4        16     1      110.808517      211.659048
        11        17        18     1      110.550003      482.174079
        11        17        19     1      110.550003      482.174079
        11        17        20     1      110.550003      482.174079
        18        17        19     1      108.213608      353.255121
        18        17        20     1      108.213608      353.255153
        19        17        20     1      108.213608      353.255153

[ dihedrals ] ; propers for gromacs 4.5 or higher, use funct 9
;       ai        aj        ak        al funct           phase               k        pn
         1         2         4        11     9        0.000000        0.311190         1
         1         2         4        11     9      180.000000        1.916437         2
         1         2         4        11     9        0.000000       -0.112601         3
         1         2         4        11     9      180.000000       -0.027715         4
         1         2         4        16     9        0.000000       -1.128434         1
         1         2         4        16     9      180.000000        3.095016         2
         1         2         4        16     9        0.000000        0.262757         3
         1         2         4        16     9      180.000000       -0.060320         4
         2         4        11        10     9        0.000000       -0.082248         1
         2         4        11        10     9      180.000000       15.953873         2
         2         4        11        10     9        0.000000       -0.736585         3
         2         4        11        10     9      180.000000       -0.945367         4
         2         4        11        17     9        0.000000        0.115215         1
         2         4        11        17     9      180.000000       12.940759         2
         2         4        11        17     9        0.000000        0.354979         3
         2         4        11        17     9      180.000000       -0.594448         4
         2         4        16         5     9        0.000000        0.496833         1
         2         4        16         5     9      180.000000        5.341516         2
         2         4        16         5     9        0.000000        0.160297         3
         2         4        16         5     9      180.000000        0.087949         4
         3         2         4        11     9        0.000000        0.311190         1
         3         2         4        11     9      180.000000        1.916437         2
         3         2         4        11     9        0.000000       -0.112601         3
         3         2         4        11     9      180.000000       -0.027715         4
         3         2         4        16     9        0.000000       -1.128434         1
         3         2         4        16     9      180.000000        3.095016         2
         3         2         4        16     9        0.000000        0.262757         3
         3         2         4        16     9      180.000000       -0.060320         4
         4        11        10         5     9        0.000000        0.053228         1
         4        11        10         5     9      180.000000       21.533144         2
         4        11        10         5     9        0.000000       -8.109168         3
         4        11        10         5     9      180.000000       -0.001375         4
         4        11        10         9     9        0.000000       -0.664832         1
         4        11        10         9     9      180.000000        4.302829         2
         4        11        10         9     9        0.000000       -0.950895         3
         4        11        10         9     9      180.000000        0.315395         4
         4        11        17        18     9        0.000000       -0.048879         1
         4        11        17        18     9      180.000000        0.047268         2
         4        11        17        18     9        0.000000       -0.422437         3
         4        11        17        18     9      180.000000        0.043906         4
         4        11        17        19     9        0.000000       -0.048879         1
         4        11        17        19     9      180.000000        0.047268         2
         4        11        17        19     9        0.000000       -0.422437         3
         4        11        17        19     9      180.000000        0.043906         4
         4        11        17        20     9        0.000000       -0.048879         1
         4        11        17        20     9      180.000000        0.047268         2
         4        11        17        20     9        0.000000       -0.422437         3
         4        11        17        20     9      180.000000        0.043906         4
         4        16         5         6     9        0.000000        1.153844         1
         4        16         5         6     9      180.000000        4.970473         2
         4        16         5         6     9        0.000000       -0.373966         3
         4        16         5         6     9      180.000000        0.313987         4
         4        16         5        10     9        0.000000        0.446931         1
         4        16         5        10     9      180.000000       21.198841         2
         4        16         5        10     9        0.000000       -6.260282         3
         4        16         5        10     9      180.000000       -0.477992         4
         5         6         7         8     9        0.000000       -0.170192         1
         5         6         7         8     9      180.000000       20.622118         2
         5         6         7         8     9        0.000000       -1.451382         3
         5         6         7         8     9      180.000000       -0.506842         4
         5         6         7        13     9        0.000000       -0.004943         1
         5         6         7        13     9      180.000000       15.871738         2
         5         6         7        13     9        0.000000       -0.566471         3
         5         6         7        13     9      180.000000       -0.027799         4
         5        10         9         8     9        0.000000       -0.165620         1
         5        10         9         8     9      180.000000       18.324733         2
         5        10         9         8     9        0.000000       -1.917522         3
         5        10         9         8     9      180.000000       -0.417019         4
         5        10         9        15     9        0.000000        0.318753         1
         5        10         9        15     9      180.000000       12.695548         2
         5        10         9        15     9        0.000000       -0.255563         3
         5        10         9        15     9      180.000000        0.010998         4
         5        10        11        17     9        0.000000        0.808013         1
         5        10        11        17     9      180.000000       11.971279         2
         5        10        11        17     9        0.000000        0.485513         3
         5        10        11        17     9      180.000000       -0.158036         4
         5        16         4        11     9        0.000000        0.098651         1
         5        16         4        11     9      180.000000       21.496323         2
         5        16         4        11     9        0.000000       -5.304664         3
         5        16         4        11     9      180.000000       -0.387662         4
         6         5        10         9     9        0.000000       -0.068036         1
         6         5        10         9     9      180.000000       10.995193         2
         6         5        10         9     9        0.000000       -1.498750         3
         6         5        10         9     9      180.000000        0.008783         4
         6         5        10        11     9        0.000000        0.120693         1
         6         5        10        11     9      180.000000       10.997410         2
         6         5        10        11     9        0.000000       -2.358835         3
         6         5        10        11     9      180.000000        0.142674         4
         6         7         8         9     9        0.000000       -0.106629         1
         6         7         8         9     9      180.000000       16.756932         2
         6         7         8         9     9        0.000000       -1.258144         3
         6         7         8         9     9      180.000000       -0.283776         4
         6         7         8        14     9        0.000000        0.319876         1
         6         7         8        14     9      180.000000       18.310010         2
         6         7         8        14     9        0.000000        0.242077         3
         6         7         8        14     9      180.000000       -0.525805         4
         7         6         5        10     9        0.000000       -0.274801         1
         7         6         5        10     9      180.000000       17.527142         2
         7         6         5        10     9        0.000000       -1.866261         3
         7         6         5        10     9      180.000000       -0.334265         4
         7         6         5        16     9        0.000000        0.342243         1
         7         6         5        16     9      180.000000       17.340707         2
         7         6         5        16     9        0.000000       -0.047156         3
         7         6         5        16     9      180.000000       -0.298709         4
         7         8         9        10     9        0.000000       -0.166557         1
         7         8         9        10     9      180.000000       19.846977         2
         7         8         9        10     9        0.000000       -1.487190         3
         7         8         9        10     9      180.000000       -0.430067         4
         7         8         9        15     9        0.000000        0.035666         1
         7         8         9        15     9      180.000000       13.843258         2
         7         8         9        15     9        0.000000       -0.584372         3
         7         8         9        15     9      180.000000        0.106761         4
         8         7         6        12     9        0.000000        0.111997         1
         8         7         6        12     9      180.000000       14.226290         2
         8         7         6        12     9        0.000000       -0.421791         3
         8         7         6        12     9      180.000000        0.131061         4
         8         9        10        11     9        0.000000       -0.166122         1
         8         9        10        11     9      180.000000       13.297718         2
         8         9        10        11     9        0.000000       -0.776090         3
         8         9        10        11     9      180.000000       -0.176136         4
         9         8         7        13     9        0.000000       -0.046589         1
         9         8         7        13     9      180.000000       12.915536         2
         9         8         7        13     9        0.000000       -0.619388         3
         9         8         7        13     9      180.000000        0.121047         4
         9        10         5        16     9        0.000000        0.393443         1
         9        10         5        16     9      180.000000       11.824742         2
         9        10         5        16     9        0.000000       -1.760550         3
         9        10         5        16     9      180.000000        0.059109         4
         9        10        11        17     9        0.000000       -0.267011         1
         9        10        11        17     9      180.000000        6.521546         2
         9        10        11        17     9        0.000000        0.312616         3
         9        10        11        17     9      180.000000        0.184314         4
        10         5         6        12     9        0.000000        0.144705         1
        10         5         6        12     9      180.000000       11.719624         2
        10         5         6        12     9        0.000000       -0.521167         3
        10         5         6        12     9      180.000000        0.013999         4
        10         9         8        14     9        0.000000        0.141597         1
        10         9         8        14     9      180.000000       22.693193         2
        10         9         8        14     9        0.000000        0.305417         3
        10         9         8        14     9      180.000000       -1.031818         4
        10        11         4        16     9        0.000000       -0.296971         1
        10        11         4        16     9      180.000000       32.804179         2
        10        11         4        16     9        0.000000       -5.970153         3
        10        11         4        16     9      180.000000       -0.333094         4
        10        11        17        18     9        0.000000        0.002213         1
        10        11        17        18     9      180.000000        0.019747         2
        10        11        17        18     9        0.000000        0.541224         3
        10        11        17        18     9      180.000000        0.030097         4
        10        11        17        19     9        0.000000        0.002213         1
        10        11        17        19     9      180.000000        0.019747         2
        10        11        17        19     9        0.000000        0.541224         3
        10        11        17        19     9      180.000000        0.030097         4
        10        11        17        20     9        0.000000        0.002213         1
        10        11        17        20     9      180.000000        0.019747         2
        10        11        17        20     9        0.000000        0.541224         3
        10        11        17        20     9      180.000000        0.030097         4
        11        10         5        16     9        0.000000       -0.117142         1
        11        10         5        16     9      180.000000       20.383316         2
        11        10         5        16     9        0.000000       -6.602575         3
        11        10         5        16     9      180.000000       -0.110030         4
        11        10         9        15     9        0.000000       -0.050419         1
        11        10         9        15     9      180.000000        9.812193         2
        11        10         9        15     9        0.000000       -0.192276         3
        11        10         9        15     9      180.000000        0.163996         4
        12         6         5        16     9        0.000000        0.084477         1
        12         6         5        16     9      180.000000       12.191482         2
        12         6         5        16     9        0.000000       -0.138163         3
        12         6         5        16     9      180.000000        0.038152         4
        12         6         7        13     9        0.000000       -0.137654         1
        12         6         7        13     9      180.000000       12.033095         2
        12         6         7        13     9        0.000000       -0.797202         3
        12         6         7        13     9      180.000000        0.256068         4
        13         7         8        14     9        0.000000        0.159137         1
        13         7         8        14     9      180.000000       12.858257         2
        13         7         8        14     9        0.000000       -0.110839         3
        13         7         8        14     9      180.000000        0.228873         4
        14         8         9        15     9        0.000000        0.180171         1
        14         8         9        15     9      180.000000       13.973812         2
        14         8         9        15     9        0.000000       -0.032204         3
        14         8         9        15     9      180.000000        0.248763         4
        16         4        11        17     9        0.000000        1.032768         1
        16         4        11        17     9      180.000000       20.631323         2
        16         4        11        17     9        0.000000        0.767614         3
        16         4        11        17     9      180.000000       -1.282599         4

[ dihedrals ] ; impropers
;       ai        aj        ak        al funct           phase               k        pn
         2         1         3         4     4      180.000000       27.893333         2
         2         3         4         1     4      180.000000       27.893333         2
         2         4         1         3     4      180.000000       27.893333         2

[ pairs ]
;       ai        aj funct
         1        11     1
         1        16     1
         2         5     1
         2        10     1
         2        17     1
         3        11     1
         3        16     1
         4         6     1
         4         9     1
         4        18     1
         4        19     1
         4        20     1
         5         8     1
         5        13     1
         5        15     1
         5        17     1
         6         9     1
         6        11     1
         6        14     1
         7        10     1
         7        15     1
         7        16     1
         8        11     1
         8        12     1
         9        13     1
         9        16     1
         9        17     1
        10        12     1
        10        14     1
        10        18     1
        10        19     1
        10        20     1
        11        15     1
        12        13     1
        12        16     1
        13        14     1
        14        15     1
        16        17     1
