; ITP file created by ByteFF-ML, 2025-12-06 03:36:05.640431

[ atomtypes ]
;name           bonded.type        at.num        mass        charge   ptype           sigma         epsilon
 o0bf                                   8      0.0000       0.00000       A     3.04935e-01     6.11516e-01
 c1bf                                   6      0.0000       0.00000       A     3.31542e-01     4.11275e-01
 o2bf                                   8      0.0000       0.00000       A     3.04935e-01     6.11516e-01
 c3bf                                   6      0.0000       0.00000       A     3.31328e-01     4.11312e-01
 c4bf                                   6      0.0000       0.00000       A     3.31602e-01     4.11108e-01
 c5bf                                   6      0.0000       0.00000       A     3.31460e-01     4.13104e-01
 c6bf                                   6      0.0000       0.00000       A     3.31496e-01     4.12495e-01
 c7bf                                   6      0.0000       0.00000       A     3.31505e-01     4.13245e-01
 c8bf                                   6      0.0000       0.00000       A     3.31525e-01     4.12879e-01
 c9bf                                   6      0.0000       0.00000       A     3.31332e-01     4.11963e-01
 c10bf                                  6      0.0000       0.00000       A     3.31387e-01     4.14073e-01
 h11bf                                  1      0.0000       0.00000       A     2.62451e-01     6.72472e-02
 h12bf                                  1      0.0000       0.00000       A     2.62487e-01     6.74786e-02
 h13bf                                  1      0.0000       0.00000       A     2.62536e-01     6.70349e-02
 o14bf                                  8      0.0000       0.00000       A     3.15639e-01     3.06246e-01
 c15bf                                  6      0.0000       0.00000       A     3.39695e-01     4.48475e-01
 h16bf                                  1      0.0000       0.00000       A     2.60066e-01     8.68964e-02
 h17bf                                  1      0.0000       0.00000       A     2.60066e-01     8.68964e-02
 h18bf                                  1      0.0000       0.00000       A     2.60066e-01     8.68964e-02
 c19bf                                  6      0.0000       0.00000       A     3.39829e-01     4.50447e-01
 h20bf                                  1      0.0000       0.00000       A     2.59979e-01     8.70895e-02
 h21bf                                  1      0.0000       0.00000       A     2.59979e-01     8.70895e-02
 h22bf                                  1      0.0000       0.00000       A     2.59979e-01     8.70895e-02

[ moleculetype ]
;name             nrexcl
 9                     3

[ atoms ]
;       nr            type      resi   res      atom      cgnr      charge          mass ; qtot
         1            o0bf         1   UNL        o0         1    -0.71643       15.9990 ; qtot   -0.716
         2            c1bf         1   UNL        c1         2     0.70615       12.0110 ; qtot   -0.010
         3            o2bf         1   UNL        o2         3    -0.71643       15.9990 ; qtot   -0.727
         4            c3bf         1   UNL        c3         4    -0.00957       12.0110 ; qtot   -0.736
         5            c4bf         1   UNL        c4         5     0.04244       12.0110 ; qtot   -0.694
         6            c5bf         1   UNL        c5         6    -0.07985       12.0110 ; qtot   -0.774
         7            c6bf         1   UNL        c6         7    -0.09249       12.0110 ; qtot   -0.866
         8            c7bf         1   UNL        c7         8    -0.13330       12.0110 ; qtot   -0.999
         9            c8bf         1   UNL        c8         9    -0.07740       12.0110 ; qtot   -1.077
        10            c9bf         1   UNL        c9        10    -0.10626       12.0110 ; qtot   -1.183
        11           c10bf         1   UNL       c10        11    -0.18737       12.0110 ; qtot   -1.371
        12           h11bf         1   UNL       h11        12     0.11512        1.0080 ; qtot   -1.255
        13           h12bf         1   UNL       h12        13     0.11439        1.0080 ; qtot   -1.141
        14           h13bf         1   UNL       h13        14     0.12043        1.0080 ; qtot   -1.021
        15           o14bf         1   UNL       o14        15    -0.17840       15.9990 ; qtot   -1.199
        16           c15bf         1   UNL       c15        16    -0.02303       12.0110 ; qtot   -1.222
        17           h16bf         1   UNL       h16        17     0.03937        1.0080 ; qtot   -1.183
        18           h17bf         1   UNL       h17        18     0.03937        1.0080 ; qtot   -1.143
        19           h18bf         1   UNL       h18        19     0.03937        1.0080 ; qtot   -1.104
        20           c19bf         1   UNL       c19        20    -0.03882       12.0110 ; qtot   -1.143
        21           h20bf         1   UNL       h20        21     0.04757        1.0080 ; qtot   -1.095
        22           h21bf         1   UNL       h21        22     0.04757        1.0080 ; qtot   -1.048
        23           h22bf         1   UNL       h22        23     0.04757        1.0080 ; qtot   -1.000

[ bonds ]
;       ai        aj funct               r               k
         1         2     1        0.125876   490432.933008
         2         3     1        0.125876   490432.933008
         2         4     1        0.153402   126410.504541
         4        11     1        0.137523   359400.288281
         4        15     1        0.139491   184201.966235
         5         6     1        0.139745   300122.400830
         5        10     1        0.141210   260091.321973
         5        15     1        0.136294   248276.935840
         6         7     1        0.140069   298199.762939
         6        20     1        0.150719   209998.085742
         7         8     1        0.140996   285647.584180
         7        12     1        0.108684   316456.344580
         8         9     1        0.139305   322421.251514
         8        13     1        0.108623   319075.098535
         9        10     1        0.140726   299983.606641
         9        14     1        0.108597   319569.548047
        10        11     1        0.144369   229605.427246
        11        16     1        0.150062   219275.028076
        16        17     1        0.109479   297468.277979
        16        18     1        0.109479   297468.277979
        16        19     1        0.109479   297468.277979
        20        21     1        0.109419   300775.205957
        20        22     1        0.109419   300775.205957
        20        23     1        0.109419   300775.205957

[ angles ]
;       ai        aj        ak funct           theta             cth
         1         2         3     1      130.868622      690.982020
         1         2         4     1      114.643822      328.448437
         2         4        11     1      132.121414      377.011145
         2         4        15     1      117.422523      469.175754
         3         2         4     1      114.643822      328.448437
         4        11        10     1      106.237381      400.962815
         4        11        16     1      127.711815      397.159956
         4        15         5     1      106.996719      604.559015
         5         6         7     1      114.976868      777.270764
         5         6        20     1      121.521851      480.518157
         5        10         9     1      118.888390      706.339974
         5        10        11     1      105.775185      311.029798
         6         5        10     1      124.293747      611.002858
         6         5        15     1      125.561813      477.481316
         6         7         8     1      122.232376      653.367646
         6         7        12     1      118.632668      414.657281
         6        20        21     1      111.043968      480.776848
         6        20        22     1      111.043968      480.776848
         6        20        23     1      111.043968      480.776848
         7         6        20     1      123.477097      496.254219
         7         8         9     1      121.330612      640.450082
         7         8        13     1      119.027725      447.490087
         8         7        12     1      119.134644      443.953613
         8         9        10     1      118.258385      729.157126
         8         9        14     1      120.906715      440.127036
         9         8        13     1      119.743103      441.467160
         9        10        11     1      135.090652      422.537139
        10         5        15     1      110.167175      217.860272
        10         9        14     1      120.918358      444.069136
        10        11        16     1      125.774071      533.152725
        11         4        15     1      110.712204      210.652008
        11        16        17     1      110.558411      481.312010
        11        16        18     1      110.558411      481.312010
        11        16        19     1      110.558411      481.311946
        17        16        18     1      108.213608      353.255153
        17        16        19     1      108.213608      353.255153
        18        16        19     1      108.213608      353.255153
        21        20        22     1      107.866928      358.352456
        21        20        23     1      107.866928      358.352456
        22        20        23     1      107.866928      358.352456

[ dihedrals ] ; propers for gromacs 4.5 or higher, use funct 9
;       ai        aj        ak        al funct           phase               k        pn
         1         2         4        11     9        0.000000        0.153435         1
         1         2         4        11     9      180.000000        1.994751         2
         1         2         4        11     9        0.000000       -0.089341         3
         1         2         4        11     9      180.000000       -0.020867         4
         1         2         4        15     9        0.000000       -1.351629         1
         1         2         4        15     9      180.000000        3.173824         2
         1         2         4        15     9        0.000000        0.272767         3
         1         2         4        15     9      180.000000       -0.045967         4
         2         4        11        10     9        0.000000       -0.076775         1
         2         4        11        10     9      180.000000       15.636133         2
         2         4        11        10     9        0.000000       -0.820913         3
         2         4        11        10     9      180.000000       -0.933113         4
         2         4        11        16     9        0.000000        0.122266         1
         2         4        11        16     9      180.000000       12.823288         2
         2         4        11        16     9        0.000000        0.337763         3
         2         4        11        16     9      180.000000       -0.595787         4
         2         4        15         5     9        0.000000        0.041780         1
         2         4        15         5     9      180.000000        5.640929         2
         2         4        15         5     9        0.000000        0.128508         3
         2         4        15         5     9      180.000000        0.068302         4
         3         2         4        11     9        0.000000        0.153435         1
         3         2         4        11     9      180.000000        1.994751         2
         3         2         4        11     9        0.000000       -0.089341         3
         3         2         4        11     9      180.000000       -0.020867         4
         3         2         4        15     9        0.000000       -1.351629         1
         3         2         4        15     9      180.000000        3.173824         2
         3         2         4        15     9        0.000000        0.272767         3
         3         2         4        15     9      180.000000       -0.045967         4
         4        11        10         5     9        0.000000       -0.091045         1
         4        11        10         5     9      180.000000       21.877284         2
         4        11        10         5     9        0.000000       -8.155234         3
         4        11        10         5     9      180.000000       -0.157420         4
         4        11        10         9     9        0.000000       -0.819653         1
         4        11        10         9     9      180.000000        4.005327         2
         4        11        10         9     9        0.000000       -0.867592         3
         4        11        10         9     9      180.000000        0.291069         4
         4        11        16        17     9        0.000000       -0.044136         1
         4        11        16        17     9      180.000000        0.047304         2
         4        11        16        17     9        0.000000       -0.413977         3
         4        11        16        17     9      180.000000        0.050314         4
         4        11        16        18     9        0.000000       -0.044136         1
         4        11        16        18     9      180.000000        0.047304         2
         4        11        16        18     9        0.000000       -0.413977         3
         4        11        16        18     9      180.000000        0.050314         4
         4        11        16        19     9        0.000000       -0.044136         1
         4        11        16        19     9      180.000000        0.047304         2
         4        11        16        19     9        0.000000       -0.413977         3
         4        11        16        19     9      180.000000        0.050314         4
         4        15         5         6     9        0.000000        0.652841         1
         4        15         5         6     9      180.000000        4.187229         2
         4        15         5         6     9        0.000000        0.036867         3
         4        15         5         6     9      180.000000        0.302757         4
         4        15         5        10     9        0.000000        0.180387         1
         4        15         5        10     9      180.000000       20.493365         2
         4        15         5        10     9        0.000000       -6.570703         3
         4        15         5        10     9      180.000000       -0.747619         4
         5         6         7         8     9        0.000000       -0.168150         1
         5         6         7         8     9      180.000000       20.748859         2
         5         6         7         8     9        0.000000       -1.518942         3
         5         6         7         8     9      180.000000       -0.482334         4
         5         6         7        12     9        0.000000        0.137118         1
         5         6         7        12     9      180.000000       16.066494         2
         5         6         7        12     9        0.000000       -0.356940         3
         5         6         7        12     9      180.000000       -0.149422         4
         5         6        20        21     9        0.000000       -0.034665         1
         5         6        20        21     9      180.000000       -0.006705         2
         5         6        20        21     9        0.000000        0.220950         3
         5         6        20        21     9      180.000000        0.061271         4
         5         6        20        22     9        0.000000       -0.034665         1
         5         6        20        22     9      180.000000       -0.006705         2
         5         6        20        22     9        0.000000        0.220950         3
         5         6        20        22     9      180.000000        0.061271         4
         5         6        20        23     9        0.000000       -0.034665         1
         5         6        20        23     9      180.000000       -0.006705         2
         5         6        20        23     9        0.000000        0.220950         3
         5         6        20        23     9      180.000000        0.061271         4
         5        10         9         8     9        0.000000       -0.101458         1
         5        10         9         8     9      180.000000       19.773051         2
         5        10         9         8     9        0.000000       -2.027826         3
         5        10         9         8     9      180.000000       -0.495674         4
         5        10         9        14     9        0.000000        0.365567         1
         5        10         9        14     9      180.000000       13.390897         2
         5        10         9        14     9        0.000000       -0.107540         3
         5        10         9        14     9      180.000000       -0.100230         4
         5        10        11        16     9        0.000000        0.801957         1
         5        10        11        16     9      180.000000       11.919961         2
         5        10        11        16     9        0.000000        0.500567         3
         5        10        11        16     9      180.000000       -0.186014         4
         5        15         4        11     9        0.000000        0.322197         1
         5        15         4        11     9      180.000000       21.913098         2
         5        15         4        11     9        0.000000       -5.504662         3
         5        15         4        11     9      180.000000       -0.441519         4
         6         5        10         9     9        0.000000       -0.166219         1
         6         5        10         9     9      180.000000       10.815799         2
         6         5        10         9     9        0.000000       -1.693446         3
         6         5        10         9     9      180.000000       -0.037654         4
         6         5        10        11     9        0.000000        0.023844         1
         6         5        10        11     9      180.000000       11.138462         2
         6         5        10        11     9        0.000000       -2.674896         3
         6         5        10        11     9      180.000000        0.065875         4
         6         7         8         9     9        0.000000        0.026200         1
         6         7         8         9     9      180.000000       17.383823         2
         6         7         8         9     9        0.000000       -1.595319         3
         6         7         8         9     9      180.000000       -0.341177         4
         6         7         8        13     9        0.000000        0.057590         1
         6         7         8        13     9      180.000000       13.909149         2
         6         7         8        13     9        0.000000       -0.731328         3
         6         7         8        13     9      180.000000        0.101697         4
         7         6         5        10     9        0.000000       -0.142344         1
         7         6         5        10     9      180.000000       16.721239         2
         7         6         5        10     9        0.000000       -1.686199         3
         7         6         5        10     9      180.000000       -0.345233         4
         7         6         5        15     9        0.000000        0.240148         1
         7         6         5        15     9      180.000000       16.449396         2
         7         6         5        15     9        0.000000        0.044512         3
         7         6         5        15     9      180.000000       -0.328083         4
         7         6        20        21     9        0.000000       -0.018360         1
         7         6        20        21     9      180.000000        0.000727         2
         7         6        20        21     9        0.000000       -0.005363         3
         7         6        20        21     9      180.000000       -0.010542         4
         7         6        20        22     9        0.000000       -0.018360         1
         7         6        20        22     9      180.000000        0.000727         2
         7         6        20        22     9        0.000000       -0.005363         3
         7         6        20        22     9      180.000000       -0.010542         4
         7         6        20        23     9        0.000000       -0.018360         1
         7         6        20        23     9      180.000000        0.000727         2
         7         6        20        23     9        0.000000       -0.005363         3
         7         6        20        23     9      180.000000       -0.010542         4
         7         8         9        10     9        0.000000       -0.112799         1
         7         8         9        10     9      180.000000       20.906677         2
         7         8         9        10     9        0.000000       -1.988072         3
         7         8         9        10     9      180.000000       -0.405936         4
         7         8         9        14     9        0.000000        0.048157         1
         7         8         9        14     9      180.000000       15.203563         2
         7         8         9        14     9        0.000000       -0.591910         3
         7         8         9        14     9      180.000000        0.111028         4
         8         7         6        20     9        0.000000        0.161630         1
         8         7         6        20     9      180.000000       16.379029         2
         8         7         6        20     9        0.000000       -0.142851         3
         8         7         6        20     9      180.000000       -0.154464         4
         8         9        10        11     9        0.000000       -0.044422         1
         8         9        10        11     9      180.000000       14.092524         2
         8         9        10        11     9        0.000000       -0.914812         3
         8         9        10        11     9      180.000000       -0.150112         4
         9         8         7        12     9        0.000000        0.080805         1
         9         8         7        12     9      180.000000       13.628926         2
         9         8         7        12     9        0.000000       -0.767455         3
         9         8         7        12     9      180.000000        0.182353         4
         9        10         5        15     9        0.000000        0.268407         1
         9        10         5        15     9      180.000000       11.210977         2
         9        10         5        15     9        0.000000       -1.722759         3
         9        10         5        15     9      180.000000        0.107341         4
         9        10        11        16     9        0.000000       -0.347634         1
         9        10        11        16     9      180.000000        6.346576         2
         9        10        11        16     9        0.000000        0.270764         3
         9        10        11        16     9      180.000000        0.203391         4
        10         5         6        20     9        0.000000        0.032989         1
        10         5         6        20     9      180.000000       12.143068         2
        10         5         6        20     9        0.000000       -0.033346         3
        10         5         6        20     9      180.000000       -0.166009         4
        10         9         8        13     9        0.000000        0.017973         1
        10         9         8        13     9      180.000000       16.291582         2
        10         9         8        13     9        0.000000       -0.696823         3
        10         9         8        13     9      180.000000       -0.065245         4
        10        11         4        15     9        0.000000       -0.268274         1
        10        11         4        15     9      180.000000       32.557895         2
        10        11         4        15     9        0.000000       -6.334035         3
        10        11         4        15     9      180.000000       -0.313924         4
        10        11        16        17     9        0.000000        0.008793         1
        10        11        16        17     9      180.000000        0.039744         2
        10        11        16        17     9        0.000000        0.504813         3
        10        11        16        17     9      180.000000        0.028548         4
        10        11        16        18     9        0.000000        0.008793         1
        10        11        16        18     9      180.000000        0.039744         2
        10        11        16        18     9        0.000000        0.504813         3
        10        11        16        18     9      180.000000        0.028548         4
        10        11        16        19     9        0.000000        0.008793         1
        10        11        16        19     9      180.000000        0.039744         2
        10        11        16        19     9        0.000000        0.504813         3
        10        11        16        19     9      180.000000        0.028548         4
        11        10         5        15     9        0.000000       -0.091641         1
        11        10         5        15     9      180.000000       20.074215         2
        11        10         5        15     9        0.000000       -6.655195         3
        11        10         5        15     9      180.000000       -0.046431         4
        11        10         9        14     9        0.000000       -0.055191         1
        11        10         9        14     9      180.000000       10.414432         2
        11        10         9        14     9        0.000000       -0.180974         3
        11        10         9        14     9      180.000000        0.124388         4
        12         7         6        20     9        0.000000       -0.027123         1
        12         7         6        20     9      180.000000       13.211885         2
        12         7         6        20     9        0.000000       -0.423204         3
        12         7         6        20     9      180.000000        0.229595         4
        12         7         8        13     9        0.000000       -0.184328         1
        12         7         8        13     9      180.000000       10.666991         2
        12         7         8        13     9        0.000000       -0.524853         3
        12         7         8        13     9      180.000000        0.243389         4
        13         8         9        14     9        0.000000       -0.107027         1
        13         8         9        14     9      180.000000       12.308276         2
        13         8         9        14     9        0.000000       -0.680713         3
        13         8         9        14     9      180.000000        0.272076         4
        15         4        11        16     9        0.000000        0.997882         1
        15         4        11        16     9      180.000000       20.630900         2
        15         4        11        16     9        0.000000        0.725866         3
        15         4        11        16     9      180.000000       -1.308962         4
        15         5         6        20     9        0.000000       -0.077205         1
        15         5         6        20     9      180.000000       14.234843         2
        15         5         6        20     9        0.000000       -0.119675         3
        15         5         6        20     9      180.000000       -0.230937         4

[ dihedrals ] ; impropers
;       ai        aj        ak        al funct           phase               k        pn
         2         1         3         4     4      180.000000       27.893333         2
         2         3         4         1     4      180.000000       27.893333         2
         2         4         1         3     4      180.000000       27.893333         2

[ pairs ]
;       ai        aj funct
         1        11     1
         1        15     1
         2         5     1
         2        10     1
         2        16     1
         3        11     1
         3        15     1
         4         6     1
         4         9     1
         4        17     1
         4        18     1
         4        19     1
         5         8     1
         5        12     1
         5        14     1
         5        16     1
         5        21     1
         5        22     1
         5        23     1
         6         9     1
         6        11     1
         6        13     1
         7        10     1
         7        14     1
         7        15     1
         7        21     1
         7        22     1
         7        23     1
         8        11     1
         8        20     1
         9        12     1
         9        15     1
         9        16     1
        10        13     1
        10        17     1
        10        18     1
        10        19     1
        10        20     1
        11        14     1
        12        13     1
        12        20     1
        13        14     1
        15        16     1
        15        20     1
