Generated by PDBParser (exclude clash < 1.000 A)
513
    1SOL     OW    1   1.395   1.450   2.712
    1SOL    HW1    2   1.460   1.381   2.746
    1SOL    HW2    3   1.307   1.439   2.760
    2SOL     OW    4   0.481   2.538   3.023
    2SOL    HW1    5   0.450   2.447   3.053
    2SOL    HW2    6   0.575   2.532   2.988
    3SOL     OW    7   0.015   1.635   0.331
    3SOL    HW1    8  -0.056   1.567   0.310
    3SOL    HW2    9  -0.027   1.716   0.373
    4SOL     OW   10   0.093   2.980   1.550
    4SOL    HW1   11   0.101   2.912   1.476
    4SOL    HW2   12   0.184   3.019   1.568
    5SOL     OW   13  -1.936   1.900   1.459
    5SOL    HW1   14  -1.838   1.880   1.455
    5SOL    HW2   15  -1.964   1.945   1.374
    6SOL     OW   16   0.149   0.572   2.971
    6SOL    HW1   17   0.116   0.645   3.032
    6SOL    HW2   18   0.224   0.524   3.017
    7SOL     OW   19  -0.455   0.585   3.667
    7SOL    HW1   20  -0.442   0.501   3.613
    7SOL    HW2   21  -0.373   0.600   3.724
    8SOL     OW   22   1.652   1.544   2.989
    8SOL    HW1   23   1.632   1.635   2.951
    8SOL    HW2   24   1.569   1.507   3.030
    9SOL     OW   25   1.890   1.944   2.403
    9SOL    HW1   26   1.883   1.858   2.453
    9SOL    HW2   27   1.805   1.996   2.416
   10SOL     OW   28  -0.284   0.017   2.290
   10SOL    HW1   29  -0.245   0.083   2.226
   10SOL    HW2   30  -0.384   0.026   2.287
   11SOL     OW   31   1.756   2.732   2.049
   11SOL    HW1   32   1.752   2.643   2.096
   11SOL    HW2   33   1.759   2.805   2.117
   12SOL     OW   34   0.168   0.399   1.695
   12SOL    HW1   35   0.135   0.461   1.767
   12SOL    HW2   36   0.108   0.319   1.689
   13SOL     OW   37  -1.291   1.921   2.484
   13SOL    HW1   38  -1.329   1.870   2.407
   13SOL    HW2   39  -1.284   1.859   2.562
   14SOL     OW   40  -0.013   0.726   2.426
   14SOL    HW1   41  -0.094   0.749   2.372
   14SOL    HW2   42   0.068   0.728   2.366
   15SOL     OW   43  -0.280   0.507   0.744
   15SOL    HW1   44  -0.320   0.589   0.703
   15SOL    HW2   45  -0.339   0.428   0.725
   16SOL     OW   46  -0.844   0.208   1.833
   16SOL    HW1   47  -0.809   0.290   1.879
   16SOL    HW2   48  -0.767   0.153   1.800
   17SOL     OW   49  -0.537   2.772   0.437
   17SOL    HW1   50  -0.467   2.747   0.370
   17SOL    HW2   51  -0.624   2.728   0.411
   18SOL     OW   52   0.019   1.269   2.180
   18SOL    HW1   53  -0.074   1.296   2.153
   18SOL    HW2   54   0.028   1.275   2.280
   19SOL     OW   55  -0.105   0.254   1.563
   19SOL    HW1   56  -0.128   0.345   1.599
   19SOL    HW2   57  -0.153   0.184   1.617
   20SOL     OW   58   0.912   1.558   2.744
   20SOL    HW1   59   0.910   1.558   2.844
   20SOL    HW2   60   0.927   1.465   2.711
   21SOL     OW   61  -1.361   0.683   1.532
   21SOL    HW1   62  -1.339   0.586   1.522
   21SOL    HW2   63  -1.355   0.707   1.629
   22SOL     OW   64   0.521   0.789   3.649
   22SOL    HW1   65   0.489   0.884   3.641
   22SOL    HW2   66   0.463   0.730   3.593
   23SOL     OW   67  -1.603   1.272   2.079
   23SOL    HW1   68  -1.542   1.198   2.050
   23SOL    HW2   69  -1.655   1.305   1.999
   24SOL     OW   70   0.688   2.279   3.739
   24SOL    HW1   71   0.689   2.367   3.787
   24SOL    HW2   72   0.781   2.243   3.734
   25SOL     OW   73  -1.752   1.480   1.388
   25SOL    HW1   74  -1.829   1.540   1.413
   25SOL    HW2   75  -1.772   1.388   1.422
   26SOL     OW   76  -0.797   2.500   1.923
   26SOL    HW1   77  -0.836   2.449   1.845
   26SOL    HW2   78  -0.738   2.573   1.887
   27SOL     OW   79   1.210   2.892   2.910
   27SOL    HW1   80   1.231   2.827   2.983
   27SOL    HW2   81   1.266   2.974   2.923
   28SOL     OW   82  -0.773   0.343   1.118
   28SOL    HW1   83  -0.750   0.297   1.204
   28SOL    HW2   84  -0.752   0.283   1.041
   29SOL     OW   85  -0.065   1.453   3.570
   29SOL    HW1   86  -0.002   1.454   3.493
   29SOL    HW2   87  -0.065   1.543   3.616
   30SOL     OW   88   0.366   0.533   1.153
   30SOL    HW1   89   0.398   0.599   1.085
   30SOL    HW2   90   0.294   0.577   1.208
   31SOL     OW   91   1.121   2.585   2.329
   31SOL    HW1   92   1.192   2.532   2.281
   31SOL    HW2   93   1.144   2.590   2.426
   32SOL     OW   94  -0.379   1.088   2.780
   32SOL    HW1   95  -0.460   1.109   2.724
   32SOL    HW2   96  -0.306   1.055   2.720
   33SOL     OW   97  -0.151   2.876   0.502
   33SOL    HW1   98  -0.088   2.936   0.552
   33SOL    HW2   99  -0.240   2.878   0.549
   34SOL     OW  100  -0.409  -0.286   3.584
   34SOL    HW1  101  -0.476  -0.343   3.537
   34SOL    HW2  102  -0.455  -0.227   3.650
   35SOL     OW  103   2.128   0.922   0.441
   35SOL    HW1  104   2.135   0.919   0.541
   35SOL    HW2  105   2.064   0.852   0.410
   36SOL     OW  106  -0.779   0.439   0.785
   36SOL    HW1  107  -0.750   0.488   0.703
   36SOL    HW2  108  -0.707   0.444   0.854
   37SOL     OW  109  -0.525   3.419   2.075
   37SOL    HW1  110  -0.598   3.357   2.043
   37SOL    HW2  111  -0.521   3.415   2.175
   38SOL     OW  112   0.099   2.056   0.423
   38SOL    HW1  113   0.132   2.116   0.496
   38SOL    HW2  114   0.023   2.102   0.376
   39SOL     OW  115  -1.182   1.268   3.199
   39SOL    HW1  116  -1.190   1.278   3.299
   39SOL    HW2  117  -1.097   1.311   3.168
   40SOL     OW  118   0.538   1.234   3.912
   40SOL    HW1  119   0.449   1.281   3.909
   40SOL    HW2  120   0.530   1.153   3.969
   41SOL     OW  121  -1.377   2.964   1.674
   41SOL    HW1  122  -1.332   2.954   1.585
   41SOL    HW2  123  -1.317   3.016   1.735
   42SOL     OW  124   0.504   0.591   2.262
   42SOL    HW1  125   0.576   0.624   2.200
   42SOL    HW2  126   0.542   0.581   2.355
   43SOL     OW  127   0.405   0.458   0.569
   43SOL    HW1  128   0.451   0.547   0.572
   43SOL    HW2  129   0.406   0.417   0.660
   44SOL     OW  130   1.017   1.670   0.769
   44SOL    HW1  131   1.025   1.714   0.859
   44SOL    HW2  132   1.082   1.714   0.706
   45SOL     OW  133   0.285   3.023   1.878
   45SOL    HW1  134   0.329   3.038   1.789
   45SOL    HW2  135   0.186   3.038   1.869
   46SOL     OW  136   0.449   0.899   2.041
   46SOL    HW1  137   0.435   0.818   1.984
   46SOL    HW2  138   0.455   0.871   2.137
   47SOL     OW  139  -0.518   0.220   2.006
   47SOL    HW1  140  -0.422   0.247   2.015
   47SOL    HW2  141  -0.543   0.165   2.086
   48SOL     OW  142   0.991   1.253   2.546
   48SOL    HW1  143   0.998   1.157   2.518
   48SOL    HW2  144   0.988   1.311   2.464
   49SOL     OW  145  -1.680   3.070   1.549
   49SOL    HW1  146  -1.592   3.041   1.588
   49SOL    HW2  147  -1.705   3.010   1.473
   50SOL     OW  148  -1.395   1.208   0.861
   50SOL    HW1  149  -1.318   1.232   0.802
   50SOL    HW2  150  -1.395   1.266   0.942
   51SOL     OW  151  -1.164   3.224   1.961
   51SOL    HW1  152  -1.169   3.251   1.865
   51SOL    HW2  153  -1.072   3.242   1.995
   52SOL     OW  154   1.930   0.467   2.340
   52SOL    HW1  155   1.939   0.385   2.282
   52SOL    HW2  156   1.866   0.447   2.414
   53SOL     OW  157   0.490   0.135   1.778
   53SOL    HW1  158   0.490   0.219   1.724
   53SOL    HW2  159   0.399   0.121   1.817
   54SOL     OW  160   1.108   1.091   0.441
   54SOL    HW1  161   1.202   1.076   0.409
   54SOL    HW2  162   1.045   1.044   0.380
   55SOL     OW  163   1.047   1.291   2.963
   55SOL    HW1  164   1.062   1.387   2.986
   55SOL    HW2  165   0.957   1.263   3.000
   56SOL     OW  166  -0.421   2.011   3.951
   56SOL    HW1  167  -0.346   2.073   3.978
   56SOL    HW2  168  -0.464   1.974   4.034
   57SOL     OW  169   0.401   0.324   0.888
   57SOL    HW1  170   0.474   0.258   0.906
   57SOL    HW2  171   0.373   0.367   0.974
   58SOL     OW  172  -1.656   1.503   1.107
   58SOL    HW1  173  -1.693   1.496   1.201
   58SOL    HW2  174  -1.569   1.454   1.103
   59SOL     OW  175  -0.492   0.723   1.391
   59SOL    HW1  176  -0.404   0.762   1.418
   59SOL    HW2  177  -0.478   0.630   1.355
   60SOL     OW  178  -0.554  -0.067   3.790
   60SOL    HW1  179  -0.648  -0.063   3.755
   60SOL    HW2  180  -0.555  -0.105   3.883
   61SOL     OW  181   1.050   2.096   0.651
   61SOL    HW1  182   1.092   2.009   0.624
   61SOL    HW2  183   1.110   2.141   0.717
   62SOL     OW  184   0.492   3.061   1.112
   62SOL    HW1  185   0.500   3.047   1.211
   62SOL    HW2  186   0.560   3.129   1.083
   63SOL     OW  187  -1.004   1.980   2.826
   63SOL    HW1  188  -0.986   1.882   2.836
   63SOL    HW2  189  -1.102   1.993   2.808
   64SOL     OW  190   1.938   2.256   1.301
   64SOL    HW1  191   1.878   2.183   1.337
   64SOL    HW2  192   1.921   2.341   1.351
   65SOL     OW  193  -0.542   3.145   1.128
   65SOL    HW1  194  -0.595   3.177   1.207
   65SOL    HW2  195  -0.567   3.199   1.048
   66SOL     OW  196   1.747   1.998   3.201
   66SOL    HW1  197   1.842   1.966   3.193
   66SOL    HW2  198   1.732   2.036   3.292
   67SOL     OW  199  -1.294   1.669   2.663
   67SOL    HW1  200  -1.264   1.630   2.751
   67SOL    HW2  201  -1.344   1.598   2.612
   68SOL     OW  202   0.235   3.144   0.427
   68SOL    HW1  203   0.298   3.199   0.482
   68SOL    HW2  204   0.264   3.049   0.429
   69SOL     OW  205   0.118   0.825   0.445
   69SOL    HW1  206   0.159   0.753   0.389
   69SOL    HW2  207   0.038   0.863   0.397
   70SOL     OW  208   0.159   1.818   0.020
   70SOL    HW1  209   0.205   1.785   0.103
   70SOL    HW2  210   0.066   1.846   0.042
   71SOL     OW  211  -0.173   2.545   0.438
   71SOL    HW1  212  -0.083   2.590   0.441
   71SOL    HW2  213  -0.161   2.452   0.403
   72SOL     OW  214   1.357   0.750   3.349
   72SOL    HW1  215   1.259   0.759   3.366
   72SOL    HW2  216   1.377   0.768   3.252
   73SOL     OW  217  -0.722   1.226   4.093
   73SOL    HW1  218  -0.633   1.179   4.094
   73SOL    HW2  219  -0.790   1.169   4.138
   74SOL     OW  220   0.822   2.350   0.690
   74SOL    HW1  221   0.786   2.435   0.653
   74SOL    HW2  222   0.918   2.340   0.662
   75SOL     OW  223   1.769   0.188   1.932
   75SOL    HW1  224   1.684   0.241   1.928
   75SOL    HW2  225   1.797   0.163   1.839
   76SOL     OW  226  -2.061   0.278   3.748
   76SOL    HW1  227  -2.071   0.231   3.836
   76SOL    HW2  228  -2.134   0.248   3.687
   77SOL     OW  229   0.821   1.833   0.632
   77SOL    HW1  230   0.767   1.779   0.567
   77SOL    HW2  231   0.879   1.770   0.685
   78SOL     OW  232   0.521   3.185   2.111
   78SOL    HW1  233   0.583   3.130   2.056
   78SOL    HW2  234   0.484   3.259   2.054
   79SOL     OW  235  -0.467   0.901   4.318
   79SOL    HW1  236  -0.464   0.972   4.248
   79SOL    HW2  237  -0.374   0.876   4.344
   80SOL     OW  238  -1.040   1.076   0.252
   80SOL    HW1  239  -0.989   1.107   0.333
   80SOL    HW2  240  -0.995   1.111   0.170
   81SOL     OW  241  -0.785   1.871   3.685
   81SOL    HW1  242  -0.728   1.912   3.614
   81SOL    HW2  243  -0.781   1.929   3.767
   82SOL     OW  244  -1.434   1.166   3.079
   82SOL    HW1  245  -1.419   1.087   3.019
   82SOL    HW2  246  -1.346   1.198   3.116
   83SOL     OW  247  -1.645   0.548   2.413
   83SOL    HW1  248  -1.580   0.624   2.411
   83SOL    HW2  249  -1.603   0.467   2.371
   84SOL     OW  250  -0.715   2.255   0.222
   84SOL    HW1  251  -0.781   2.320   0.261
   84SOL    HW2  252  -0.630   2.303   0.199
   85SOL     OW  253   0.731   2.790   2.758
   85SOL    HW1  254   0.644   2.804   2.709
   85SOL    HW2  255   0.714   2.730   2.836
   86SOL     OW  256   0.066   2.916   2.541
   86SOL    HW1  257   0.140   2.849   2.556
   86SOL    HW2  258   0.081   2.994   2.602
   87SOL     OW  259  -0.475   0.064   4.209
   87SOL    HW1  260  -0.560   0.118   4.205
   87SOL    HW2  261  -0.490  -0.022   4.159
   88SOL     OW  262  -1.543   1.426   2.988
   88SOL    HW1  263  -1.511   1.338   3.023
   88SOL    HW2  264  -1.641   1.419   2.966
   89SOL     OW  265   0.052   3.122   2.197
   89SOL    HW1  266   0.010   3.196   2.143
   89SOL    HW2  267  -0.011   3.045   2.203
   90SOL     OW  268  -0.604   2.201   3.758
   90SOL    HW1  269  -0.557   2.217   3.670
   90SOL    HW2  270  -0.547   2.142   3.815
   91SOL     OW  271  -2.251   0.724   3.642
   91SOL    HW1  272  -2.296   0.771   3.718
   91SOL    HW2  273  -2.312   0.723   3.563
   92SOL     OW  274   1.938   0.216   2.171
   92SOL    HW1  275   1.995   0.134   2.181
   92SOL    HW2  276   1.882   0.206   2.088
   93SOL     OW  277  -0.139   2.725   2.811
   93SOL    HW1  278  -0.164   2.821   2.796
   93SOL    HW2  279  -0.159   2.673   2.728
   94SOL     OW  280  -1.526   0.313   2.288
   94SOL    HW1  281  -1.455   0.312   2.217
   94SOL    HW2  282  -1.607   0.266   2.253
   95SOL     OW  283   0.380   1.919   4.149
   95SOL    HW1  284   0.301   1.949   4.203
   95SOL    HW2  285   0.349   1.856   4.078
   96SOL     OW  286  -1.224   0.036   2.135
   96SOL    HW1  287  -1.275   0.120   2.114
   96SOL    HW2  288  -1.128   0.049   2.111
   97SOL     OW  289  -1.537   0.284   1.056
   97SOL    HW1  290  -1.451   0.331   1.076
   97SOL    HW2  291  -1.605   0.312   1.124
   98SOL     OW  292  -0.780   2.787   0.710
   98SOL    HW1  293  -0.705   2.728   0.739
   98SOL    HW2  294  -0.789   2.781   0.610
   99SOL     OW  295   1.960   2.210   2.545
   99SOL    HW1  296   1.971   2.120   2.502
   99SOL    HW2  297   1.862   2.229   2.555
  100SOL     OW  298   0.882   2.014   0.408
  100SOL    HW1  299   0.865   1.955   0.488
  100SOL    HW2  300   0.950   2.083   0.434
  101SOL     OW  301  -0.494   0.849   3.515
  101SOL    HW1  302  -0.439   0.872   3.433
  101SOL    HW2  303  -0.470   0.757   3.547
  102SOL     OW  304   0.094   3.407   0.424
  102SOL    HW1  305   0.162   3.451   0.484
  102SOL    HW2  306   0.121   3.312   0.410
  103SOL     OW  307   0.685   2.100   0.204
  103SOL    HW1  308   0.753   2.071   0.272
  103SOL    HW2  309   0.605   2.139   0.250
  104SOL     OW  310  -0.712   1.250   3.693
  104SOL    HW1  311  -0.738   1.154   3.709
  104SOL    HW2  312  -0.787   1.298   3.646
  105SOL     OW  313  -1.357   2.266   3.377
  105SOL    HW1  314  -1.279   2.203   3.388
  105SOL    HW2  315  -1.369   2.319   3.462
  106SOL     OW  316   0.824   0.783   2.512
  106SOL    HW1  317   0.895   0.843   2.550
  106SOL    HW2  318   0.856   0.747   2.424
  107SOL     OW  319   1.479   1.200   3.036
  107SOL    HW1  320   1.508   1.207   2.941
  107SOL    HW2  321   1.394   1.147   3.042
  108SOL     OW  322  -0.943   0.077   2.081
  108SOL    HW1  323  -0.879   0.089   2.158
  108SOL    HW2  324  -0.902   0.117   1.998
  109SOL     OW  325  -0.528  -0.191   4.056
  109SOL    HW1  326  -0.583  -0.240   4.124
  109SOL    HW2  327  -0.442  -0.239   4.044
  110SOL     OW  328  -0.501   0.460   1.247
  110SOL    HW1  329  -0.524   0.504   1.159
  110SOL    HW2  330  -0.571   0.393   1.270
  111SOL     OW  331   0.907   0.668   2.263
  111SOL    HW1  332   0.837   0.690   2.195
  111SOL    HW2  333   0.952   0.583   2.236
  112SOL     OW  334  -0.927   1.506   3.883
  112SOL    HW1  335  -0.922   1.490   3.784
  112SOL    HW2  336  -0.984   1.435   3.925
  113SOL     OW  337   1.197   2.824   3.753
  113SOL    HW1  338   1.141   2.813   3.671
  113SOL    HW2  339   1.159   2.769   3.827
  114SOL     OW  340  -0.678  -0.353   4.256
  114SOL    HW1  341  -0.684  -0.368   4.355
  114SOL    HW2  342  -0.770  -0.351   4.218
  115SOL     OW  343  -1.743   0.638   2.671
  115SOL    HW1  344  -1.718   0.599   2.582
  115SOL    HW2  345  -1.842   0.652   2.674
  116SOL     OW  346   0.875   2.037   0.890
  116SOL    HW1  347   0.932   2.059   0.811
  116SOL    HW2  348   0.917   1.961   0.940
  117SOL     OW  349   0.705   2.998   1.910
  117SOL    HW1  350   0.738   2.918   1.960
  117SOL    HW2  351   0.701   2.976   1.812
  118SOL     OW  352  -0.083   1.042   0.320
  118SOL    HW1  353  -0.156   1.107   0.341
  118SOL    HW2  354   0.001   1.094   0.302
  119SOL     OW  355  -0.648  -0.422   3.474
  119SOL    HW1  356  -0.705  -0.365   3.413
  119SOL    HW2  357  -0.680  -0.411   3.568
  120SOL     OW  358  -0.919   2.972   3.351
  120SOL    HW1  359  -0.850   2.911   3.391
  120SOL    HW2  360  -0.880   3.063   3.341
  121SOL     OW  361   1.588   0.572   3.415
  121SOL    HW1  362   1.511   0.632   3.393
  121SOL    HW2  363   1.601   0.571   3.515
  122SOL     OW  364   1.893   1.649   1.285
  122SOL    HW1  365   1.821   1.611   1.344
  122SOL    HW2  366   1.961   1.696   1.343
  123SOL     OW  367  -0.976   1.575   2.881
  123SOL    HW1  368  -0.929   1.518   2.813
  123SOL    HW2  369  -0.973   1.528   2.970
  124SOL     OW  370   2.068   1.806   1.466
  124SOL    HW1  371   2.159   1.773   1.494
  124SOL    HW2  372   2.030   1.864   1.538
  125SOL     OW  373   0.382   2.209   0.300
  125SOL    HW1  374   0.371   2.278   0.229
  125SOL    HW2  375   0.304   2.146   0.297
  126SOL     OW  376  -1.387   1.375   1.113
  126SOL    HW1  377  -1.395   1.303   1.181
  126SOL    HW2  378  -1.307   1.431   1.133
  127SOL     OW  379   1.957   2.002   1.666
  127SOL    HW1  380   1.929   2.034   1.756
  127SOL    HW2  381   1.937   2.072   1.597
  128SOL     OW  382  -0.417   0.018   4.500
  128SOL    HW1  383  -0.426   0.032   4.401
  128SOL    HW2  384  -0.480   0.080   4.547
  129SOL     OW  385  -1.840   1.399   2.907
  129SOL    HW1  386  -1.874   1.337   2.835
  129SOL    HW2  387  -1.899   1.480   2.910
  130SOL     OW  388   0.931   2.999   2.750
  130SOL    HW1  389   0.859   2.929   2.756
  130SOL    HW2  390   1.012   2.966   2.798
  131SOL     OW  391  -1.555   2.139   3.204
  131SOL    HW1  392  -1.485   2.190   3.257
  131SOL    HW2  393  -1.619   2.096   3.268
  132SOL     OW  394   1.848   1.819   1.048
  132SOL    HW1  395   1.851   1.743   1.113
  132SOL    HW2  396   1.932   1.872   1.057
  133SOL     OW  397   2.070   1.972   1.200
  133SOL    HW1  398   2.082   1.921   1.286
  133SOL    HW2  399   2.062   2.070   1.221
  134SOL     OW  400  -0.255   1.339   2.110
  134SOL    HW1  401  -0.310   1.268   2.066
  134SOL    HW2  402  -0.312   1.387   2.177
  135SOL     OW  403  -0.416   1.475   2.307
  135SOL    HW1  404  -0.485   1.544   2.281
  135SOL    HW2  405  -0.461   1.401   2.358
  136SOL     OW  406   1.507   2.294   1.653
  136SOL    HW1  407   1.525   2.207   1.700
  136SOL    HW2  408   1.474   2.275   1.560
  137SOL     OW  409   1.833   2.179   1.901
  137SOL    HW1  410   1.840   2.273   1.868
  137SOL    HW2  411   1.890   2.170   1.983
  138SOL     OW  412   1.574   2.066   1.821
  138SOL    HW1  413   1.597   1.974   1.789
  138SOL    HW2  414   1.659   2.110   1.854
  139SOL     OW  415   1.409   2.043   2.057
  139SOL    HW1  416   1.347   1.965   2.061
  139SOL    HW2  417   1.457   2.042   1.969
  140SOL     OW  418   0.192   0.788   1.711
  140SOL    HW1  419   0.109   0.838   1.734
  140SOL    HW2  420   0.204   0.787   1.611
  141SOL     OW  421   0.416   0.672   1.841
  141SOL    HW1  422   0.335   0.715   1.800
  141SOL    HW2  423   0.411   0.573   1.825
  142SOL     OW  424   0.130   0.510   1.428
  142SOL    HW1  425   0.168   0.603   1.426
  142SOL    HW2  426   0.149   0.469   1.518
  143SOL     OW  427  -0.568   1.323  -0.051
  143SOL    HW1  428  -0.656   1.366  -0.027
  143SOL    HW2  429  -0.514   1.389  -0.104
  144SOL     OW  430   0.087   0.785   3.163
  144SOL    HW1  431   0.023   0.858   3.139
  144SOL    HW2  432   0.169   0.826   3.205
  145SOL     OW  433  -1.438   0.040   3.195
  145SOL    HW1  434  -1.355   0.067   3.245
  145SOL    HW2  435  -1.488  -0.029   3.248
  146SOL     OW  436  -0.161   2.737   2.469
  146SOL    HW1  437  -0.113   2.661   2.426
  146SOL    HW2  438  -0.095   2.809   2.490
  147SOL     OW  439  -0.373   2.841   2.280
  147SOL    HW1  440  -0.314   2.875   2.207
  147SOL    HW2  441  -0.315   2.804   2.353
  148SOL     OW  442   0.805   2.791   2.344
  148SOL    HW1  443   0.840   2.734   2.418
  148SOL    HW2  444   0.767   2.876   2.382
  149SOL     OW  445   1.182   2.612   2.635
  149SOL    HW1  446   1.272   2.575   2.612
  149SOL    HW2  447   1.194   2.686   2.701
  150SOL     OW  448   0.895   2.636   2.570
  150SOL    HW1  449   0.991   2.624   2.595
  150SOL    HW2  450   0.849   2.691   2.640
  151SOL     OW  451   1.987   1.650   2.798
  151SOL    HW1  452   1.929   1.683   2.723
  151SOL    HW2  453   1.928   1.615   2.871
  152SOL     OW  454   2.152   1.454   2.641
  152SOL    HW1  455   2.106   1.521   2.700
  152SOL    HW2  456   2.247   1.444   2.671
  153SOL     OW  457   2.160   1.848   2.934
  153SOL    HW1  458   2.237   1.877   2.877
  153SOL    HW2  459   2.106   1.779   2.884
  154SOL     OW  460   2.026   1.916   3.187
  154SOL    HW1  461   2.071   1.897   3.099
  154SOL    HW2  462   2.093   1.900   3.260
  155SOL     OW  463   0.231   0.731   2.260
  155SOL    HW1  464   0.210   0.757   2.165
  155SOL    HW2  465   0.314   0.674   2.261
  156SOL     OW  466  -0.052   0.688   2.708
  156SOL    HW1  467  -0.007   0.757   2.766
  156SOL    HW2  468  -0.042   0.714   2.611
  157SOL     OW  469  -1.369   1.626   0.287
  157SOL    HW1  470  -1.291   1.668   0.334
  157SOL    HW2  471  -1.340   1.593   0.198
  158SOL     OW  472  -0.083   3.023   1.763
  158SOL    HW1  473  -0.179   3.047   1.741
  158SOL    HW2  474  -0.032   3.011   1.678
  159SOL     OW  475  -0.978   2.391   2.294
  159SOL    HW1  476  -1.054   2.448   2.324
  159SOL    HW2  477  -0.984   2.376   2.195
  160SOL     OW  478  -0.693   2.456   2.336
  160SOL    HW1  479  -0.651   2.421   2.252
  160SOL    HW2  480  -0.792   2.442   2.330
  161SOL     OW  481   0.673   3.025   2.465
  161SOL    HW1  482   0.725   3.081   2.529
  161SOL    HW2  483   0.609   2.967   2.516
  162SOL     OW  484   0.765   0.320   2.291
  162SOL    HW1  485   0.691   0.311   2.224
  162SOL    HW2  486   0.850   0.344   2.244
  163SOL     OW  487   1.013   0.415   2.156
  163SOL    HW1  488   1.103   0.384   2.188
  163SOL    HW2  489   1.013   0.418   2.056
  164SOL     OW  490   0.627   0.570   2.540
  164SOL    HW1  491   0.689   0.648   2.541
  164SOL    HW2  492   0.681   0.486   2.528
  165SOL     OW  493   0.383   0.564   2.707
  165SOL    HW1  494   0.387   0.639   2.772
  165SOL    HW2  495   0.465   0.566   2.649
  166SOL     OW  496  -0.550   1.487   4.190
  166SOL    HW1  497  -0.601   1.405   4.217
  166SOL    HW2  498  -0.452   1.472   4.208
  167SOL     OW  499  -1.452   0.151   2.530
  167SOL    HW1  500  -1.470   0.211   2.452
  167SOL    HW2  501  -1.524   0.163   2.598
  168SOL     OW  502  -0.690   0.223   1.373
  168SOL    HW1  503  -0.604   0.202   1.421
  168SOL    HW2  504  -0.766   0.187   1.427
  169SOL     OW  505  -0.133   0.516   1.310
  169SOL    HW1  506  -0.040   0.512   1.349
  169SOL    HW2  507  -0.181   0.431   1.334
  170SOL     OW  508   0.055   0.570   1.898
  170SOL    HW1  509   0.024   0.513   1.975
  170SOL    HW2  510   0.083   0.660   1.933
  171SOL     OW  511   2.008   2.176   2.140
  171SOL    HW1  512   2.018   2.098   2.202
  171SOL    HW2  513   2.048   2.257   2.183
     5.547     5.547     5.547
