; ITP file created by ByteFF-joint-25, 2025-07-14 11:38:15.881539

[ atomtypes ]
;name           bonded.type        at.num        mass        charge   ptype           sigma         epsilon
 c0bf                                   6      0.0000       0.00000       A     3.39727e-01     4.50753e-01    ;  uncertainty sigma = 0.000014, epsilon = 0.000480
 c1bf                                   6      0.0000       0.00000       A     3.31508e-01     4.13572e-01    ;  uncertainty sigma = 0.000015, epsilon = 0.000692
 c2bf                                   6      0.0000       0.00000       A     3.31535e-01     4.13417e-01    ;  uncertainty sigma = 0.000017, epsilon = 0.000310
 c3bf                                   6      0.0000       0.00000       A     3.31531e-01     4.12691e-01    ;  uncertainty sigma = 0.000016, epsilon = 0.001323
 c4bf                                   6      0.0000       0.00000       A     3.31516e-01     4.13608e-01    ;  uncertainty sigma = 0.000019, epsilon = 0.000900
 c5bf                                   6      0.0000       0.00000       A     3.31523e-01     4.13227e-01    ;  uncertainty sigma = 0.000004, epsilon = 0.000927
 c6bf                                   6      0.0000       0.00000       A     3.31516e-01     4.12685e-01    ;  uncertainty sigma = 0.000006, epsilon = 0.000577
 c7bf                                   6      0.0000       0.00000       A     3.31515e-01     4.13187e-01    ;  uncertainty sigma = 0.000025, epsilon = 0.000772
 c8bf                                   6      0.0000       0.00000       A     3.31474e-01     4.13273e-01    ;  uncertainty sigma = 0.000008, epsilon = 0.000695
 c9bf                                   6      0.0000       0.00000       A     3.31529e-01     4.13901e-01    ;  uncertainty sigma = 0.000015, epsilon = 0.000941
 n10bf                                  7      0.0000       0.00000       A     3.18060e-01     6.83813e-01    ;  uncertainty sigma = 0.000025, epsilon = 0.000716
 n11bf                                  7      0.0000       0.00000       A     3.20586e-01     8.52568e-01    ;  uncertainty sigma = 0.000030, epsilon = 0.002354
 o12bf                                  8      0.0000       0.00000       A     3.04823e-01     6.12695e-01    ;  uncertainty sigma = 0.000008, epsilon = 0.001761
 c13bf                                  6      0.0000       0.00000       A     3.31517e-01     4.13251e-01    ;  uncertainty sigma = 0.000009, epsilon = 0.000668
 c14bf                                  6      0.0000       0.00000       A     3.31513e-01     4.13205e-01    ;  uncertainty sigma = 0.000005, epsilon = 0.000641
 c15bf                                  6      0.0000       0.00000       A     3.31517e-01     4.13384e-01    ;  uncertainty sigma = 0.000002, epsilon = 0.000567
 c16bf                                  6      0.0000       0.00000       A     3.31524e-01     4.13317e-01    ;  uncertainty sigma = 0.000004, epsilon = 0.000606
 c17bf                                  6      0.0000       0.00000       A     3.31519e-01     4.13635e-01    ;  uncertainty sigma = 0.000013, epsilon = 0.001168
 c18bf                                  6      0.0000       0.00000       A     3.31518e-01     4.13101e-01    ;  uncertainty sigma = 0.000004, epsilon = 0.000807
 c19bf                                  6      0.0000       0.00000       A     3.31513e-01     4.13292e-01    ;  uncertainty sigma = 0.000014, epsilon = 0.000898
 o20bf                                  8      0.0000       0.00000       A     3.04820e-01     6.12248e-01    ;  uncertainty sigma = 0.000024, epsilon = 0.001577
 n21bf                                  7      0.0000       0.00000       A     3.18094e-01     6.84128e-01    ;  uncertainty sigma = 0.000012, epsilon = 0.001060
 c22bf                                  6      0.0000       0.00000       A     3.39780e-01     4.50875e-01    ;  uncertainty sigma = 0.000005, epsilon = 0.000552
 c23bf                                  6      0.0000       0.00000       A     3.39780e-01     4.50875e-01    ;  uncertainty sigma = 0.000005, epsilon = 0.000552
 h24bf                                  1      0.0000       0.00000       A     2.42217e-01     8.67884e-02    ;  uncertainty sigma = 0.000016, epsilon = 0.000572
 h25bf                                  1      0.0000       0.00000       A     2.42217e-01     8.67884e-02    ;  uncertainty sigma = 0.000016, epsilon = 0.000572
 h26bf                                  1      0.0000       0.00000       A     2.53572e-01     6.68601e-02    ;  uncertainty sigma = 0.000061, epsilon = 0.001163
 h27bf                                  1      0.0000       0.00000       A     2.62541e-01     6.71315e-02    ;  uncertainty sigma = 0.000006, epsilon = 0.000396
 h28bf                                  1      0.0000       0.00000       A     2.53650e-01     6.69354e-02    ;  uncertainty sigma = 0.000022, epsilon = 0.000688
 h29bf                                  1      0.0000       0.00000       A     2.62591e-01     6.74655e-02    ;  uncertainty sigma = 0.000043, epsilon = 0.000587
 h30bf                                  1      0.0000       0.00000       A     2.62558e-01     6.73043e-02    ;  uncertainty sigma = 0.000031, epsilon = 0.001168
 h31bf                                  1      0.0000       0.00000       A     1.10686e-01     4.09719e-02    ;  uncertainty sigma = 0.000062, epsilon = 0.000972
 h32bf                                  1      0.0000       0.00000       A     2.62563e-01     6.70403e-02    ;  uncertainty sigma = 0.000011, epsilon = 0.000526
 h33bf                                  1      0.0000       0.00000       A     2.62563e-01     6.70146e-02    ;  uncertainty sigma = 0.000010, epsilon = 0.000410
 h34bf                                  1      0.0000       0.00000       A     2.62550e-01     6.70182e-02    ;  uncertainty sigma = 0.000010, epsilon = 0.000665
 h35bf                                  1      0.0000       0.00000       A     2.62555e-01     6.72136e-02    ;  uncertainty sigma = 0.000019, epsilon = 0.000855
 h36bf                                  1      0.0000       0.00000       A     2.42196e-01     8.67627e-02    ;  uncertainty sigma = 0.000011, epsilon = 0.000510
 h37bf                                  1      0.0000       0.00000       A     2.42196e-01     8.67627e-02    ;  uncertainty sigma = 0.000011, epsilon = 0.000510
 h38bf                                  1      0.0000       0.00000       A     2.42196e-01     8.67627e-02    ;  uncertainty sigma = 0.000011, epsilon = 0.000510
 h39bf                                  1      0.0000       0.00000       A     2.42196e-01     8.67627e-02    ;  uncertainty sigma = 0.000011, epsilon = 0.000510
 h40bf                                  1      0.0000       0.00000       A     2.42196e-01     8.67625e-02    ;  uncertainty sigma = 0.000011, epsilon = 0.000510
 h41bf                                  1      0.0000       0.00000       A     2.42196e-01     8.67625e-02    ;  uncertainty sigma = 0.000011, epsilon = 0.000510
 h42bf                                  1      0.0000       0.00000       A     2.62558e-01     6.73042e-02    ;  uncertainty sigma = 0.000031, epsilon = 0.001168

[ moleculetype ]
;name             nrexcl
 MOL                   3

[ atoms ]
;       nr            type      resi   res      atom      cgnr      charge          mass ; qtot
         1            c0bf         1   UNL        c0         1     0.12272       12.0110 ; qtot    0.123
         2            c1bf         1   UNL        c1         2     0.72947       12.0110 ; qtot    0.852
         3            c2bf         1   UNL        c2         3     0.00458       12.0110 ; qtot    0.857
         4            c3bf         1   UNL        c3         4    -0.06951       12.0110 ; qtot    0.787
         5            c4bf         1   UNL        c4         5    -0.03462       12.0110 ; qtot    0.753
         6            c5bf         1   UNL        c5         6    -0.19938       12.0110 ; qtot    0.553
         7            c6bf         1   UNL        c6         7    -0.11510       12.0110 ; qtot    0.438
         8            c7bf         1   UNL        c7         8    -0.20431       12.0110 ; qtot    0.234
         9            c8bf         1   UNL        c8         9    -0.20486       12.0110 ; qtot    0.029
        10            c9bf         1   UNL        c9        10    -0.19123       12.0110 ; qtot   -0.162
        11           n10bf         1   UNL       n10        11    -0.35084       14.0070 ; qtot   -0.513
        12           n11bf         1   UNL       n11        12    -0.13929       14.0070 ; qtot   -0.652
        13           o12bf         1   UNL       o12        13    -0.66076       15.9990 ; qtot   -1.313
        14           c13bf         1   UNL       c13        14    -0.02950       12.0110 ; qtot   -1.343
        15           c14bf         1   UNL       c14        15    -0.10611       12.0110 ; qtot   -1.449
        16           c15bf         1   UNL       c15        16    -0.13827       12.0110 ; qtot   -1.587
        17           c16bf         1   UNL       c16        17    -0.09053       12.0110 ; qtot   -1.678
        18           c17bf         1   UNL       c17        18    -0.14304       12.0110 ; qtot   -1.821
        19           c18bf         1   UNL       c18        19    -0.08800       12.0110 ; qtot   -1.909
        20           c19bf         1   UNL       c19        20     0.67807       12.0110 ; qtot   -1.231
        21           o20bf         1   UNL       o20        21    -0.59473       15.9990 ; qtot   -1.825
        22           n21bf         1   UNL       n21        22    -0.48247       14.0070 ; qtot   -2.308
        23           c22bf         1   UNL       c22        23     0.08268       12.0110 ; qtot   -2.225
        24           c23bf         1   UNL       c23        24     0.08268       12.0110 ; qtot   -2.142
        25           h24bf         1   UNL       h24        25     0.07090        1.0080 ; qtot   -2.071
        26           h25bf         1   UNL       h25        26     0.07090        1.0080 ; qtot   -2.001
        27           h26bf         1   UNL       h26        27     0.15561        1.0080 ; qtot   -1.845
        28           h27bf         1   UNL       h27        28     0.16006        1.0080 ; qtot   -1.685
        29           h28bf         1   UNL       h28        29     0.16563        1.0080 ; qtot   -1.519
        30           h29bf         1   UNL       h29        30     0.13095        1.0080 ; qtot   -1.388
        31           h30bf         1   UNL       h30        31     0.11594        1.0080 ; qtot   -1.272
        32           h31bf         1   UNL       h31        32     0.31885        1.0080 ; qtot   -0.954
        33           h32bf         1   UNL       h32        33     0.13708        1.0080 ; qtot   -0.816
        34           h33bf         1   UNL       h33        34     0.13776        1.0080 ; qtot   -0.679
        35           h34bf         1   UNL       h34        35     0.14579        1.0080 ; qtot   -0.533
        36           h35bf         1   UNL       h35        36     0.15025        1.0080 ; qtot   -0.383
        37           h36bf         1   UNL       h36        37     0.04445        1.0080 ; qtot   -0.338
        38           h37bf         1   UNL       h37        38     0.04445        1.0080 ; qtot   -0.294
        39           h38bf         1   UNL       h38        39     0.04445        1.0080 ; qtot   -0.249
        40           h39bf         1   UNL       h39        40     0.04445        1.0080 ; qtot   -0.205
        41           h40bf         1   UNL       h40        41     0.04445        1.0080 ; qtot   -0.160
        42           h41bf         1   UNL       h41        42     0.04445        1.0080 ; qtot   -0.116
        43           h42bf         1   UNL       h42        43     0.11593        1.0080 ; qtot   -0.000

[ bonds ]
;       ai        aj funct               r               k
         1         9     1        0.151080   242412.415283    ;  uncertainty r = 0.000058, k = 7.112051
         1        11     1        0.146716   241263.858252    ;  uncertainty r = 0.000114, k = 9.011468
         1        25     1        0.109389   306788.990918    ;  uncertainty r = 0.000032, k = 1.638730
         1        26     1        0.109389   306788.990918    ;  uncertainty r = 0.000032, k = 1.638730
         2         8     1        0.143815   256045.426660    ;  uncertainty r = 0.000065, k = 17.644805
         2        11     1        0.139736   237994.367676    ;  uncertainty r = 0.000127, k = 16.307294
         2        13     1        0.124808   726004.646191    ;  uncertainty r = 0.000118, k = 15.392164
         3         4     1        0.136365   401842.146875    ;  uncertainty r = 0.000103, k = 15.831998
         3        11     1        0.138235   273750.534424    ;  uncertainty r = 0.000165, k = 12.777555
         3        27     1        0.108452   335074.455078    ;  uncertainty r = 0.000086, k = 1.717710
         4         5     1        0.143438   266361.703809    ;  uncertainty r = 0.000143, k = 15.660581
         4        14     1        0.147762   285536.523291    ;  uncertainty r = 0.000044, k = 11.529693
         5         6     1        0.143098   272603.279785    ;  uncertainty r = 0.000093, k = 17.629831
         5         8     1        0.140258   406999.136279    ;  uncertainty r = 0.000075, k = 13.601771
         6         7     1        0.138514   432195.197559    ;  uncertainty r = 0.000076, k = 6.544483
         6        28     1        0.108231   338325.380176    ;  uncertainty r = 0.000029, k = 1.934609
         7        12     1        0.137723   308827.260840    ;  uncertainty r = 0.000097, k = 4.992967
         7        29     1        0.108224   341276.703906    ;  uncertainty r = 0.000037, k = 2.130474
         8        12     1        0.137225   329238.127490    ;  uncertainty r = 0.000090, k = 12.928558
         9        10     1        0.133305   460620.094336    ;  uncertainty r = 0.000030, k = 2.745160
         9        30     1        0.108908   332747.922266    ;  uncertainty r = 0.000037, k = 1.219319
        10        31     1        0.108871   335162.353809    ;  uncertainty r = 0.000016, k = 2.039391
        10        43     1        0.108871   335162.353809    ;  uncertainty r = 0.000016, k = 2.039391
        12        32     1        0.101139   415156.225293    ;  uncertainty r = 0.000050, k = 8.169425
        14        15     1        0.140255   348973.231152    ;  uncertainty r = 0.000047, k = 2.336407
        14        19     1        0.139991   341845.721777    ;  uncertainty r = 0.000087, k = 4.291725
        15        16     1        0.139400   369466.684814    ;  uncertainty r = 0.000016, k = 1.493069
        15        33     1        0.108826   334608.683740    ;  uncertainty r = 0.000025, k = 0.878876
        16        17     1        0.139413   368095.520801    ;  uncertainty r = 0.000010, k = 0.854537
        16        34     1        0.108823   332776.064160    ;  uncertainty r = 0.000020, k = 1.295620
        17        18     1        0.139890   349707.065527    ;  uncertainty r = 0.000044, k = 2.770799
        17        35     1        0.108700   331987.376074    ;  uncertainty r = 0.000012, k = 1.339248
        18        19     1        0.139558   343795.199170    ;  uncertainty r = 0.000050, k = 3.098708
        18        20     1        0.150223   268630.088623    ;  uncertainty r = 0.000058, k = 4.245765
        19        36     1        0.108745   332769.628809    ;  uncertainty r = 0.000047, k = 1.433152
        20        21     1        0.123674   775280.184180    ;  uncertainty r = 0.000040, k = 2.412179
        20        22     1        0.137463   375338.432373    ;  uncertainty r = 0.000044, k = 10.885088
        22        23     1        0.145945   249588.419629    ;  uncertainty r = 0.000026, k = 4.280278
        22        24     1        0.145945   249588.419629    ;  uncertainty r = 0.000026, k = 4.280278
        23        37     1        0.109445   311010.709229    ;  uncertainty r = 0.000011, k = 1.720998
        23        38     1        0.109445   311010.709229    ;  uncertainty r = 0.000011, k = 1.720998
        23        39     1        0.109445   311010.709229    ;  uncertainty r = 0.000011, k = 1.720998
        24        40     1        0.109445   311010.709229    ;  uncertainty r = 0.000011, k = 1.720998
        24        41     1        0.109445   311010.709229    ;  uncertainty r = 0.000011, k = 1.720998
        24        42     1        0.109445   311010.709229    ;  uncertainty r = 0.000011, k = 1.721008

[ angles ]
;       ai        aj        ak funct           theta             cth
         1         9        10     1      123.865540      474.904781    ;  uncertainty theta = 0.002608, k = 0.056403
         1         9        30     1      116.878128      259.006381    ;  uncertainty theta = 0.003995, k = 0.036209
         1        11         2     1      113.954506      427.166187    ;  uncertainty theta = 0.003603, k = 0.179957
         1        11         3     1      116.191284      449.484280    ;  uncertainty theta = 0.002651, k = 0.203303
         2         8         5     1      122.812782      386.079532    ;  uncertainty theta = 0.006706, k = 0.312710
         2         8        12     1      121.102867      350.666584    ;  uncertainty theta = 0.011944, k = 0.276216
         2        11         3     1      125.154869      507.984882    ;  uncertainty theta = 0.002111, k = 0.238298
         3         4         5     1      119.996094      429.987272    ;  uncertainty theta = 0.005022, k = 0.147275
         3         4        14     1      120.602585      384.381314    ;  uncertainty theta = 0.004915, k = 0.150927
         4         3        11     1      127.446365      571.359943    ;  uncertainty theta = 0.003113, k = 0.165731
         4         3        27     1      121.257217      253.760213    ;  uncertainty theta = 0.003384, k = 0.121807
         4         5         6     1      130.627151      356.495334    ;  uncertainty theta = 0.006420, k = 0.087523
         4         5         8     1      117.738571      429.303995    ;  uncertainty theta = 0.009939, k = 0.194997
         4        14        15     1      121.782211      422.017523    ;  uncertainty theta = 0.004875, k = 0.065559
         4        14        19     1      120.922653      405.593938    ;  uncertainty theta = 0.006837, k = 0.098822
         5         4        14     1      121.517014      375.674501    ;  uncertainty theta = 0.005574, k = 0.162459
         5         6         7     1      106.651588      790.063898    ;  uncertainty theta = 0.007324, k = 0.128778
         5         6        28     1      124.749977      251.322025    ;  uncertainty theta = 0.002184, k = 0.280041
         5         8        12     1      108.697922      611.648181    ;  uncertainty theta = 0.003811, k = 0.056814
         6         5         8     1      107.232010      700.961795    ;  uncertainty theta = 0.006623, k = 0.065020
         6         7        12     1      110.262352      731.065322    ;  uncertainty theta = 0.004583, k = 0.122419
         6         7        29     1      128.244171      234.340614    ;  uncertainty theta = 0.004055, k = 0.165172
         7         6        28     1      123.456604      249.893352    ;  uncertainty theta = 0.002217, k = 0.104075
         7        12         8     1      105.428810      867.029106    ;  uncertainty theta = 0.004825, k = 0.201301
         7        12        32     1      116.062500      278.192842    ;  uncertainty theta = 0.005254, k = 0.128297
         8         2        11     1      108.858475      380.458304    ;  uncertainty theta = 0.010231, k = 0.269069
         8         2        13     1      128.526764      501.343414    ;  uncertainty theta = 0.005523, k = 0.172584
         8        12        32     1      117.635910      284.830288    ;  uncertainty theta = 0.005410, k = 0.212295
         9         1        11     1      112.253922      632.210342    ;  uncertainty theta = 0.003076, k = 0.126792
         9         1        25     1      108.664352      404.794147    ;  uncertainty theta = 0.001662, k = 0.040263
         9         1        26     1      108.664352      404.794147    ;  uncertainty theta = 0.001662, k = 0.040263
         9        10        31     1      120.186913      316.673372    ;  uncertainty theta = 0.003550, k = 0.017473
         9        10        43     1      120.186913      316.673372    ;  uncertainty theta = 0.003550, k = 0.017473
        10         9        30     1      120.525833      293.437124    ;  uncertainty theta = 0.003049, k = 0.038910
        11         1        25     1      105.776756      441.515170    ;  uncertainty theta = 0.002339, k = 0.018930
        11         1        26     1      105.776756      441.515170    ;  uncertainty theta = 0.002339, k = 0.018930
        11         2        13     1      122.902344      688.656547    ;  uncertainty theta = 0.004614, k = 0.083418
        11         3        27     1      112.322342      296.729017    ;  uncertainty theta = 0.003209, k = 0.192815
        12         7        29     1      117.816879      298.852300    ;  uncertainty theta = 0.002755, k = 0.084542
        14        15        16     1      119.973778      530.809057    ;  uncertainty theta = 0.001929, k = 0.049030
        14        15        33     1      119.632278      280.706173    ;  uncertainty theta = 0.001643, k = 0.030018
        14        19        18     1      121.985985      516.837640    ;  uncertainty theta = 0.001466, k = 0.089984
        14        19        36     1      119.707138      280.555951    ;  uncertainty theta = 0.002407, k = 0.065120
        15        14        19     1      119.781410      411.623473    ;  uncertainty theta = 0.002855, k = 0.205677
        15        16        17     1      120.436646      510.385274    ;  uncertainty theta = 0.001517, k = 0.068547
        15        16        34     1      120.328796      285.162366    ;  uncertainty theta = 0.001614, k = 0.041580
        16        15        33     1      120.379723      293.583196    ;  uncertainty theta = 0.001513, k = 0.030875
        16        17        18     1      120.008949      514.218554    ;  uncertainty theta = 0.002544, k = 0.056425
        16        17        35     1      120.506577      287.142067    ;  uncertainty theta = 0.002171, k = 0.099837
        17        16        34     1      120.297501      283.473725    ;  uncertainty theta = 0.001407, k = 0.034077
        17        18        19     1      121.459000      452.260100    ;  uncertainty theta = 0.003682, k = 0.090201
        17        18        20     1      120.643578      334.713169    ;  uncertainty theta = 0.002603, k = 0.118740
        18        17        35     1      119.666092      269.175529    ;  uncertainty theta = 0.002464, k = 0.057039
        18        19        36     1      119.470741      271.577167    ;  uncertainty theta = 0.002815, k = 0.063533
        18        20        21     1      124.280190      514.030282    ;  uncertainty theta = 0.001496, k = 0.156591
        18        20        22     1      114.339493      404.421146    ;  uncertainty theta = 0.003057, k = 0.174133
        19        18        20     1      119.898987      345.006507    ;  uncertainty theta = 0.001635, k = 0.083836
        20        22        23     1      116.643967      378.862937    ;  uncertainty theta = 0.002631, k = 0.169423
        20        22        24     1      116.643967      378.862937    ;  uncertainty theta = 0.002631, k = 0.169423
        21        20        22     1      124.591232      716.301362    ;  uncertainty theta = 0.002800, k = 0.070107
        22        23        37     1      109.331192      483.112919    ;  uncertainty theta = 0.001012, k = 0.067158
        22        23        38     1      109.331192      483.112919    ;  uncertainty theta = 0.001012, k = 0.067158
        22        23        39     1      109.331192      483.112919    ;  uncertainty theta = 0.001012, k = 0.067158
        22        24        40     1      109.331192      483.112919    ;  uncertainty theta = 0.001012, k = 0.067158
        22        24        41     1      109.331192      483.112919    ;  uncertainty theta = 0.001012, k = 0.067158
        22        24        42     1      109.331192      483.112919    ;  uncertainty theta = 0.001012, k = 0.067158
        23        22        24     1      118.452927      438.779635    ;  uncertainty theta = 0.002033, k = 0.239116
        25         1        26     1      105.785362      313.560015    ;  uncertainty theta = 0.003765, k = 0.077771
        31        10        43     1      117.558228      198.821623    ;  uncertainty theta = 0.006096, k = 0.056921
        37        23        38     1      106.882004      326.924446    ;  uncertainty theta = 0.000868, k = 0.031272
        37        23        39     1      106.882004      326.924446    ;  uncertainty theta = 0.000868, k = 0.031272
        38        23        39     1      106.882004      326.924446    ;  uncertainty theta = 0.000868, k = 0.031272
        40        24        41     1      106.882004      326.924478    ;  uncertainty theta = 0.000868, k = 0.031272
        40        24        42     1      106.882019      326.924478    ;  uncertainty theta = 0.000868, k = 0.031272
        41        24        42     1      106.882004      326.924478    ;  uncertainty theta = 0.000868, k = 0.031272

[ dihedrals ] ; propers for gromacs 4.5 or higher, use funct 9
;       ai        aj        ak        al funct           phase               k        pn
         1         9        10        31     9        0.000000        0.738861         1    ;  uncertainty k = 0.642171
         1         9        10        31     9      180.000000       22.860679         2    ;  uncertainty k = 0.133219
         1         9        10        31     9        0.000000        2.593441         3    ;  uncertainty k = 0.221982
         1         9        10        31     9      180.000000        0.274767         4    ;  uncertainty k = 0.133815
         1         9        10        43     9        0.000000        0.738861         1    ;  uncertainty k = 0.642171
         1         9        10        43     9      180.000000       22.860679         2    ;  uncertainty k = 0.133219
         1         9        10        43     9        0.000000        2.593441         3    ;  uncertainty k = 0.221982
         1         9        10        43     9      180.000000        0.274767         4    ;  uncertainty k = 0.133815
         1        11         2         8     9        0.000000        1.861431         1    ;  uncertainty k = 0.849473
         1        11         2         8     9      180.000000        8.276409         2    ;  uncertainty k = 0.363348
         1        11         2         8     9        0.000000        1.446571         3    ;  uncertainty k = 0.202753
         1        11         2         8     9      180.000000       -0.185082         4    ;  uncertainty k = 0.238872
         1        11         2        13     9        0.000000        1.734086         1    ;  uncertainty k = 1.169227
         1        11         2        13     9      180.000000       13.427258         2    ;  uncertainty k = 0.450741
         1        11         2        13     9        0.000000        0.829807         3    ;  uncertainty k = 0.241715
         1        11         2        13     9      180.000000       -0.092455         4    ;  uncertainty k = 0.346231
         1        11         3         4     9        0.000000        2.665830         1    ;  uncertainty k = 1.428636
         1        11         3         4     9      180.000000        8.307945         2    ;  uncertainty k = 0.776407
         1        11         3         4     9        0.000000        1.031447         3    ;  uncertainty k = 0.277451
         1        11         3         4     9      180.000000       -0.321206         4    ;  uncertainty k = 0.299799
         1        11         3        27     9        0.000000       -0.796014         1    ;  uncertainty k = 1.484139
         1        11         3        27     9      180.000000        4.035085         2    ;  uncertainty k = 0.835315
         1        11         3        27     9        0.000000        0.748481         3    ;  uncertainty k = 0.219175
         1        11         3        27     9      180.000000        0.089661         4    ;  uncertainty k = 0.137283
         2         8         5         4     9        0.000000        0.016098         1    ;  uncertainty k = 0.954767
         2         8         5         4     9      180.000000        8.015519         2    ;  uncertainty k = 0.679161
         2         8         5         4     9        0.000000        1.365877         3    ;  uncertainty k = 0.598799
         2         8         5         4     9      180.000000        0.921919         4    ;  uncertainty k = 0.278884
         2         8         5         6     9        0.000000        0.190287         1    ;  uncertainty k = 1.567204
         2         8         5         6     9      180.000000        8.046094         2    ;  uncertainty k = 0.408099
         2         8         5         6     9        0.000000        0.843220         3    ;  uncertainty k = 0.765740
         2         8         5         6     9      180.000000        1.119949         4    ;  uncertainty k = 0.368604
         2         8        12         7     9        0.000000        1.312353         1    ;  uncertainty k = 1.696666
         2         8        12         7     9      180.000000        4.293472         2    ;  uncertainty k = 0.936074
         2         8        12         7     9        0.000000        0.821549         3    ;  uncertainty k = 0.625700
         2         8        12         7     9      180.000000        0.389658         4    ;  uncertainty k = 0.213957
         2         8        12        32     9        0.000000        2.576954         1    ;  uncertainty k = 1.345143
         2         8        12        32     9      180.000000        1.290170         2    ;  uncertainty k = 0.911471
         2         8        12        32     9        0.000000        1.134450         3    ;  uncertainty k = 0.233055
         2         8        12        32     9      180.000000        0.134246         4    ;  uncertainty k = 0.124997
         2        11         1         9     9        0.000000        0.115973         1    ;  uncertainty k = 0.648983
         2        11         1         9     9      180.000000       -0.409163         2    ;  uncertainty k = 0.429565
         2        11         1         9     9        0.000000        0.211355         3    ;  uncertainty k = 0.176032
         2        11         1         9     9      180.000000        0.282742         4    ;  uncertainty k = 0.124770
         2        11         1        25     9        0.000000        0.223724         1    ;  uncertainty k = 0.153632
         2        11         1        25     9      180.000000        0.896992         2    ;  uncertainty k = 0.461084
         2        11         1        25     9        0.000000        0.548897         3    ;  uncertainty k = 0.097914
         2        11         1        25     9      180.000000        0.460247         4    ;  uncertainty k = 0.103639
         2        11         1        26     9        0.000000        0.223724         1    ;  uncertainty k = 0.153632
         2        11         1        26     9      180.000000        0.896992         2    ;  uncertainty k = 0.461084
         2        11         1        26     9        0.000000        0.548897         3    ;  uncertainty k = 0.097914
         2        11         1        26     9      180.000000        0.460247         4    ;  uncertainty k = 0.103639
         2        11         3         4     9        0.000000        1.031393         1    ;  uncertainty k = 1.234854
         2        11         3         4     9      180.000000        4.597978         2    ;  uncertainty k = 0.684505
         2        11         3         4     9        0.000000        1.037251         3    ;  uncertainty k = 0.215437
         2        11         3         4     9      180.000000        0.218181         4    ;  uncertainty k = 0.099636
         2        11         3        27     9        0.000000        1.319315         1    ;  uncertainty k = 0.842186
         2        11         3        27     9      180.000000        4.082550         2    ;  uncertainty k = 1.763742
         2        11         3        27     9        0.000000        0.693720         3    ;  uncertainty k = 0.412137
         2        11         3        27     9      180.000000        0.030967         4    ;  uncertainty k = 0.227420
         3         4         5         6     9        0.000000        0.227608         1    ;  uncertainty k = 0.987618
         3         4         5         6     9      180.000000        4.096003         2    ;  uncertainty k = 0.598438
         3         4         5         6     9        0.000000        0.696164         3    ;  uncertainty k = 0.307798
         3         4         5         6     9      180.000000        0.519511         4    ;  uncertainty k = 0.132391
         3         4         5         8     9        0.000000       -0.007662         1    ;  uncertainty k = 1.108200
         3         4         5         8     9      180.000000        6.654136         2    ;  uncertainty k = 0.728699
         3         4         5         8     9        0.000000       -0.712196         3    ;  uncertainty k = 0.300605
         3         4         5         8     9      180.000000        0.797414         4    ;  uncertainty k = 0.230893
         3         4        14        15     9        0.000000        0.404867         1    ;  uncertainty k = 0.604445
         3         4        14        15     9      180.000000        4.245204         2    ;  uncertainty k = 0.143743
         3         4        14        15     9        0.000000        0.499085         3    ;  uncertainty k = 0.108730
         3         4        14        15     9      180.000000        0.010958         4    ;  uncertainty k = 0.114330
         3         4        14        19     9        0.000000        0.423177         1    ;  uncertainty k = 0.617595
         3         4        14        19     9      180.000000        4.227681         2    ;  uncertainty k = 0.161452
         3         4        14        19     9        0.000000        0.561282         3    ;  uncertainty k = 0.159238
         3         4        14        19     9      180.000000        0.003324         4    ;  uncertainty k = 0.109785
         3        11         1         9     9        0.000000        0.174797         1    ;  uncertainty k = 0.433734
         3        11         1         9     9      180.000000       -0.053599         2    ;  uncertainty k = 0.279170
         3        11         1         9     9        0.000000        0.493163         3    ;  uncertainty k = 0.297495
         3        11         1         9     9      180.000000        0.286327         4    ;  uncertainty k = 0.087901
         3        11         1        25     9        0.000000       -1.213687         1    ;  uncertainty k = 0.409682
         3        11         1        25     9      180.000000        0.444531         2    ;  uncertainty k = 0.402395
         3        11         1        25     9        0.000000        0.529986         3    ;  uncertainty k = 0.116794
         3        11         1        25     9      180.000000        0.211736         4    ;  uncertainty k = 0.056440
         3        11         1        26     9        0.000000       -1.213687         1    ;  uncertainty k = 0.409682
         3        11         1        26     9      180.000000        0.444531         2    ;  uncertainty k = 0.402395
         3        11         1        26     9        0.000000        0.529986         3    ;  uncertainty k = 0.116794
         3        11         1        26     9      180.000000        0.211736         4    ;  uncertainty k = 0.056440
         3        11         2         8     9        0.000000        1.429334         1    ;  uncertainty k = 0.422218
         3        11         2         8     9      180.000000        4.598434         2    ;  uncertainty k = 1.354945
         3        11         2         8     9        0.000000        1.513968         3    ;  uncertainty k = 0.265992
         3        11         2         8     9      180.000000        0.387859         4    ;  uncertainty k = 0.247035
         3        11         2        13     9        0.000000        2.672322         1    ;  uncertainty k = 1.645674
         3        11         2        13     9      180.000000       11.335185         2    ;  uncertainty k = 0.374342
         3        11         2        13     9        0.000000        1.278339         3    ;  uncertainty k = 0.261387
         3        11         2        13     9      180.000000       -0.033949         4    ;  uncertainty k = 0.133239
         4         5         6         7     9        0.000000        0.141921         1    ;  uncertainty k = 0.845199
         4         5         6         7     9      180.000000        8.611191         2    ;  uncertainty k = 0.768729
         4         5         6         7     9        0.000000       -0.056166         3    ;  uncertainty k = 1.066989
         4         5         6         7     9      180.000000        0.828476         4    ;  uncertainty k = 0.218536
         4         5         6        28     9        0.000000        0.479790         1    ;  uncertainty k = 1.596710
         4         5         6        28     9      180.000000        4.099107         2    ;  uncertainty k = 0.379443
         4         5         6        28     9        0.000000        2.007152         3    ;  uncertainty k = 0.096711
         4         5         6        28     9      180.000000        0.168442         4    ;  uncertainty k = 0.073395
         4         5         8        12     9        0.000000        0.525705         1    ;  uncertainty k = 0.454106
         4         5         8        12     9      180.000000       13.041264         2    ;  uncertainty k = 0.392349
         4         5         8        12     9        0.000000       -0.170698         3    ;  uncertainty k = 0.542867
         4         5         8        12     9      180.000000        1.190995         4    ;  uncertainty k = 0.375513
         4        14        15        16     9        0.000000        0.017424         1    ;  uncertainty k = 0.275333
         4        14        15        16     9      180.000000        9.046475         2    ;  uncertainty k = 0.534040
         4        14        15        16     9        0.000000        1.388412         3    ;  uncertainty k = 0.206012
         4        14        15        16     9      180.000000        1.815115         4    ;  uncertainty k = 0.106506
         4        14        15        33     9        0.000000       -0.238748         1    ;  uncertainty k = 0.371286
         4        14        15        33     9      180.000000        6.969140         2    ;  uncertainty k = 0.388423
         4        14        15        33     9        0.000000        0.770193         3    ;  uncertainty k = 0.250967
         4        14        15        33     9      180.000000        1.170283         4    ;  uncertainty k = 0.284862
         4        14        19        18     9        0.000000       -0.228705         1    ;  uncertainty k = 0.374382
         4        14        19        18     9      180.000000        8.651198         2    ;  uncertainty k = 0.756392
         4        14        19        18     9        0.000000        1.220018         3    ;  uncertainty k = 0.110492
         4        14        19        18     9      180.000000        1.803035         4    ;  uncertainty k = 0.108015
         4        14        19        36     9        0.000000       -0.109908         1    ;  uncertainty k = 0.509959
         4        14        19        36     9      180.000000        7.017327         2    ;  uncertainty k = 0.385135
         4        14        19        36     9        0.000000        0.766064         3    ;  uncertainty k = 0.298257
         4        14        19        36     9      180.000000        1.245896         4    ;  uncertainty k = 0.298335
         5         4         3        11     9        0.000000        0.190306         1    ;  uncertainty k = 0.979859
         5         4         3        11     9      180.000000       21.692843         2    ;  uncertainty k = 0.266837
         5         4         3        11     9        0.000000        0.489332         3    ;  uncertainty k = 0.464337
         5         4         3        11     9      180.000000        0.543273         4    ;  uncertainty k = 0.233165
         5         4         3        27     9        0.000000       -0.249971         1    ;  uncertainty k = 0.370033
         5         4         3        27     9      180.000000       13.944895         2    ;  uncertainty k = 0.423068
         5         4         3        27     9        0.000000        1.994130         3    ;  uncertainty k = 0.222273
         5         4         3        27     9      180.000000        1.224049         4    ;  uncertainty k = 0.336715
         5         4        14        15     9        0.000000       -0.067782         1    ;  uncertainty k = 0.534798
         5         4        14        15     9      180.000000        4.180239         2    ;  uncertainty k = 0.467888
         5         4        14        15     9        0.000000        0.782130         3    ;  uncertainty k = 0.379271
         5         4        14        15     9      180.000000        0.314217         4    ;  uncertainty k = 0.127597
         5         4        14        19     9        0.000000       -0.161566         1    ;  uncertainty k = 0.537481
         5         4        14        19     9      180.000000        4.147280         2    ;  uncertainty k = 0.466408
         5         4        14        19     9        0.000000        0.763755         3    ;  uncertainty k = 0.394131
         5         4        14        19     9      180.000000        0.241384         4    ;  uncertainty k = 0.112081
         5         6         7        12     9        0.000000       -0.197289         1    ;  uncertainty k = 0.478635
         5         6         7        12     9      180.000000       22.044293         2    ;  uncertainty k = 0.363719
         5         6         7        12     9        0.000000       -6.953686         3    ;  uncertainty k = 1.059115
         5         6         7        12     9      180.000000        1.333768         4    ;  uncertainty k = 0.365433
         5         6         7        29     9        0.000000        0.139745         1    ;  uncertainty k = 0.331291
         5         6         7        29     9      180.000000       12.569988         2    ;  uncertainty k = 0.260347
         5         6         7        29     9        0.000000        1.837739         3    ;  uncertainty k = 0.073566
         5         6         7        29     9      180.000000        0.853981         4    ;  uncertainty k = 0.157616
         5         8         2        11     9        0.000000       -1.542429         1    ;  uncertainty k = 1.000326
         5         8         2        11     9      180.000000        4.997820         2    ;  uncertainty k = 0.468093
         5         8         2        11     9        0.000000       -0.358502         3    ;  uncertainty k = 0.218931
         5         8         2        11     9      180.000000        0.227548         4    ;  uncertainty k = 0.164405
         5         8         2        13     9        0.000000       -1.752422         1    ;  uncertainty k = 1.599841
         5         8         2        13     9      180.000000        5.822593         2    ;  uncertainty k = 0.275975
         5         8         2        13     9        0.000000        0.370675         3    ;  uncertainty k = 0.371827
         5         8         2        13     9      180.000000       -0.040689         4    ;  uncertainty k = 0.156368
         5         8        12         7     9        0.000000        0.012753         1    ;  uncertainty k = 0.361537
         5         8        12         7     9      180.000000       14.727017         2    ;  uncertainty k = 0.881301
         5         8        12         7     9        0.000000       -9.807457         3    ;  uncertainty k = 1.240524
         5         8        12         7     9      180.000000        1.092118         4    ;  uncertainty k = 0.451678
         5         8        12        32     9        0.000000        3.954299         1    ;  uncertainty k = 3.147131
         5         8        12        32     9      180.000000        7.046072         2    ;  uncertainty k = 1.553622
         5         8        12        32     9        0.000000        1.124950         3    ;  uncertainty k = 0.377822
         5         8        12        32     9      180.000000        0.024611         4    ;  uncertainty k = 0.286588
         6         5         4        14     9        0.000000        0.030595         1    ;  uncertainty k = 0.881411
         6         5         4        14     9      180.000000        4.909027         2    ;  uncertainty k = 1.063523
         6         5         4        14     9        0.000000        1.449729         3    ;  uncertainty k = 0.166767
         6         5         4        14     9      180.000000        0.304568         4    ;  uncertainty k = 0.190053
         6         5         8        12     9        0.000000       -0.382667         1    ;  uncertainty k = 0.429642
         6         5         8        12     9      180.000000       14.643024         2    ;  uncertainty k = 0.640990
         6         5         8        12     9        0.000000       -3.648481         3    ;  uncertainty k = 1.019639
         6         5         8        12     9      180.000000        1.594371         4    ;  uncertainty k = 0.604175
         6         7        12         8     9        0.000000        0.151800         1    ;  uncertainty k = 0.400299
         6         7        12         8     9      180.000000       15.778520         2    ;  uncertainty k = 0.374093
         6         7        12         8     9        0.000000       -8.142196         3    ;  uncertainty k = 1.163524
         6         7        12         8     9      180.000000        1.119656         4    ;  uncertainty k = 0.569595
         6         7        12        32     9        0.000000        2.092522         1    ;  uncertainty k = 1.529021
         6         7        12        32     9      180.000000        9.621210         2    ;  uncertainty k = 0.659311
         6         7        12        32     9        0.000000        1.427239         3    ;  uncertainty k = 0.856825
         6         7        12        32     9      180.000000       -0.093919         4    ;  uncertainty k = 0.132475
         7         6         5         8     9        0.000000        0.176680         1    ;  uncertainty k = 0.547877
         7         6         5         8     9      180.000000       12.426935         2    ;  uncertainty k = 0.896413
         7         6         5         8     9        0.000000      -12.009165         3    ;  uncertainty k = 2.136179
         7         6         5         8     9      180.000000        1.927588         4    ;  uncertainty k = 0.733785
         8         5         4        14     9        0.000000       -0.283179         1    ;  uncertainty k = 0.793439
         8         5         4        14     9      180.000000        7.177359         2    ;  uncertainty k = 0.749881
         8         5         4        14     9        0.000000        0.982144         3    ;  uncertainty k = 0.560680
         8         5         4        14     9      180.000000        0.534521         4    ;  uncertainty k = 0.188720
         8         5         6        28     9        0.000000        0.207560         1    ;  uncertainty k = 0.753737
         8         5         6        28     9      180.000000        8.338949         2    ;  uncertainty k = 0.797502
         8         5         6        28     9        0.000000        1.398437         3    ;  uncertainty k = 0.625080
         8         5         6        28     9      180.000000        0.386689         4    ;  uncertainty k = 0.232514
         8        12         7        29     9        0.000000        0.690562         1    ;  uncertainty k = 0.487992
         8        12         7        29     9      180.000000        7.780803         2    ;  uncertainty k = 0.778369
         8        12         7        29     9        0.000000        1.623171         3    ;  uncertainty k = 0.365576
         8        12         7        29     9      180.000000        0.139900         4    ;  uncertainty k = 0.293699
        10         9         1        11     9        0.000000        2.256644         1    ;  uncertainty k = 0.626950
        10         9         1        11     9      180.000000        3.522804         2    ;  uncertainty k = 0.226239
        10         9         1        11     9        0.000000       -1.091934         3    ;  uncertainty k = 0.200680
        10         9         1        11     9      180.000000        0.095777         4    ;  uncertainty k = 0.105657
        10         9         1        25     9        0.000000        2.130417         1    ;  uncertainty k = 0.139295
        10         9         1        25     9      180.000000        2.317265         2    ;  uncertainty k = 0.236872
        10         9         1        25     9        0.000000       -0.366097         3    ;  uncertainty k = 0.063860
        10         9         1        25     9      180.000000       -0.085118         4    ;  uncertainty k = 0.060470
        10         9         1        26     9        0.000000        2.130417         1    ;  uncertainty k = 0.139295
        10         9         1        26     9      180.000000        2.317265         2    ;  uncertainty k = 0.236872
        10         9         1        26     9        0.000000       -0.366097         3    ;  uncertainty k = 0.063860
        10         9         1        26     9      180.000000       -0.085118         4    ;  uncertainty k = 0.060470
        11         1         9        30     9        0.000000       -0.551480         1    ;  uncertainty k = 0.539256
        11         1         9        30     9      180.000000        1.204485         2    ;  uncertainty k = 0.494507
        11         1         9        30     9        0.000000        1.704889         3    ;  uncertainty k = 0.304238
        11         1         9        30     9      180.000000        0.257566         4    ;  uncertainty k = 0.142540
        11         2         8        12     9        0.000000       -1.066103         1    ;  uncertainty k = 1.081368
        11         2         8        12     9      180.000000        5.394568         2    ;  uncertainty k = 0.642857
        11         2         8        12     9        0.000000        0.467360         3    ;  uncertainty k = 0.370630
        11         2         8        12     9      180.000000        0.203821         4    ;  uncertainty k = 0.110541
        11         3         4        14     9        0.000000        0.433457         1    ;  uncertainty k = 0.180160
        11         3         4        14     9      180.000000       19.076041         2    ;  uncertainty k = 0.303802
        11         3         4        14     9        0.000000        1.696473         3    ;  uncertainty k = 0.350116
        11         3         4        14     9      180.000000        0.906400         4    ;  uncertainty k = 0.248393
        12         7         6        28     9        0.000000        0.634303         1    ;  uncertainty k = 0.872568
        12         7         6        28     9      180.000000       14.905436         2    ;  uncertainty k = 0.201771
        12         7         6        28     9        0.000000        1.670616         3    ;  uncertainty k = 0.572134
        12         7         6        28     9      180.000000        0.792564         4    ;  uncertainty k = 0.242450
        12         8         2        13     9        0.000000       -1.106233         1    ;  uncertainty k = 0.484907
        12         8         2        13     9      180.000000        8.128052         2    ;  uncertainty k = 0.301102
        12         8         2        13     9        0.000000        0.979841         3    ;  uncertainty k = 0.344346
        12         8         2        13     9      180.000000       -0.163171         4    ;  uncertainty k = 0.181519
        14         4         3        27     9        0.000000       -0.216325         1    ;  uncertainty k = 0.326763
        14         4         3        27     9      180.000000       11.213028         2    ;  uncertainty k = 0.314122
        14         4         3        27     9        0.000000        1.624985         3    ;  uncertainty k = 0.252975
        14         4         3        27     9      180.000000        1.209697         4    ;  uncertainty k = 0.224587
        14        15        16        17     9        0.000000       -0.016778         1    ;  uncertainty k = 0.157516
        14        15        16        17     9      180.000000       14.362919         2    ;  uncertainty k = 0.249327
        14        15        16        17     9        0.000000       -0.975734         3    ;  uncertainty k = 0.442679
        14        15        16        17     9      180.000000        0.625325         4    ;  uncertainty k = 0.298182
        14        15        16        34     9        0.000000        0.082725         1    ;  uncertainty k = 0.097329
        14        15        16        34     9      180.000000        7.489628         2    ;  uncertainty k = 0.381507
        14        15        16        34     9        0.000000        1.347358         3    ;  uncertainty k = 0.199340
        14        15        16        34     9      180.000000        1.858447         4    ;  uncertainty k = 0.111468
        14        19        18        17     9        0.000000       -0.072166         1    ;  uncertainty k = 0.178403
        14        19        18        17     9      180.000000       11.027429         2    ;  uncertainty k = 0.338217
        14        19        18        17     9        0.000000       -0.369808         3    ;  uncertainty k = 0.353667
        14        19        18        17     9      180.000000        1.050329         4    ;  uncertainty k = 0.301143
        14        19        18        20     9        0.000000        0.520511         1    ;  uncertainty k = 0.386810
        14        19        18        20     9      180.000000        8.875589         2    ;  uncertainty k = 0.681888
        14        19        18        20     9        0.000000        1.357619         3    ;  uncertainty k = 0.358075
        14        19        18        20     9      180.000000        1.903831         4    ;  uncertainty k = 0.213554
        15        14        19        18     9        0.000000       -0.046463         1    ;  uncertainty k = 0.174426
        15        14        19        18     9      180.000000       10.278481         2    ;  uncertainty k = 0.413139
        15        14        19        18     9        0.000000        0.091376         3    ;  uncertainty k = 0.173053
        15        14        19        18     9      180.000000        1.149832         4    ;  uncertainty k = 0.284651
        15        14        19        36     9        0.000000        0.248797         1    ;  uncertainty k = 0.170875
        15        14        19        36     9      180.000000        7.043224         2    ;  uncertainty k = 0.518278
        15        14        19        36     9        0.000000        1.371996         3    ;  uncertainty k = 0.165738
        15        14        19        36     9      180.000000        1.673694         4    ;  uncertainty k = 0.230696
        15        16        17        18     9        0.000000       -0.093234         1    ;  uncertainty k = 0.097950
        15        16        17        18     9      180.000000       13.390705         2    ;  uncertainty k = 0.307059
        15        16        17        18     9        0.000000       -0.739716         3    ;  uncertainty k = 0.320703
        15        16        17        18     9      180.000000        0.811743         4    ;  uncertainty k = 0.232578
        15        16        17        35     9        0.000000        0.057993         1    ;  uncertainty k = 0.057569
        15        16        17        35     9      180.000000        7.318128         2    ;  uncertainty k = 0.245544
        15        16        17        35     9        0.000000        1.404792         3    ;  uncertainty k = 0.254042
        15        16        17        35     9      180.000000        1.819091         4    ;  uncertainty k = 0.160821
        16        15        14        19     9        0.000000       -0.143565         1    ;  uncertainty k = 0.099272
        16        15        14        19     9      180.000000       11.076153         2    ;  uncertainty k = 0.263541
        16        15        14        19     9        0.000000       -0.424267         3    ;  uncertainty k = 0.358173
        16        15        14        19     9      180.000000        0.923773         4    ;  uncertainty k = 0.276446
        16        17        18        19     9        0.000000       -0.165928         1    ;  uncertainty k = 0.159629
        16        17        18        19     9      180.000000       11.359284         2    ;  uncertainty k = 0.371522
        16        17        18        19     9        0.000000       -0.713984         3    ;  uncertainty k = 0.246564
        16        17        18        19     9      180.000000        0.946760         4    ;  uncertainty k = 0.247033
        16        17        18        20     9        0.000000        0.463758         1    ;  uncertainty k = 0.393175
        16        17        18        20     9      180.000000        9.269003         2    ;  uncertainty k = 0.639201
        16        17        18        20     9        0.000000        1.401593         3    ;  uncertainty k = 0.482327
        16        17        18        20     9      180.000000        1.898428         4    ;  uncertainty k = 0.250701
        17        16        15        33     9        0.000000        0.079519         1    ;  uncertainty k = 0.053875
        17        16        15        33     9      180.000000        7.615698         2    ;  uncertainty k = 0.277816
        17        16        15        33     9        0.000000        1.436252         3    ;  uncertainty k = 0.226404
        17        16        15        33     9      180.000000        1.816135         4    ;  uncertainty k = 0.124827
        17        18        19        36     9        0.000000        0.376072         1    ;  uncertainty k = 0.177967
        17        18        19        36     9      180.000000        7.602450         2    ;  uncertainty k = 0.460929
        17        18        19        36     9        0.000000        1.221006         3    ;  uncertainty k = 0.269253
        17        18        19        36     9      180.000000        1.737040         4    ;  uncertainty k = 0.197164
        17        18        20        21     9        0.000000       -1.664540         1    ;  uncertainty k = 0.695809
        17        18        20        21     9      180.000000        3.053791         2    ;  uncertainty k = 0.171336
        17        18        20        21     9        0.000000        0.230329         3    ;  uncertainty k = 0.045202
        17        18        20        21     9      180.000000        0.197527         4    ;  uncertainty k = 0.084772
        17        18        20        22     9        0.000000        1.027553         1    ;  uncertainty k = 0.376161
        17        18        20        22     9      180.000000        4.553042         2    ;  uncertainty k = 0.240746
        17        18        20        22     9        0.000000        0.383664         3    ;  uncertainty k = 0.131322
        17        18        20        22     9      180.000000        0.226257         4    ;  uncertainty k = 0.049418
        18        17        16        34     9        0.000000       -0.062970         1    ;  uncertainty k = 0.239653
        18        17        16        34     9      180.000000        7.804315         2    ;  uncertainty k = 0.299952
        18        17        16        34     9        0.000000        1.327721         3    ;  uncertainty k = 0.183218
        18        17        16        34     9      180.000000        1.797879         4    ;  uncertainty k = 0.215045
        18        20        22        23     9        0.000000        6.282721         1    ;  uncertainty k = 0.802001
        18        20        22        23     9      180.000000        6.340805         2    ;  uncertainty k = 0.348045
        18        20        22        23     9        0.000000        0.332740         3    ;  uncertainty k = 0.444048
        18        20        22        23     9      180.000000       -0.006011         4    ;  uncertainty k = 0.162784
        18        20        22        24     9        0.000000        6.282721         1    ;  uncertainty k = 0.802001
        18        20        22        24     9      180.000000        6.340805         2    ;  uncertainty k = 0.348045
        18        20        22        24     9        0.000000        0.332740         3    ;  uncertainty k = 0.444048
        18        20        22        24     9      180.000000       -0.006011         4    ;  uncertainty k = 0.162784
        19        14        15        33     9        0.000000        0.218226         1    ;  uncertainty k = 0.160901
        19        14        15        33     9      180.000000        6.967576         2    ;  uncertainty k = 0.503838
        19        14        15        33     9        0.000000        1.425972         3    ;  uncertainty k = 0.213688
        19        14        15        33     9      180.000000        1.653836         4    ;  uncertainty k = 0.253590
        19        18        17        35     9        0.000000        0.353385         1    ;  uncertainty k = 0.241728
        19        18        17        35     9      180.000000        7.374722         2    ;  uncertainty k = 0.435938
        19        18        17        35     9        0.000000        1.257826         3    ;  uncertainty k = 0.288453
        19        18        17        35     9      180.000000        1.725721         4    ;  uncertainty k = 0.238966
        19        18        20        21     9        0.000000       -1.711716         1    ;  uncertainty k = 0.826305
        19        18        20        21     9      180.000000        3.021444         2    ;  uncertainty k = 0.200926
        19        18        20        21     9        0.000000        0.274051         3    ;  uncertainty k = 0.086847
        19        18        20        21     9      180.000000        0.229275         4    ;  uncertainty k = 0.081454
        19        18        20        22     9        0.000000        1.058736         1    ;  uncertainty k = 0.448382
        19        18        20        22     9      180.000000        4.609976         2    ;  uncertainty k = 0.246990
        19        18        20        22     9        0.000000        0.345593         3    ;  uncertainty k = 0.125993
        19        18        20        22     9      180.000000        0.231168         4    ;  uncertainty k = 0.078300
        20        18        17        35     9        0.000000       -0.018501         1    ;  uncertainty k = 0.286704
        20        18        17        35     9      180.000000        8.166475         2    ;  uncertainty k = 0.362619
        20        18        17        35     9        0.000000        0.913777         3    ;  uncertainty k = 0.160624
        20        18        17        35     9      180.000000        1.192128         4    ;  uncertainty k = 0.225004
        20        18        19        36     9        0.000000        0.094404         1    ;  uncertainty k = 0.354636
        20        18        19        36     9      180.000000        8.346280         2    ;  uncertainty k = 0.353875
        20        18        19        36     9        0.000000        0.942527         3    ;  uncertainty k = 0.177744
        20        18        19        36     9      180.000000        1.265248         4    ;  uncertainty k = 0.210858
        20        22        23        37     9        0.000000        0.072682         1    ;  uncertainty k = 0.169749
        20        22        23        37     9      180.000000       -0.211072         2    ;  uncertainty k = 0.157871
        20        22        23        37     9        0.000000        0.353046         3    ;  uncertainty k = 0.068584
        20        22        23        37     9      180.000000        0.290209         4    ;  uncertainty k = 0.036498
        20        22        23        38     9        0.000000        0.072682         1    ;  uncertainty k = 0.169749
        20        22        23        38     9      180.000000       -0.211072         2    ;  uncertainty k = 0.157871
        20        22        23        38     9        0.000000        0.353046         3    ;  uncertainty k = 0.068584
        20        22        23        38     9      180.000000        0.290209         4    ;  uncertainty k = 0.036498
        20        22        23        39     9        0.000000        0.072682         1    ;  uncertainty k = 0.169749
        20        22        23        39     9      180.000000       -0.211072         2    ;  uncertainty k = 0.157871
        20        22        23        39     9        0.000000        0.353046         3    ;  uncertainty k = 0.068584
        20        22        23        39     9      180.000000        0.290209         4    ;  uncertainty k = 0.036498
        20        22        24        40     9        0.000000        0.072682         1    ;  uncertainty k = 0.169749
        20        22        24        40     9      180.000000       -0.211072         2    ;  uncertainty k = 0.157871
        20        22        24        40     9        0.000000        0.353046         3    ;  uncertainty k = 0.068584
        20        22        24        40     9      180.000000        0.290209         4    ;  uncertainty k = 0.036498
        20        22        24        41     9        0.000000        0.072682         1    ;  uncertainty k = 0.169749
        20        22        24        41     9      180.000000       -0.211072         2    ;  uncertainty k = 0.157871
        20        22        24        41     9        0.000000        0.353046         3    ;  uncertainty k = 0.068584
        20        22        24        41     9      180.000000        0.290209         4    ;  uncertainty k = 0.036498
        20        22        24        42     9        0.000000        0.072682         1    ;  uncertainty k = 0.169749
        20        22        24        42     9      180.000000       -0.211072         2    ;  uncertainty k = 0.157871
        20        22        24        42     9        0.000000        0.353046         3    ;  uncertainty k = 0.068584
        20        22        24        42     9      180.000000        0.290209         4    ;  uncertainty k = 0.036498
        21        20        22        23     9        0.000000        4.553609         1    ;  uncertainty k = 1.061986
        21        20        22        23     9      180.000000       14.829660         2    ;  uncertainty k = 0.163869
        21        20        22        23     9        0.000000        0.403201         3    ;  uncertainty k = 0.315054
        21        20        22        23     9      180.000000       -0.277135         4    ;  uncertainty k = 0.228506
        21        20        22        24     9        0.000000        4.553609         1    ;  uncertainty k = 1.061986
        21        20        22        24     9      180.000000       14.829660         2    ;  uncertainty k = 0.163869
        21        20        22        24     9        0.000000        0.403201         3    ;  uncertainty k = 0.315054
        21        20        22        24     9      180.000000       -0.277135         4    ;  uncertainty k = 0.228506
        23        22        24        40     9        0.000000       -0.705221         1    ;  uncertainty k = 0.364394
        23        22        24        40     9      180.000000       -1.189189         2    ;  uncertainty k = 0.226350
        23        22        24        40     9        0.000000        1.357956         3    ;  uncertainty k = 0.055767
        23        22        24        40     9      180.000000        0.153889         4    ;  uncertainty k = 0.040275
        23        22        24        41     9        0.000000       -0.705221         1    ;  uncertainty k = 0.364394
        23        22        24        41     9      180.000000       -1.189189         2    ;  uncertainty k = 0.226350
        23        22        24        41     9        0.000000        1.357956         3    ;  uncertainty k = 0.055767
        23        22        24        41     9      180.000000        0.153889         4    ;  uncertainty k = 0.040275
        23        22        24        42     9        0.000000       -0.705221         1    ;  uncertainty k = 0.364394
        23        22        24        42     9      180.000000       -1.189189         2    ;  uncertainty k = 0.226350
        23        22        24        42     9        0.000000        1.357956         3    ;  uncertainty k = 0.055767
        23        22        24        42     9      180.000000        0.153889         4    ;  uncertainty k = 0.040275
        24        22        23        37     9        0.000000       -0.705221         1    ;  uncertainty k = 0.364394
        24        22        23        37     9      180.000000       -1.189189         2    ;  uncertainty k = 0.226350
        24        22        23        37     9        0.000000        1.357956         3    ;  uncertainty k = 0.055767
        24        22        23        37     9      180.000000        0.153889         4    ;  uncertainty k = 0.040275
        24        22        23        38     9        0.000000       -0.705221         1    ;  uncertainty k = 0.364394
        24        22        23        38     9      180.000000       -1.189189         2    ;  uncertainty k = 0.226350
        24        22        23        38     9        0.000000        1.357956         3    ;  uncertainty k = 0.055767
        24        22        23        38     9      180.000000        0.153889         4    ;  uncertainty k = 0.040275
        24        22        23        39     9        0.000000       -0.705221         1    ;  uncertainty k = 0.364394
        24        22        23        39     9      180.000000       -1.189189         2    ;  uncertainty k = 0.226350
        24        22        23        39     9        0.000000        1.357956         3    ;  uncertainty k = 0.055767
        24        22        23        39     9      180.000000        0.153889         4    ;  uncertainty k = 0.040275
        25         1         9        30     9        0.000000       -1.274752         1    ;  uncertainty k = 0.272048
        25         1         9        30     9      180.000000        1.421034         2    ;  uncertainty k = 0.209124
        25         1         9        30     9        0.000000        0.836355         3    ;  uncertainty k = 0.049376
        25         1         9        30     9      180.000000        0.171740         4    ;  uncertainty k = 0.062169
        26         1         9        30     9        0.000000       -1.274752         1    ;  uncertainty k = 0.272048
        26         1         9        30     9      180.000000        1.421034         2    ;  uncertainty k = 0.209124
        26         1         9        30     9        0.000000        0.836355         3    ;  uncertainty k = 0.049376
        26         1         9        30     9      180.000000        0.171740         4    ;  uncertainty k = 0.062169
        28         6         7        29     9        0.000000       -0.037735         1    ;  uncertainty k = 0.492713
        28         6         7        29     9      180.000000        5.853962         2    ;  uncertainty k = 0.726773
        28         6         7        29     9        0.000000        1.193179         3    ;  uncertainty k = 0.391011
        28         6         7        29     9      180.000000        0.332928         4    ;  uncertainty k = 0.074316
        29         7        12        32     9        0.000000       -0.321083         1    ;  uncertainty k = 1.032454
        29         7        12        32     9      180.000000        1.939239         2    ;  uncertainty k = 0.369095
        29         7        12        32     9        0.000000        1.097248         3    ;  uncertainty k = 0.356460
        29         7        12        32     9      180.000000        0.095305         4    ;  uncertainty k = 0.136884
        30         9        10        31     9        0.000000        0.035981         1    ;  uncertainty k = 0.320455
        30         9        10        31     9      180.000000       16.892084         2    ;  uncertainty k = 0.404593
        30         9        10        31     9        0.000000        2.308790         3    ;  uncertainty k = 0.111277
        30         9        10        31     9      180.000000        0.737813         4    ;  uncertainty k = 0.480398
        30         9        10        43     9        0.000000        0.035981         1    ;  uncertainty k = 0.320455
        30         9        10        43     9      180.000000       16.892084         2    ;  uncertainty k = 0.404593
        30         9        10        43     9        0.000000        2.308790         3    ;  uncertainty k = 0.111277
        30         9        10        43     9      180.000000        0.737813         4    ;  uncertainty k = 0.480398
        33        15        16        34     9        0.000000       -0.166562         1    ;  uncertainty k = 0.119843
        33        15        16        34     9      180.000000        7.933616         2    ;  uncertainty k = 0.280848
        33        15        16        34     9        0.000000       -0.483141         3    ;  uncertainty k = 0.260612
        33        15        16        34     9      180.000000        0.115647         4    ;  uncertainty k = 0.142176
        34        16        17        35     9        0.000000       -0.172915         1    ;  uncertainty k = 0.282059
        34        16        17        35     9      180.000000        7.808711         2    ;  uncertainty k = 0.367899
        34        16        17        35     9        0.000000       -0.388379         3    ;  uncertainty k = 0.220535
        34        16        17        35     9      180.000000        0.134717         4    ;  uncertainty k = 0.122160

[ dihedrals ] ; impropers
;       ai        aj        ak        al funct           phase               k        pn
         2         8        11        13     4      180.000000       45.283339         2    ;  uncertainty k = 0.048029
         2        11        13         8     4      180.000000       45.283339         2    ;  uncertainty k = 0.048029
         2        13         8        11     4      180.000000       45.283339         2    ;  uncertainty k = 0.048029
         3         4        11        27     4      180.000000        6.818499         2    ;  uncertainty k = 0.324867
         3        11        27         4     4      180.000000        6.818499         2    ;  uncertainty k = 0.324867
         3        27         4        11     4      180.000000        6.818499         2    ;  uncertainty k = 0.324867
         4         3         5        14     4      180.000000        8.956096         2    ;  uncertainty k = 0.208027
         4         5        14         3     4      180.000000        8.956096         2    ;  uncertainty k = 0.208027
         4        14         3         5     4      180.000000        8.956096         2    ;  uncertainty k = 0.208027
         5         4         6         8     4      180.000000        1.675382         2    ;  uncertainty k = 0.932715
         5         6         8         4     4      180.000000        1.675382         2    ;  uncertainty k = 0.932715
         5         8         4         6     4      180.000000        1.675382         2    ;  uncertainty k = 0.932715
         7         6        12        29     4      180.000000        1.479202         2    ;  uncertainty k = 0.580043
         7        12        29         6     4      180.000000        1.479202         2    ;  uncertainty k = 0.580043
         7        29         6        12     4      180.000000        1.479202         2    ;  uncertainty k = 0.580043
         8         2         5        12     4      180.000000        0.159042         2    ;  uncertainty k = 0.355629
         8         5        12         2     4      180.000000        0.159042         2    ;  uncertainty k = 0.355629
         8        12         2         5     4      180.000000        0.159042         2    ;  uncertainty k = 0.355629
         9         1        10        30     4      180.000000       10.965120         2    ;  uncertainty k = 0.207851
         9        10        30         1     4      180.000000       10.965120         2    ;  uncertainty k = 0.207851
         9        30         1        10     4      180.000000       10.965120         2    ;  uncertainty k = 0.207851
        10         9        31        43     4      180.000000        4.970707         2    ;  uncertainty k = 0.095233
        10        31        43         9     4      180.000000        4.970707         2    ;  uncertainty k = 0.095233
        10        43         9        31     4      180.000000        4.970707         2    ;  uncertainty k = 0.095233
        11         1         2         3     4      180.000000        2.327218         2    ;  uncertainty k = 0.493494
        11         2         3         1     4      180.000000        2.327218         2    ;  uncertainty k = 0.493494
        11         3         1         2     4      180.000000        2.327218         2    ;  uncertainty k = 0.493494
        14         4        15        19     4      180.000000       15.080325         2    ;  uncertainty k = 0.031430
        14        15        19         4     4      180.000000       15.080325         2    ;  uncertainty k = 0.031430
        14        19         4        15     4      180.000000       15.080325         2    ;  uncertainty k = 0.031430
        15        14        16        33     4      180.000000        4.110861         2    ;  uncertainty k = 0.132903
        15        16        33        14     4      180.000000        4.110861         2    ;  uncertainty k = 0.132903
        15        33        14        16     4      180.000000        4.110861         2    ;  uncertainty k = 0.132903
        16        15        17        34     4      180.000000        3.712223         2    ;  uncertainty k = 0.086897
        16        17        34        15     4      180.000000        3.712223         2    ;  uncertainty k = 0.086897
        16        34        15        17     4      180.000000        3.712223         2    ;  uncertainty k = 0.086897
        17        16        18        35     4      180.000000        4.150328         2    ;  uncertainty k = 0.141673
        17        18        35        16     4      180.000000        4.150328         2    ;  uncertainty k = 0.141673
        17        35        16        18     4      180.000000        4.150328         2    ;  uncertainty k = 0.141673
        18        17        19        20     4      180.000000        9.566044         2    ;  uncertainty k = 0.195607
        18        19        20        17     4      180.000000        9.566044         2    ;  uncertainty k = 0.195607
        18        20        17        19     4      180.000000        9.566044         2    ;  uncertainty k = 0.195607
        19        14        18        36     4      180.000000        4.319218         2    ;  uncertainty k = 0.182278
        19        18        36        14     4      180.000000        4.319218         2    ;  uncertainty k = 0.182278
        19        36        14        18     4      180.000000        4.319218         2    ;  uncertainty k = 0.182278
        20        18        21        22     4      180.000000       50.810772         2    ;  uncertainty k = 0.036615
        20        21        22        18     4      180.000000       50.810772         2    ;  uncertainty k = 0.036615
        20        22        18        21     4      180.000000       50.810772         2    ;  uncertainty k = 0.036615

[ pairs ]
;       ai        aj funct
         1         4     1
         1         8     1
         1        13     1
         1        27     1
         1        31     1
         1        43     1
         2         4     1
         2         6     1
         2         7     1
         2         9     1
         2        25     1
         2        26     1
         2        27     1
         2        32     1
         3         6     1
         3         8     1
         3         9     1
         3        13     1
         3        15     1
         3        19     1
         3        25     1
         3        26     1
         4         7     1
         4        12     1
         4        16     1
         4        18     1
         4        28     1
         4        33     1
         4        36     1
         5        11     1
         5        13     1
         5        15     1
         5        19     1
         5        27     1
         5        29     1
         5        32     1
         6        14     1
         6        32     1
         8        14     1
         8        28     1
         8        29     1
        10        11     1
        10        25     1
        10        26     1
        11        12     1
        11        14     1
        11        30     1
        12        13     1
        12        28     1
        14        17     1
        14        20     1
        14        27     1
        14        34     1
        15        18     1
        15        35     1
        15        36     1
        16        19     1
        16        20     1
        17        21     1
        17        22     1
        17        33     1
        17        36     1
        18        23     1
        18        24     1
        18        34     1
        19        21     1
        19        22     1
        19        33     1
        19        35     1
        20        35     1
        20        36     1
        20        37     1
        20        38     1
        20        39     1
        20        40     1
        20        41     1
        20        42     1
        21        23     1
        21        24     1
        23        40     1
        23        41     1
        23        42     1
        24        37     1
        24        38     1
        24        39     1
        25        30     1
        26        30     1
        28        29     1
        29        32     1
        30        31     1
        30        43     1
        33        34     1
        34        35     1
