; ITP file created by ByteFF-joint-25, 2025-07-14 11:38:16.169764

[ atomtypes ]
;name           bonded.type        at.num        mass        charge   ptype           sigma         epsilon
 c0bf                                   6      0.0000       0.00000       A     3.31524e-01     4.13317e-01    ;  uncertainty sigma = 0.000004, epsilon = 0.000606
 c1bf                                   6      0.0000       0.00000       A     3.31513e-01     4.13292e-01    ;  uncertainty sigma = 0.000014, epsilon = 0.000898
 c2bf                                   6      0.0000       0.00000       A     3.39780e-01     4.50875e-01    ;  uncertainty sigma = 0.000005, epsilon = 0.000552
 c3bf                                   6      0.0000       0.00000       A     3.31517e-01     4.13384e-01    ;  uncertainty sigma = 0.000002, epsilon = 0.000567
 c4bf                                   6      0.0000       0.00000       A     3.31518e-01     4.13101e-01    ;  uncertainty sigma = 0.000004, epsilon = 0.000807
 c5bf                                   6      0.0000       0.00000       A     3.31535e-01     4.12763e-01    ;  uncertainty sigma = 0.000016, epsilon = 0.001106
 c6bf                                   6      0.0000       0.00000       A     3.31513e-01     4.13205e-01    ;  uncertainty sigma = 0.000005, epsilon = 0.000641
 c7bf                                   6      0.0000       0.00000       A     3.31543e-01     4.13656e-01    ;  uncertainty sigma = 0.000018, epsilon = 0.000503
 c8bf                                   6      0.0000       0.00000       A     3.39776e-01     4.50791e-01    ;  uncertainty sigma = 0.000006, epsilon = 0.000737
 o9bf                                   8      0.0000       0.00000       A     3.04809e-01     6.12629e-01    ;  uncertainty sigma = 0.000008, epsilon = 0.001497
 c10bf                                  6      0.0000       0.00000       A     3.31507e-01     4.13193e-01    ;  uncertainty sigma = 0.000024, epsilon = 0.000927
 n11bf                                  7      0.0000       0.00000       A     3.18094e-01     6.85094e-01    ;  uncertainty sigma = 0.000042, epsilon = 0.001122
 c12bf                                  6      0.0000       0.00000       A     3.31516e-01     4.13332e-01    ;  uncertainty sigma = 0.000022, epsilon = 0.000814
 n13bf                                  7      0.0000       0.00000       A     3.20586e-01     8.52569e-01    ;  uncertainty sigma = 0.000030, epsilon = 0.002354
 c14bf                                  6      0.0000       0.00000       A     3.31516e-01     4.12685e-01    ;  uncertainty sigma = 0.000006, epsilon = 0.000577
 c15bf                                  6      0.0000       0.00000       A     3.31523e-01     4.13227e-01    ;  uncertainty sigma = 0.000004, epsilon = 0.000927
 c16bf                                  6      0.0000       0.00000       A     3.31516e-01     4.13608e-01    ;  uncertainty sigma = 0.000019, epsilon = 0.000900
 c17bf                                  6      0.0000       0.00000       A     3.31517e-01     4.13251e-01    ;  uncertainty sigma = 0.000009, epsilon = 0.000668
 c18bf                                  6      0.0000       0.00000       A     3.31519e-01     4.13635e-01    ;  uncertainty sigma = 0.000013, epsilon = 0.001168
 o19bf                                  8      0.0000       0.00000       A     3.04820e-01     6.12248e-01    ;  uncertainty sigma = 0.000024, epsilon = 0.001577
 n20bf                                  7      0.0000       0.00000       A     3.18094e-01     6.84128e-01    ;  uncertainty sigma = 0.000012, epsilon = 0.001060
 c21bf                                  6      0.0000       0.00000       A     3.39780e-01     4.50875e-01    ;  uncertainty sigma = 0.000005, epsilon = 0.000552
 h22bf                                  1      0.0000       0.00000       A     2.62550e-01     6.70182e-02    ;  uncertainty sigma = 0.000010, epsilon = 0.000665
 h23bf                                  1      0.0000       0.00000       A     2.42196e-01     8.67627e-02    ;  uncertainty sigma = 0.000011, epsilon = 0.000510
 h24bf                                  1      0.0000       0.00000       A     2.42196e-01     8.67627e-02    ;  uncertainty sigma = 0.000011, epsilon = 0.000510
 h25bf                                  1      0.0000       0.00000       A     2.42196e-01     8.67627e-02    ;  uncertainty sigma = 0.000011, epsilon = 0.000510
 h26bf                                  1      0.0000       0.00000       A     2.62563e-01     6.70147e-02    ;  uncertainty sigma = 0.000010, epsilon = 0.000410
 h27bf                                  1      0.0000       0.00000       A     2.62555e-01     6.72137e-02    ;  uncertainty sigma = 0.000019, epsilon = 0.000855
 h28bf                                  1      0.0000       0.00000       A     2.62563e-01     6.70403e-02    ;  uncertainty sigma = 0.000011, epsilon = 0.000526
 h29bf                                  1      0.0000       0.00000       A     2.53584e-01     6.68827e-02    ;  uncertainty sigma = 0.000056, epsilon = 0.000890
 h30bf                                  1      0.0000       0.00000       A     2.42201e-01     8.65888e-02    ;  uncertainty sigma = 0.000017, epsilon = 0.000674
 h31bf                                  1      0.0000       0.00000       A     2.42201e-01     8.65888e-02    ;  uncertainty sigma = 0.000017, epsilon = 0.000674
 h32bf                                  1      0.0000       0.00000       A     2.42201e-01     8.65888e-02    ;  uncertainty sigma = 0.000017, epsilon = 0.000674
 h33bf                                  1      0.0000       0.00000       A     1.10686e-01     4.09721e-02    ;  uncertainty sigma = 0.000062, epsilon = 0.000972
 h34bf                                  1      0.0000       0.00000       A     2.53650e-01     6.69352e-02    ;  uncertainty sigma = 0.000022, epsilon = 0.000689
 h35bf                                  1      0.0000       0.00000       A     2.62541e-01     6.71315e-02    ;  uncertainty sigma = 0.000006, epsilon = 0.000396
 h36bf                                  1      0.0000       0.00000       A     2.42196e-01     8.67625e-02    ;  uncertainty sigma = 0.000011, epsilon = 0.000510
 h37bf                                  1      0.0000       0.00000       A     2.42196e-01     8.67625e-02    ;  uncertainty sigma = 0.000011, epsilon = 0.000510
 h38bf                                  1      0.0000       0.00000       A     2.42196e-01     8.67625e-02    ;  uncertainty sigma = 0.000011, epsilon = 0.000510

[ moleculetype ]
;name             nrexcl
 MOL                   3

[ atoms ]
;       nr            type      resi   res      atom      cgnr      charge          mass ; qtot
         1            c0bf         1   UNL        c0         1    -0.09053       12.0110 ; qtot   -0.091
         2            c1bf         1   UNL        c1         2     0.67807       12.0110 ; qtot    0.588
         3            c2bf         1   UNL        c2         3     0.08268       12.0110 ; qtot    0.670
         4            c3bf         1   UNL        c3         4    -0.13827       12.0110 ; qtot    0.532
         5            c4bf         1   UNL        c4         5    -0.08800       12.0110 ; qtot    0.444
         6            c5bf         1   UNL        c5         6    -0.07100       12.0110 ; qtot    0.373
         7            c6bf         1   UNL        c6         7    -0.10611       12.0110 ; qtot    0.267
         8            c7bf         1   UNL        c7         8     0.00101       12.0110 ; qtot    0.268
         9            c8bf         1   UNL        c8         9     0.07796       12.0110 ; qtot    0.346
        10            o9bf         1   UNL        o9        10    -0.65452       15.9990 ; qtot   -0.309
        11           c10bf         1   UNL       c10        11     0.72580       12.0110 ; qtot    0.417
        12           n11bf         1   UNL       n11        12    -0.35486       14.0070 ; qtot    0.062
        13           c12bf         1   UNL       c12        13    -0.20458       12.0110 ; qtot   -0.142
        14           n13bf         1   UNL       n13        14    -0.14007       14.0070 ; qtot   -0.282
        15           c14bf         1   UNL       c14        15    -0.11510       12.0110 ; qtot   -0.398
        16           c15bf         1   UNL       c15        16    -0.19938       12.0110 ; qtot   -0.597
        17           c16bf         1   UNL       c16        17    -0.03507       12.0110 ; qtot   -0.632
        18           c17bf         1   UNL       c17        18    -0.02920       12.0110 ; qtot   -0.661
        19           c18bf         1   UNL       c18        19    -0.14304       12.0110 ; qtot   -0.804
        20           o19bf         1   UNL       o19        20    -0.59473       15.9990 ; qtot   -1.399
        21           n20bf         1   UNL       n20        21    -0.48247       14.0070 ; qtot   -1.881
        22           c21bf         1   UNL       c21        22     0.08268       12.0110 ; qtot   -1.799
        23           h22bf         1   UNL       h22        23     0.14579        1.0080 ; qtot   -1.653
        24           h23bf         1   UNL       h23        24     0.04445        1.0080 ; qtot   -1.608
        25           h24bf         1   UNL       h24        25     0.04445        1.0080 ; qtot   -1.564
        26           h25bf         1   UNL       h25        26     0.04445        1.0080 ; qtot   -1.520
        27           h26bf         1   UNL       h26        27     0.13776        1.0080 ; qtot   -1.382
        28           h27bf         1   UNL       h27        28     0.15025        1.0080 ; qtot   -1.232
        29           h28bf         1   UNL       h28        29     0.13708        1.0080 ; qtot   -1.094
        30           h29bf         1   UNL       h29        30     0.15080        1.0080 ; qtot   -0.944
        31           h30bf         1   UNL       h30        31     0.05528        1.0080 ; qtot   -0.888
        32           h31bf         1   UNL       h31        32     0.05528        1.0080 ; qtot   -0.833
        33           h32bf         1   UNL       h32        33     0.05528        1.0080 ; qtot   -0.778
        34           h33bf         1   UNL       h33        34     0.31885        1.0080 ; qtot   -0.459
        35           h34bf         1   UNL       h34        35     0.16563        1.0080 ; qtot   -0.293
        36           h35bf         1   UNL       h35        36     0.16006        1.0080 ; qtot   -0.133
        37           h36bf         1   UNL       h36        37     0.04445        1.0080 ; qtot   -0.089
        38           h37bf         1   UNL       h37        38     0.04445        1.0080 ; qtot   -0.044
        39           h38bf         1   UNL       h38        39     0.04442        1.0080 ; qtot    0.000

[ bonds ]
;       ai        aj funct               r               k
         1         4     1        0.139413   368095.520801    ;  uncertainty r = 0.000010, k = 0.854540
         1        19     1        0.139890   349707.065527    ;  uncertainty r = 0.000044, k = 2.770815
         1        23     1        0.108700   331987.376074    ;  uncertainty r = 0.000012, k = 1.339248
         2        19     1        0.150223   268630.088623    ;  uncertainty r = 0.000058, k = 4.245804
         2        20     1        0.123674   775280.235254    ;  uncertainty r = 0.000040, k = 2.412219
         2        21     1        0.137463   375338.432373    ;  uncertainty r = 0.000044, k = 10.885045
         3        21     1        0.145945   249588.419629    ;  uncertainty r = 0.000026, k = 4.280227
         3        24     1        0.109445   311010.734766    ;  uncertainty r = 0.000011, k = 1.721036
         3        25     1        0.109445   311010.734766    ;  uncertainty r = 0.000011, k = 1.721036
         3        26     1        0.109445   311010.734766    ;  uncertainty r = 0.000011, k = 1.721036
         4         7     1        0.139400   369466.735889    ;  uncertainty r = 0.000016, k = 1.493079
         4        27     1        0.108823   332776.089697    ;  uncertainty r = 0.000020, k = 1.295623
         5        18     1        0.139991   341845.721777    ;  uncertainty r = 0.000087, k = 4.291751
         5        19     1        0.139558   343795.199170    ;  uncertainty r = 0.000050, k = 3.098733
         5        28     1        0.108745   332769.628809    ;  uncertainty r = 0.000047, k = 1.433130
         6         8     1        0.136544   405761.301514    ;  uncertainty r = 0.000114, k = 18.724997
         6        17     1        0.143413   265921.060986    ;  uncertainty r = 0.000130, k = 13.819392
         6        18     1        0.147818   284981.831738    ;  uncertainty r = 0.000031, k = 10.566848
         7        18     1        0.140255   348973.256689    ;  uncertainty r = 0.000047, k = 2.336409
         7        29     1        0.108826   334608.683740    ;  uncertainty r = 0.000025, k = 0.878883
         8        12     1        0.138313   278160.154785    ;  uncertainty r = 0.000128, k = 7.587482
         8        30     1        0.108439   335443.542920    ;  uncertainty r = 0.000067, k = 2.643557
         9        12     1        0.146409   250625.277344    ;  uncertainty r = 0.000067, k = 8.493954
         9        31     1        0.109255   308565.837451    ;  uncertainty r = 0.000012, k = 1.410096
         9        32     1        0.109255   308565.837451    ;  uncertainty r = 0.000012, k = 1.410096
         9        33     1        0.109255   308565.837451    ;  uncertainty r = 0.000012, k = 1.410096
        10        11     1        0.124424   751960.155566    ;  uncertainty r = 0.000060, k = 12.425476
        11        12     1        0.139960   222988.251465    ;  uncertainty r = 0.000151, k = 13.510167
        11        13     1        0.143659   257020.637793    ;  uncertainty r = 0.000063, k = 16.455921
        13        14     1        0.137198   330859.733936    ;  uncertainty r = 0.000100, k = 13.480268
        13        17     1        0.140257   404997.971777    ;  uncertainty r = 0.000075, k = 15.526837
        14        15     1        0.137723   308827.260840    ;  uncertainty r = 0.000097, k = 4.992976
        14        34     1        0.101139   415156.225293    ;  uncertainty r = 0.000050, k = 8.169421
        15        16     1        0.138514   432195.197559    ;  uncertainty r = 0.000076, k = 6.544456
        15        35     1        0.108224   341276.678369    ;  uncertainty r = 0.000037, k = 2.130455
        16        17     1        0.143098   272603.279785    ;  uncertainty r = 0.000093, k = 17.629892
        16        36     1        0.108231   338325.380176    ;  uncertainty r = 0.000029, k = 1.934588
        21        22     1        0.145945   249588.419629    ;  uncertainty r = 0.000026, k = 4.280227
        22        37     1        0.109445   311010.734766    ;  uncertainty r = 0.000011, k = 1.721036
        22        38     1        0.109445   311010.734766    ;  uncertainty r = 0.000011, k = 1.721036
        22        39     1        0.109445   311010.734766    ;  uncertainty r = 0.000011, k = 1.721036

[ angles ]
;       ai        aj        ak funct           theta             cth
         1         4         7     1      120.436646      510.385274    ;  uncertainty theta = 0.001517, k = 0.068547
         1         4        27     1      120.297501      283.473725    ;  uncertainty theta = 0.001407, k = 0.034077
         1        19         2     1      120.643570      334.713169    ;  uncertainty theta = 0.002603, k = 0.118740
         1        19         5     1      121.459000      452.260100    ;  uncertainty theta = 0.003682, k = 0.090201
         2        19         5     1      119.898972      345.006507    ;  uncertainty theta = 0.001635, k = 0.083836
         2        21         3     1      116.643967      378.862968    ;  uncertainty theta = 0.002631, k = 0.169422
         2        21        22     1      116.643967      378.862968    ;  uncertainty theta = 0.002631, k = 0.169422
         3        21        22     1      118.452927      438.779699    ;  uncertainty theta = 0.002033, k = 0.239117
         4         1        19     1      120.008949      514.218554    ;  uncertainty theta = 0.002544, k = 0.056424
         4         1        23     1      120.506577      287.142099    ;  uncertainty theta = 0.002171, k = 0.099836
         4         7        18     1      119.973778      530.809088    ;  uncertainty theta = 0.001929, k = 0.049030
         4         7        29     1      120.379723      293.583228    ;  uncertainty theta = 0.001513, k = 0.030875
         5        18         6     1      120.972229      406.230195    ;  uncertainty theta = 0.006548, k = 0.099816
         5        18         7     1      119.781410      411.623536    ;  uncertainty theta = 0.002855, k = 0.205677
         6         8        12     1      127.056686      569.261623    ;  uncertainty theta = 0.002977, k = 0.203227
         6         8        30     1      121.215660      254.383877    ;  uncertainty theta = 0.003561, k = 0.164025
         6        17        13     1      117.820396      429.980983    ;  uncertainty theta = 0.008571, k = 0.176308
         6        17        16     1      130.637665      355.318520    ;  uncertainty theta = 0.006298, k = 0.103935
         6        18         7     1      121.829567      421.034568    ;  uncertainty theta = 0.004566, k = 0.051097
         7         4        27     1      120.328796      285.162366    ;  uncertainty theta = 0.001614, k = 0.041580
         8         6        17     1      119.883377      436.766544    ;  uncertainty theta = 0.004513, k = 0.103603
         8         6        18     1      120.764099      388.240514    ;  uncertainty theta = 0.006349, k = 0.145071
         8        12         9     1      117.608322      437.525603    ;  uncertainty theta = 0.003845, k = 0.167085
         8        12        11     1      124.694176      513.838370    ;  uncertainty theta = 0.004226, k = 0.193605
         9        12        11     1      114.335159      433.008152    ;  uncertainty theta = 0.003429, k = 0.100523
        10        11        12     1      122.902832      687.665835    ;  uncertainty theta = 0.003599, k = 0.086769
        10        11        13     1      128.425018      484.572524    ;  uncertainty theta = 0.005924, k = 0.130704
        11        13        14     1      121.357033      351.727874    ;  uncertainty theta = 0.013470, k = 0.180671
        11        13        17     1      122.665543      390.608602    ;  uncertainty theta = 0.007082, k = 0.345225
        12         8        30     1      112.677490      303.552437    ;  uncertainty theta = 0.003728, k = 0.195292
        12         9        31     1      108.843735      475.416002    ;  uncertainty theta = 0.000919, k = 0.018701
        12         9        32     1      108.843735      475.416002    ;  uncertainty theta = 0.000919, k = 0.018701
        12         9        33     1      108.843735      475.416002    ;  uncertainty theta = 0.000919, k = 0.018701
        12        11        13     1      108.936234      390.518967    ;  uncertainty theta = 0.008742, k = 0.227068
        13        14        15     1      105.437851      864.325812    ;  uncertainty theta = 0.004991, k = 0.179292
        13        14        34     1      117.646011      285.457735    ;  uncertainty theta = 0.005023, k = 0.161463
        13        17        16     1      107.203110      699.767871    ;  uncertainty theta = 0.007095, k = 0.084060
        14        13        17     1      108.663109      621.545279    ;  uncertainty theta = 0.003796, k = 0.100813
        14        15        16     1      110.262352      731.065322    ;  uncertainty theta = 0.004583, k = 0.122419
        14        15        35     1      117.816879      298.852236    ;  uncertainty theta = 0.002755, k = 0.084542
        15        14        34     1      116.062500      278.192842    ;  uncertainty theta = 0.005254, k = 0.128297
        15        16        17     1      106.651588      790.063898    ;  uncertainty theta = 0.007324, k = 0.128778
        15        16        36     1      123.456604      249.893304    ;  uncertainty theta = 0.002217, k = 0.104075
        16        15        35     1      128.244171      234.340598    ;  uncertainty theta = 0.004055, k = 0.165173
        17         6        18     1      121.581139      374.423119    ;  uncertainty theta = 0.005590, k = 0.171925
        17        16        36     1      124.749977      251.322025    ;  uncertainty theta = 0.002184, k = 0.280040
        18         5        19     1      121.985985      516.837640    ;  uncertainty theta = 0.001466, k = 0.089984
        18         5        28     1      119.707138      280.555951    ;  uncertainty theta = 0.002407, k = 0.065120
        18         7        29     1      119.632278      280.706173    ;  uncertainty theta = 0.001643, k = 0.030018
        19         1        23     1      119.666092      269.175561    ;  uncertainty theta = 0.002464, k = 0.057038
        19         2        20     1      124.280190      514.030410    ;  uncertainty theta = 0.001496, k = 0.156591
        19         2        21     1      114.339493      404.421178    ;  uncertainty theta = 0.003057, k = 0.174132
        19         5        28     1      119.470741      271.577167    ;  uncertainty theta = 0.002815, k = 0.063533
        20         2        21     1      124.591232      716.301298    ;  uncertainty theta = 0.002800, k = 0.070107
        21         3        24     1      109.331192      483.112982    ;  uncertainty theta = 0.001012, k = 0.067158
        21         3        25     1      109.331192      483.112982    ;  uncertainty theta = 0.001012, k = 0.067158
        21         3        26     1      109.331192      483.112982    ;  uncertainty theta = 0.001012, k = 0.067158
        21        22        37     1      109.331192      483.112982    ;  uncertainty theta = 0.001012, k = 0.067158
        21        22        38     1      109.331192      483.112982    ;  uncertainty theta = 0.001012, k = 0.067158
        21        22        39     1      109.331192      483.112982    ;  uncertainty theta = 0.001012, k = 0.067158
        24         3        25     1      106.882004      326.924446    ;  uncertainty theta = 0.000868, k = 0.031271
        24         3        26     1      106.882004      326.924446    ;  uncertainty theta = 0.000868, k = 0.031271
        25         3        26     1      106.882004      326.924446    ;  uncertainty theta = 0.000868, k = 0.031271
        31         9        32     1      107.300705      324.917932    ;  uncertainty theta = 0.001484, k = 0.026469
        31         9        33     1      107.300720      324.917900    ;  uncertainty theta = 0.001484, k = 0.026469
        32         9        33     1      107.300720      324.917900    ;  uncertainty theta = 0.001484, k = 0.026469
        37        22        38     1      106.882004      326.924446    ;  uncertainty theta = 0.000868, k = 0.031271
        37        22        39     1      106.882004      326.924446    ;  uncertainty theta = 0.000868, k = 0.031271
        38        22        39     1      106.882004      326.924446    ;  uncertainty theta = 0.000868, k = 0.031271

[ dihedrals ] ; propers for gromacs 4.5 or higher, use funct 9
;       ai        aj        ak        al funct           phase               k        pn
         1         4         7        18     9        0.000000       -0.016778         1    ;  uncertainty k = 0.157517
         1         4         7        18     9      180.000000       14.362921         2    ;  uncertainty k = 0.249327
         1         4         7        18     9        0.000000       -0.975734         3    ;  uncertainty k = 0.442679
         1         4         7        18     9      180.000000        0.625324         4    ;  uncertainty k = 0.298183
         1         4         7        29     9        0.000000        0.079519         1    ;  uncertainty k = 0.053875
         1         4         7        29     9      180.000000        7.615698         2    ;  uncertainty k = 0.277817
         1         4         7        29     9        0.000000        1.436252         3    ;  uncertainty k = 0.226405
         1         4         7        29     9      180.000000        1.816134         4    ;  uncertainty k = 0.124826
         1        19         2        20     9        0.000000       -1.664540         1    ;  uncertainty k = 0.695808
         1        19         2        20     9      180.000000        3.053791         2    ;  uncertainty k = 0.171334
         1        19         2        20     9        0.000000        0.230329         3    ;  uncertainty k = 0.045202
         1        19         2        20     9      180.000000        0.197527         4    ;  uncertainty k = 0.084772
         1        19         2        21     9        0.000000        1.027554         1    ;  uncertainty k = 0.376159
         1        19         2        21     9      180.000000        4.553042         2    ;  uncertainty k = 0.240746
         1        19         2        21     9        0.000000        0.383664         3    ;  uncertainty k = 0.131323
         1        19         2        21     9      180.000000        0.226257         4    ;  uncertainty k = 0.049418
         1        19         5        18     9        0.000000       -0.072165         1    ;  uncertainty k = 0.178404
         1        19         5        18     9      180.000000       11.027428         2    ;  uncertainty k = 0.338217
         1        19         5        18     9        0.000000       -0.369808         3    ;  uncertainty k = 0.353667
         1        19         5        18     9      180.000000        1.050328         4    ;  uncertainty k = 0.301142
         1        19         5        28     9        0.000000        0.376072         1    ;  uncertainty k = 0.177968
         1        19         5        28     9      180.000000        7.602448         2    ;  uncertainty k = 0.460929
         1        19         5        28     9        0.000000        1.221006         3    ;  uncertainty k = 0.269252
         1        19         5        28     9      180.000000        1.737040         4    ;  uncertainty k = 0.197164
         2        19         1         4     9        0.000000        0.463758         1    ;  uncertainty k = 0.393175
         2        19         1         4     9      180.000000        9.269004         2    ;  uncertainty k = 0.639201
         2        19         1         4     9        0.000000        1.401593         3    ;  uncertainty k = 0.482327
         2        19         1         4     9      180.000000        1.898428         4    ;  uncertainty k = 0.250700
         2        19         1        23     9        0.000000       -0.018499         1    ;  uncertainty k = 0.286702
         2        19         1        23     9      180.000000        8.166473         2    ;  uncertainty k = 0.362619
         2        19         1        23     9        0.000000        0.913777         3    ;  uncertainty k = 0.160624
         2        19         1        23     9      180.000000        1.192129         4    ;  uncertainty k = 0.225004
         2        19         5        18     9        0.000000        0.520511         1    ;  uncertainty k = 0.386811
         2        19         5        18     9      180.000000        8.875592         2    ;  uncertainty k = 0.681889
         2        19         5        18     9        0.000000        1.357620         3    ;  uncertainty k = 0.358075
         2        19         5        18     9      180.000000        1.903831         4    ;  uncertainty k = 0.213554
         2        19         5        28     9        0.000000        0.094404         1    ;  uncertainty k = 0.354637
         2        19         5        28     9      180.000000        8.346275         2    ;  uncertainty k = 0.353876
         2        19         5        28     9        0.000000        0.942527         3    ;  uncertainty k = 0.177744
         2        19         5        28     9      180.000000        1.265248         4    ;  uncertainty k = 0.210857
         2        21         3        24     9        0.000000        0.072682         1    ;  uncertainty k = 0.169749
         2        21         3        24     9      180.000000       -0.211074         2    ;  uncertainty k = 0.157871
         2        21         3        24     9        0.000000        0.353045         3    ;  uncertainty k = 0.068584
         2        21         3        24     9      180.000000        0.290209         4    ;  uncertainty k = 0.036498
         2        21         3        25     9        0.000000        0.072682         1    ;  uncertainty k = 0.169749
         2        21         3        25     9      180.000000       -0.211074         2    ;  uncertainty k = 0.157871
         2        21         3        25     9        0.000000        0.353045         3    ;  uncertainty k = 0.068584
         2        21         3        25     9      180.000000        0.290209         4    ;  uncertainty k = 0.036498
         2        21         3        26     9        0.000000        0.072682         1    ;  uncertainty k = 0.169749
         2        21         3        26     9      180.000000       -0.211074         2    ;  uncertainty k = 0.157871
         2        21         3        26     9        0.000000        0.353045         3    ;  uncertainty k = 0.068584
         2        21         3        26     9      180.000000        0.290209         4    ;  uncertainty k = 0.036498
         2        21        22        37     9        0.000000        0.072682         1    ;  uncertainty k = 0.169749
         2        21        22        37     9      180.000000       -0.211074         2    ;  uncertainty k = 0.157871
         2        21        22        37     9        0.000000        0.353045         3    ;  uncertainty k = 0.068584
         2        21        22        37     9      180.000000        0.290209         4    ;  uncertainty k = 0.036498
         2        21        22        38     9        0.000000        0.072682         1    ;  uncertainty k = 0.169749
         2        21        22        38     9      180.000000       -0.211074         2    ;  uncertainty k = 0.157871
         2        21        22        38     9        0.000000        0.353045         3    ;  uncertainty k = 0.068584
         2        21        22        38     9      180.000000        0.290209         4    ;  uncertainty k = 0.036498
         2        21        22        39     9        0.000000        0.072682         1    ;  uncertainty k = 0.169749
         2        21        22        39     9      180.000000       -0.211074         2    ;  uncertainty k = 0.157871
         2        21        22        39     9        0.000000        0.353045         3    ;  uncertainty k = 0.068584
         2        21        22        39     9      180.000000        0.290209         4    ;  uncertainty k = 0.036498
         3        21         2        19     9        0.000000        6.282720         1    ;  uncertainty k = 0.802004
         3        21         2        19     9      180.000000        6.340806         2    ;  uncertainty k = 0.348043
         3        21         2        19     9        0.000000        0.332740         3    ;  uncertainty k = 0.444046
         3        21         2        19     9      180.000000       -0.006012         4    ;  uncertainty k = 0.162785
         3        21         2        20     9        0.000000        4.553612         1    ;  uncertainty k = 1.061984
         3        21         2        20     9      180.000000       14.829660         2    ;  uncertainty k = 0.163869
         3        21         2        20     9        0.000000        0.403200         3    ;  uncertainty k = 0.315053
         3        21         2        20     9      180.000000       -0.277135         4    ;  uncertainty k = 0.228505
         3        21        22        37     9        0.000000       -0.705221         1    ;  uncertainty k = 0.364395
         3        21        22        37     9      180.000000       -1.189189         2    ;  uncertainty k = 0.226350
         3        21        22        37     9        0.000000        1.357957         3    ;  uncertainty k = 0.055767
         3        21        22        37     9      180.000000        0.153889         4    ;  uncertainty k = 0.040275
         3        21        22        38     9        0.000000       -0.705221         1    ;  uncertainty k = 0.364395
         3        21        22        38     9      180.000000       -1.189189         2    ;  uncertainty k = 0.226350
         3        21        22        38     9        0.000000        1.357957         3    ;  uncertainty k = 0.055767
         3        21        22        38     9      180.000000        0.153889         4    ;  uncertainty k = 0.040275
         3        21        22        39     9        0.000000       -0.705221         1    ;  uncertainty k = 0.364395
         3        21        22        39     9      180.000000       -1.189189         2    ;  uncertainty k = 0.226350
         3        21        22        39     9        0.000000        1.357957         3    ;  uncertainty k = 0.055767
         3        21        22        39     9      180.000000        0.153889         4    ;  uncertainty k = 0.040275
         4         1        19         5     9        0.000000       -0.165928         1    ;  uncertainty k = 0.159629
         4         1        19         5     9      180.000000       11.359283         2    ;  uncertainty k = 0.371523
         4         1        19         5     9        0.000000       -0.713984         3    ;  uncertainty k = 0.246563
         4         1        19         5     9      180.000000        0.946760         4    ;  uncertainty k = 0.247033
         4         7        18         5     9        0.000000       -0.143564         1    ;  uncertainty k = 0.099274
         4         7        18         5     9      180.000000       11.076155         2    ;  uncertainty k = 0.263541
         4         7        18         5     9        0.000000       -0.424267         3    ;  uncertainty k = 0.358174
         4         7        18         5     9      180.000000        0.923774         4    ;  uncertainty k = 0.276445
         4         7        18         6     9        0.000000        0.037053         1    ;  uncertainty k = 0.275641
         4         7        18         6     9      180.000000        9.068099         2    ;  uncertainty k = 0.554832
         4         7        18         6     9        0.000000        1.384519         3    ;  uncertainty k = 0.201177
         4         7        18         6     9      180.000000        1.809747         4    ;  uncertainty k = 0.123841
         5        18         6         8     9        0.000000        0.404737         1    ;  uncertainty k = 0.652286
         5        18         6         8     9      180.000000        4.116752         2    ;  uncertainty k = 0.146417
         5        18         6         8     9        0.000000        0.490436         3    ;  uncertainty k = 0.177337
         5        18         6         8     9      180.000000        0.017279         4    ;  uncertainty k = 0.128066
         5        18         6        17     9        0.000000       -0.145341         1    ;  uncertainty k = 0.478646
         5        18         6        17     9      180.000000        4.179298         2    ;  uncertainty k = 0.462160
         5        18         6        17     9        0.000000        0.767318         3    ;  uncertainty k = 0.378470
         5        18         6        17     9      180.000000        0.239754         4    ;  uncertainty k = 0.107352
         5        18         7        29     9        0.000000        0.218226         1    ;  uncertainty k = 0.160901
         5        18         7        29     9      180.000000        6.967578         2    ;  uncertainty k = 0.503838
         5        18         7        29     9        0.000000        1.425973         3    ;  uncertainty k = 0.213688
         5        18         7        29     9      180.000000        1.653836         4    ;  uncertainty k = 0.253590
         5        19         1        23     9        0.000000        0.353384         1    ;  uncertainty k = 0.241726
         5        19         1        23     9      180.000000        7.374718         2    ;  uncertainty k = 0.435939
         5        19         1        23     9        0.000000        1.257826         3    ;  uncertainty k = 0.288452
         5        19         1        23     9      180.000000        1.725720         4    ;  uncertainty k = 0.238965
         5        19         2        20     9        0.000000       -1.711715         1    ;  uncertainty k = 0.826304
         5        19         2        20     9      180.000000        3.021444         2    ;  uncertainty k = 0.200925
         5        19         2        20     9        0.000000        0.274052         3    ;  uncertainty k = 0.086847
         5        19         2        20     9      180.000000        0.229275         4    ;  uncertainty k = 0.081455
         5        19         2        21     9        0.000000        1.058736         1    ;  uncertainty k = 0.448382
         5        19         2        21     9      180.000000        4.609976         2    ;  uncertainty k = 0.246990
         5        19         2        21     9        0.000000        0.345593         3    ;  uncertainty k = 0.125993
         5        19         2        21     9      180.000000        0.231168         4    ;  uncertainty k = 0.078299
         6         8        12         9     9        0.000000        2.341904         1    ;  uncertainty k = 1.383547
         6         8        12         9     9      180.000000        8.466084         2    ;  uncertainty k = 0.797067
         6         8        12         9     9        0.000000        1.097319         3    ;  uncertainty k = 0.472913
         6         8        12         9     9      180.000000       -0.218269         4    ;  uncertainty k = 0.286797
         6         8        12        11     9        0.000000        0.928494         1    ;  uncertainty k = 1.634744
         6         8        12        11     9      180.000000        4.835993         2    ;  uncertainty k = 0.828501
         6         8        12        11     9        0.000000        0.947452         3    ;  uncertainty k = 0.310405
         6         8        12        11     9      180.000000        0.257402         4    ;  uncertainty k = 0.131414
         6        17        13        11     9        0.000000        0.012338         1    ;  uncertainty k = 1.108380
         6        17        13        11     9      180.000000        7.846039         2    ;  uncertainty k = 0.605070
         6        17        13        11     9        0.000000        1.313051         3    ;  uncertainty k = 0.510927
         6        17        13        11     9      180.000000        0.936437         4    ;  uncertainty k = 0.280322
         6        17        13        14     9        0.000000        0.542038         1    ;  uncertainty k = 0.478719
         6        17        13        14     9      180.000000       12.958541         2    ;  uncertainty k = 0.425202
         6        17        13        14     9        0.000000       -0.176974         3    ;  uncertainty k = 0.550548
         6        17        13        14     9      180.000000        1.193383         4    ;  uncertainty k = 0.378095
         6        17        16        15     9        0.000000        0.196407         1    ;  uncertainty k = 0.871820
         6        17        16        15     9      180.000000        8.575495         2    ;  uncertainty k = 0.809431
         6        17        16        15     9        0.000000       -0.041553         3    ;  uncertainty k = 1.066081
         6        17        16        15     9      180.000000        0.834520         4    ;  uncertainty k = 0.239185
         6        17        16        36     9        0.000000        0.528684         1    ;  uncertainty k = 1.513441
         6        17        16        36     9      180.000000        4.052164         2    ;  uncertainty k = 0.407310
         6        17        16        36     9        0.000000        2.005739         3    ;  uncertainty k = 0.129873
         6        17        16        36     9      180.000000        0.165703         4    ;  uncertainty k = 0.053979
         6        18         5        19     9        0.000000       -0.198306         1    ;  uncertainty k = 0.390159
         6        18         5        19     9      180.000000        8.663120         2    ;  uncertainty k = 0.750469
         6        18         5        19     9        0.000000        1.231405         3    ;  uncertainty k = 0.115085
         6        18         5        19     9      180.000000        1.809468         4    ;  uncertainty k = 0.102657
         6        18         5        28     9        0.000000       -0.107104         1    ;  uncertainty k = 0.526781
         6        18         5        28     9      180.000000        7.008243         2    ;  uncertainty k = 0.356853
         6        18         5        28     9        0.000000        0.781624         3    ;  uncertainty k = 0.301859
         6        18         5        28     9      180.000000        1.251878         4    ;  uncertainty k = 0.283466
         6        18         7        29     9        0.000000       -0.237250         1    ;  uncertainty k = 0.390337
         6        18         7        29     9      180.000000        6.942110         2    ;  uncertainty k = 0.366901
         6        18         7        29     9        0.000000        0.780341         3    ;  uncertainty k = 0.258119
         6        18         7        29     9      180.000000        1.176594         4    ;  uncertainty k = 0.271332
         7         4         1        19     9        0.000000       -0.093236         1    ;  uncertainty k = 0.097949
         7         4         1        19     9      180.000000       13.390703         2    ;  uncertainty k = 0.307058
         7         4         1        19     9        0.000000       -0.739716         3    ;  uncertainty k = 0.320704
         7         4         1        19     9      180.000000        0.811743         4    ;  uncertainty k = 0.232578
         7         4         1        23     9        0.000000        0.057994         1    ;  uncertainty k = 0.057570
         7         4         1        23     9      180.000000        7.318129         2    ;  uncertainty k = 0.245543
         7         4         1        23     9        0.000000        1.404792         3    ;  uncertainty k = 0.254042
         7         4         1        23     9      180.000000        1.819092         4    ;  uncertainty k = 0.160822
         7        18         5        19     9        0.000000       -0.046462         1    ;  uncertainty k = 0.174427
         7        18         5        19     9      180.000000       10.278484         2    ;  uncertainty k = 0.413139
         7        18         5        19     9        0.000000        0.091376         3    ;  uncertainty k = 0.173054
         7        18         5        19     9      180.000000        1.149832         4    ;  uncertainty k = 0.284651
         7        18         5        28     9        0.000000        0.248798         1    ;  uncertainty k = 0.170875
         7        18         5        28     9      180.000000        7.043224         2    ;  uncertainty k = 0.518279
         7        18         5        28     9        0.000000        1.371997         3    ;  uncertainty k = 0.165738
         7        18         5        28     9      180.000000        1.673694         4    ;  uncertainty k = 0.230697
         7        18         6         8     9        0.000000        0.388846         1    ;  uncertainty k = 0.659241
         7        18         6         8     9      180.000000        4.149630         2    ;  uncertainty k = 0.158523
         7        18         6         8     9        0.000000        0.423726         3    ;  uncertainty k = 0.079916
         7        18         6         8     9      180.000000        0.038492         4    ;  uncertainty k = 0.148032
         7        18         6        17     9        0.000000       -0.061235         1    ;  uncertainty k = 0.477933
         7        18         6        17     9      180.000000        4.215566         2    ;  uncertainty k = 0.451488
         7        18         6        17     9        0.000000        0.786499         3    ;  uncertainty k = 0.369683
         7        18         6        17     9      180.000000        0.315965         4    ;  uncertainty k = 0.115572
         8         6        17        13     9        0.000000       -0.038006         1    ;  uncertainty k = 1.198702
         8         6        17        13     9      180.000000        6.850834         2    ;  uncertainty k = 0.792744
         8         6        17        13     9        0.000000       -0.764946         3    ;  uncertainty k = 0.270914
         8         6        17        13     9      180.000000        0.812324         4    ;  uncertainty k = 0.176709
         8         6        17        16     9        0.000000        0.226134         1    ;  uncertainty k = 0.880655
         8         6        17        16     9      180.000000        4.181341         2    ;  uncertainty k = 0.610551
         8         6        17        16     9        0.000000        0.689700         3    ;  uncertainty k = 0.300118
         8         6        17        16     9      180.000000        0.524157         4    ;  uncertainty k = 0.146128
         8        12         9        31     9        0.000000       -0.685290         1    ;  uncertainty k = 0.197969
         8        12         9        31     9      180.000000       -0.379466         2    ;  uncertainty k = 0.377611
         8        12         9        31     9        0.000000        0.874314         3    ;  uncertainty k = 0.044382
         8        12         9        31     9      180.000000        0.269327         4    ;  uncertainty k = 0.061148
         8        12         9        32     9        0.000000       -0.685290         1    ;  uncertainty k = 0.197969
         8        12         9        32     9      180.000000       -0.379466         2    ;  uncertainty k = 0.377611
         8        12         9        32     9        0.000000        0.874314         3    ;  uncertainty k = 0.044382
         8        12         9        32     9      180.000000        0.269327         4    ;  uncertainty k = 0.061148
         8        12         9        33     9        0.000000       -0.685290         1    ;  uncertainty k = 0.197969
         8        12         9        33     9      180.000000       -0.379466         2    ;  uncertainty k = 0.377611
         8        12         9        33     9        0.000000        0.874314         3    ;  uncertainty k = 0.044382
         8        12         9        33     9      180.000000        0.269327         4    ;  uncertainty k = 0.061148
         8        12        11        10     9        0.000000        2.129445         1    ;  uncertainty k = 1.449670
         8        12        11        10     9      180.000000       10.964813         2    ;  uncertainty k = 0.469465
         8        12        11        10     9        0.000000        1.371126         3    ;  uncertainty k = 0.197213
         8        12        11        10     9      180.000000       -0.009128         4    ;  uncertainty k = 0.127320
         8        12        11        13     9        0.000000        1.274068         1    ;  uncertainty k = 0.590564
         8        12        11        13     9      180.000000        4.533225         2    ;  uncertainty k = 1.233915
         8        12        11        13     9        0.000000        1.471574         3    ;  uncertainty k = 0.123028
         8        12        11        13     9      180.000000        0.379002         4    ;  uncertainty k = 0.234492
         9        12         8        30     9        0.000000       -1.013115         1    ;  uncertainty k = 1.194157
         9        12         8        30     9      180.000000        3.965133         2    ;  uncertainty k = 0.626163
         9        12         8        30     9        0.000000        0.740319         3    ;  uncertainty k = 0.280680
         9        12         8        30     9      180.000000        0.101964         4    ;  uncertainty k = 0.148994
         9        12        11        10     9        0.000000        0.720562         1    ;  uncertainty k = 0.771187
         9        12        11        10     9      180.000000       12.615549         2    ;  uncertainty k = 0.418833
         9        12        11        10     9        0.000000        0.765148         3    ;  uncertainty k = 0.233660
         9        12        11        10     9      180.000000        0.052429         4    ;  uncertainty k = 0.212887
         9        12        11        13     9        0.000000        1.282357         1    ;  uncertainty k = 1.186450
         9        12        11        13     9      180.000000        7.567750         2    ;  uncertainty k = 0.375830
         9        12        11        13     9        0.000000        1.375937         3    ;  uncertainty k = 0.188990
         9        12        11        13     9      180.000000        0.016241         4    ;  uncertainty k = 0.163615
        10        11        13        14     9        0.000000       -1.269235         1    ;  uncertainty k = 0.393219
        10        11        13        14     9      180.000000        7.826459         2    ;  uncertainty k = 0.341737
        10        11        13        14     9        0.000000        0.970674         3    ;  uncertainty k = 0.269464
        10        11        13        14     9      180.000000       -0.156785         4    ;  uncertainty k = 0.168441
        10        11        13        17     9        0.000000       -1.986145         1    ;  uncertainty k = 1.633749
        10        11        13        17     9      180.000000        5.586453         2    ;  uncertainty k = 0.296288
        10        11        13        17     9        0.000000        0.349872         3    ;  uncertainty k = 0.355429
        10        11        13        17     9      180.000000       -0.053194         4    ;  uncertainty k = 0.158625
        11        12         8        30     9        0.000000        1.308759         1    ;  uncertainty k = 0.852929
        11        12         8        30     9      180.000000        4.160638         2    ;  uncertainty k = 1.520249
        11        12         8        30     9        0.000000        0.673977         3    ;  uncertainty k = 0.453443
        11        12         8        30     9      180.000000        0.058646         4    ;  uncertainty k = 0.196035
        11        12         9        31     9        0.000000        0.207366         1    ;  uncertainty k = 0.347251
        11        12         9        31     9      180.000000        0.281734         2    ;  uncertainty k = 0.263572
        11        12         9        31     9        0.000000        0.708108         3    ;  uncertainty k = 0.034198
        11        12         9        31     9      180.000000        0.436587         4    ;  uncertainty k = 0.020117
        11        12         9        32     9        0.000000        0.207366         1    ;  uncertainty k = 0.347251
        11        12         9        32     9      180.000000        0.281734         2    ;  uncertainty k = 0.263572
        11        12         9        32     9        0.000000        0.708108         3    ;  uncertainty k = 0.034198
        11        12         9        32     9      180.000000        0.436587         4    ;  uncertainty k = 0.020117
        11        12         9        33     9        0.000000        0.207366         1    ;  uncertainty k = 0.347251
        11        12         9        33     9      180.000000        0.281734         2    ;  uncertainty k = 0.263572
        11        12         9        33     9        0.000000        0.708108         3    ;  uncertainty k = 0.034198
        11        12         9        33     9      180.000000        0.436587         4    ;  uncertainty k = 0.020117
        11        13        14        15     9        0.000000        1.222386         1    ;  uncertainty k = 1.494891
        11        13        14        15     9      180.000000        4.383176         2    ;  uncertainty k = 0.925827
        11        13        14        15     9        0.000000        0.806197         3    ;  uncertainty k = 0.572682
        11        13        14        15     9      180.000000        0.383494         4    ;  uncertainty k = 0.190047
        11        13        14        34     9        0.000000        2.385157         1    ;  uncertainty k = 1.598981
        11        13        14        34     9      180.000000        1.234180         2    ;  uncertainty k = 0.788249
        11        13        14        34     9        0.000000        1.152890         3    ;  uncertainty k = 0.231234
        11        13        14        34     9      180.000000        0.143811         4    ;  uncertainty k = 0.108325
        11        13        17        16     9        0.000000        0.164837         1    ;  uncertainty k = 1.621414
        11        13        17        16     9      180.000000        7.973894         2    ;  uncertainty k = 0.425688
        11        13        17        16     9        0.000000        0.753695         3    ;  uncertainty k = 0.665871
        11        13        17        16     9      180.000000        1.154457         4    ;  uncertainty k = 0.373383
        12         8         6        17     9        0.000000        0.217591         1    ;  uncertainty k = 1.042078
        12         8         6        17     9      180.000000       21.525028         2    ;  uncertainty k = 0.268306
        12         8         6        17     9        0.000000        0.424360         3    ;  uncertainty k = 0.485813
        12         8         6        17     9      180.000000        0.551945         4    ;  uncertainty k = 0.247848
        12         8         6        18     9        0.000000        0.468509         1    ;  uncertainty k = 0.324175
        12         8         6        18     9      180.000000       18.928269         2    ;  uncertainty k = 0.295274
        12         8         6        18     9        0.000000        1.709576         3    ;  uncertainty k = 0.256076
        12         8         6        18     9      180.000000        0.953252         4    ;  uncertainty k = 0.294229
        12        11        13        14     9        0.000000       -0.963679         1    ;  uncertainty k = 1.541654
        12        11        13        14     9      180.000000        5.359221         2    ;  uncertainty k = 0.615973
        12        11        13        14     9        0.000000        0.459523         3    ;  uncertainty k = 0.306196
        12        11        13        14     9      180.000000        0.233430         4    ;  uncertainty k = 0.087173
        12        11        13        17     9        0.000000       -1.418402         1    ;  uncertainty k = 1.055875
        12        11        13        17     9      180.000000        4.958107         2    ;  uncertainty k = 0.414468
        12        11        13        17     9        0.000000       -0.315352         3    ;  uncertainty k = 0.189081
        12        11        13        17     9      180.000000        0.254100         4    ;  uncertainty k = 0.166511
        13        14        15        16     9        0.000000        0.128489         1    ;  uncertainty k = 0.441067
        13        14        15        16     9      180.000000       15.762401         2    ;  uncertainty k = 0.429552
        13        14        15        16     9        0.000000       -8.215354         3    ;  uncertainty k = 1.169365
        13        14        15        16     9      180.000000        1.126726         4    ;  uncertainty k = 0.604960
        13        14        15        35     9        0.000000        0.665488         1    ;  uncertainty k = 0.543174
        13        14        15        35     9      180.000000        7.848965         2    ;  uncertainty k = 0.812928
        13        14        15        35     9        0.000000        1.614918         3    ;  uncertainty k = 0.333430
        13        14        15        35     9      180.000000        0.132869         4    ;  uncertainty k = 0.288297
        13        17         6        18     9        0.000000       -0.271773         1    ;  uncertainty k = 0.798265
        13        17         6        18     9      180.000000        7.192451         2    ;  uncertainty k = 0.738050
        13        17         6        18     9        0.000000        0.990989         3    ;  uncertainty k = 0.528759
        13        17         6        18     9      180.000000        0.555086         4    ;  uncertainty k = 0.158140
        13        17        16        15     9        0.000000        0.195958         1    ;  uncertainty k = 0.562992
        13        17        16        15     9      180.000000       12.484864         2    ;  uncertainty k = 0.926348
        13        17        16        15     9        0.000000      -12.103021         3    ;  uncertainty k = 2.144948
        13        17        16        15     9      180.000000        1.927425         4    ;  uncertainty k = 0.720550
        13        17        16        36     9        0.000000        0.241349         1    ;  uncertainty k = 0.833522
        13        17        16        36     9      180.000000        8.307103         2    ;  uncertainty k = 0.797693
        13        17        16        36     9        0.000000        1.399448         3    ;  uncertainty k = 0.659251
        13        17        16        36     9      180.000000        0.388077         4    ;  uncertainty k = 0.226663
        14        13        17        16     9        0.000000       -0.377254         1    ;  uncertainty k = 0.438127
        14        13        17        16     9      180.000000       14.609589         2    ;  uncertainty k = 0.642988
        14        13        17        16     9        0.000000       -3.603128         3    ;  uncertainty k = 1.023539
        14        13        17        16     9      180.000000        1.586220         4    ;  uncertainty k = 0.613849
        14        15        16        17     9        0.000000       -0.197289         1    ;  uncertainty k = 0.478637
        14        15        16        17     9      180.000000       22.044297         2    ;  uncertainty k = 0.363719
        14        15        16        17     9        0.000000       -6.953686         3    ;  uncertainty k = 1.059115
        14        15        16        17     9      180.000000        1.333768         4    ;  uncertainty k = 0.365433
        14        15        16        36     9        0.000000        0.634301         1    ;  uncertainty k = 0.872568
        14        15        16        36     9      180.000000       14.905434         2    ;  uncertainty k = 0.201771
        14        15        16        36     9        0.000000        1.670616         3    ;  uncertainty k = 0.572134
        14        15        16        36     9      180.000000        0.792564         4    ;  uncertainty k = 0.242451
        15        14        13        17     9        0.000000        0.046223         1    ;  uncertainty k = 0.372264
        15        14        13        17     9      180.000000       14.742807         2    ;  uncertainty k = 0.907710
        15        14        13        17     9        0.000000       -9.724866         3    ;  uncertainty k = 1.174085
        15        14        13        17     9      180.000000        1.075385         4    ;  uncertainty k = 0.444028
        16        15        14        34     9        0.000000        2.092521         1    ;  uncertainty k = 1.529020
        16        15        14        34     9      180.000000        9.621214         2    ;  uncertainty k = 0.659311
        16        15        14        34     9        0.000000        1.427238         3    ;  uncertainty k = 0.856826
        16        15        14        34     9      180.000000       -0.093919         4    ;  uncertainty k = 0.132475
        16        17         6        18     9        0.000000        0.047968         1    ;  uncertainty k = 0.897449
        16        17         6        18     9      180.000000        4.952592         2    ;  uncertainty k = 1.051266
        16        17         6        18     9        0.000000        1.448347         3    ;  uncertainty k = 0.144007
        16        17         6        18     9      180.000000        0.306716         4    ;  uncertainty k = 0.164446
        17         6         8        30     9        0.000000       -0.205585         1    ;  uncertainty k = 0.425696
        17         6         8        30     9      180.000000       13.515693         2    ;  uncertainty k = 0.431040
        17         6         8        30     9        0.000000        1.971920         3    ;  uncertainty k = 0.194533
        17         6         8        30     9      180.000000        1.243143         4    ;  uncertainty k = 0.372905
        17        13        14        34     9        0.000000        3.973450         1    ;  uncertainty k = 3.191441
        17        13        14        34     9      180.000000        7.103297         2    ;  uncertainty k = 1.572171
        17        13        14        34     9        0.000000        1.142458         3    ;  uncertainty k = 0.382259
        17        13        14        34     9      180.000000        0.009095         4    ;  uncertainty k = 0.300331
        17        16        15        35     9        0.000000        0.139746         1    ;  uncertainty k = 0.331292
        17        16        15        35     9      180.000000       12.569985         2    ;  uncertainty k = 0.260347
        17        16        15        35     9        0.000000        1.837739         3    ;  uncertainty k = 0.073567
        17        16        15        35     9      180.000000        0.853982         4    ;  uncertainty k = 0.157616
        18         6         8        30     9        0.000000       -0.249194         1    ;  uncertainty k = 0.242327
        18         6         8        30     9      180.000000       10.897928         2    ;  uncertainty k = 0.297277
        18         6         8        30     9        0.000000        1.583198         3    ;  uncertainty k = 0.195117
        18         6         8        30     9      180.000000        1.211799         4    ;  uncertainty k = 0.241116
        18         7         4        27     9        0.000000        0.082724         1    ;  uncertainty k = 0.097331
        18         7         4        27     9      180.000000        7.489626         2    ;  uncertainty k = 0.381507
        18         7         4        27     9        0.000000        1.347357         3    ;  uncertainty k = 0.199341
        18         7         4        27     9      180.000000        1.858447         4    ;  uncertainty k = 0.111468
        19         1         4        27     9        0.000000       -0.062969         1    ;  uncertainty k = 0.239654
        19         1         4        27     9      180.000000        7.804315         2    ;  uncertainty k = 0.299950
        19         1         4        27     9        0.000000        1.327722         3    ;  uncertainty k = 0.183218
        19         1         4        27     9      180.000000        1.797878         4    ;  uncertainty k = 0.215044
        19         2        21        22     9        0.000000        6.282720         1    ;  uncertainty k = 0.802004
        19         2        21        22     9      180.000000        6.340806         2    ;  uncertainty k = 0.348043
        19         2        21        22     9        0.000000        0.332740         3    ;  uncertainty k = 0.444046
        19         2        21        22     9      180.000000       -0.006012         4    ;  uncertainty k = 0.162785
        20         2        21        22     9        0.000000        4.553612         1    ;  uncertainty k = 1.061984
        20         2        21        22     9      180.000000       14.829660         2    ;  uncertainty k = 0.163869
        20         2        21        22     9        0.000000        0.403200         3    ;  uncertainty k = 0.315053
        20         2        21        22     9      180.000000       -0.277135         4    ;  uncertainty k = 0.228505
        22        21         3        24     9        0.000000       -0.705221         1    ;  uncertainty k = 0.364395
        22        21         3        24     9      180.000000       -1.189189         2    ;  uncertainty k = 0.226350
        22        21         3        24     9        0.000000        1.357957         3    ;  uncertainty k = 0.055767
        22        21         3        24     9      180.000000        0.153889         4    ;  uncertainty k = 0.040275
        22        21         3        25     9        0.000000       -0.705221         1    ;  uncertainty k = 0.364395
        22        21         3        25     9      180.000000       -1.189189         2    ;  uncertainty k = 0.226350
        22        21         3        25     9        0.000000        1.357957         3    ;  uncertainty k = 0.055767
        22        21         3        25     9      180.000000        0.153889         4    ;  uncertainty k = 0.040275
        22        21         3        26     9        0.000000       -0.705221         1    ;  uncertainty k = 0.364395
        22        21         3        26     9      180.000000       -1.189189         2    ;  uncertainty k = 0.226350
        22        21         3        26     9        0.000000        1.357957         3    ;  uncertainty k = 0.055767
        22        21         3        26     9      180.000000        0.153889         4    ;  uncertainty k = 0.040275
        23         1         4        27     9        0.000000       -0.172915         1    ;  uncertainty k = 0.282059
        23         1         4        27     9      180.000000        7.808711         2    ;  uncertainty k = 0.367898
        23         1         4        27     9        0.000000       -0.388379         3    ;  uncertainty k = 0.220535
        23         1         4        27     9      180.000000        0.134717         4    ;  uncertainty k = 0.122160
        27         4         7        29     9        0.000000       -0.166561         1    ;  uncertainty k = 0.119842
        27         4         7        29     9      180.000000        7.933617         2    ;  uncertainty k = 0.280847
        27         4         7        29     9        0.000000       -0.483142         3    ;  uncertainty k = 0.260612
        27         4         7        29     9      180.000000        0.115646         4    ;  uncertainty k = 0.142176
        34        14        15        35     9        0.000000       -0.321082         1    ;  uncertainty k = 1.032453
        34        14        15        35     9      180.000000        1.939240         2    ;  uncertainty k = 0.369095
        34        14        15        35     9        0.000000        1.097248         3    ;  uncertainty k = 0.356461
        34        14        15        35     9      180.000000        0.095305         4    ;  uncertainty k = 0.136884
        35        15        16        36     9        0.000000       -0.037736         1    ;  uncertainty k = 0.492712
        35        15        16        36     9      180.000000        5.853962         2    ;  uncertainty k = 0.726772
        35        15        16        36     9        0.000000        1.193179         3    ;  uncertainty k = 0.391011
        35        15        16        36     9      180.000000        0.332928         4    ;  uncertainty k = 0.074316

[ dihedrals ] ; impropers
;       ai        aj        ak        al funct           phase               k        pn
         1         4        19        23     4      180.000000        4.150333         2    ;  uncertainty k = 0.141673
         1        19        23         4     4      180.000000        4.150333         2    ;  uncertainty k = 0.141673
         1        23         4        19     4      180.000000        4.150333         2    ;  uncertainty k = 0.141673
         2        19        20        21     4      180.000000       50.810782         2    ;  uncertainty k = 0.036615
         2        20        21        19     4      180.000000       50.810782         2    ;  uncertainty k = 0.036615
         2        21        19        20     4      180.000000       50.810782         2    ;  uncertainty k = 0.036615
         4         1         7        27     4      180.000000        3.712220         2    ;  uncertainty k = 0.086897
         4         7        27         1     4      180.000000        3.712220         2    ;  uncertainty k = 0.086897
         4        27         1         7     4      180.000000        3.712220         2    ;  uncertainty k = 0.086897
         5        18        19        28     4      180.000000        4.319222         2    ;  uncertainty k = 0.182276
         5        19        28        18     4      180.000000        4.319222         2    ;  uncertainty k = 0.182276
         5        28        18        19     4      180.000000        4.319222         2    ;  uncertainty k = 0.182276
         6         8        17        18     4      180.000000        8.626378         2    ;  uncertainty k = 0.255572
         6        17        18         8     4      180.000000        8.626378         2    ;  uncertainty k = 0.255572
         6        18         8        17     4      180.000000        8.626378         2    ;  uncertainty k = 0.255572
         7         4        18        29     4      180.000000        4.110860         2    ;  uncertainty k = 0.132904
         7        18        29         4     4      180.000000        4.110860         2    ;  uncertainty k = 0.132904
         7        29         4        18     4      180.000000        4.110860         2    ;  uncertainty k = 0.132904
         8         6        12        30     4      180.000000        5.996976         2    ;  uncertainty k = 0.272527
         8        12        30         6     4      180.000000        5.996976         2    ;  uncertainty k = 0.272527
         8        30         6        12     4      180.000000        5.996976         2    ;  uncertainty k = 0.272527
        11        10        12        13     4      180.000000       45.467929         2    ;  uncertainty k = 0.056629
        11        12        13        10     4      180.000000       45.467929         2    ;  uncertainty k = 0.056629
        11        13        10        12     4      180.000000       45.467929         2    ;  uncertainty k = 0.056629
        12         8         9        11     4      180.000000        2.187299         2    ;  uncertainty k = 0.723956
        12         9        11         8     4      180.000000        2.187299         2    ;  uncertainty k = 0.723956
        12        11         8         9     4      180.000000        2.187299         2    ;  uncertainty k = 0.723956
        13        11        14        17     4      180.000000        0.177945         2    ;  uncertainty k = 0.397897
        13        14        17        11     4      180.000000        0.177945         2    ;  uncertainty k = 0.397897
        13        17        11        14     4      180.000000        0.177945         2    ;  uncertainty k = 0.397897
        15        14        16        35     4      180.000000        1.479201         2    ;  uncertainty k = 0.580042
        15        16        35        14     4      180.000000        1.479201         2    ;  uncertainty k = 0.580042
        15        35        14        16     4      180.000000        1.479201         2    ;  uncertainty k = 0.580042
        17         6        13        16     4      180.000000        1.452794         2    ;  uncertainty k = 1.006285
        17        13        16         6     4      180.000000        1.452794         2    ;  uncertainty k = 1.006285
        17        16         6        13     4      180.000000        1.452794         2    ;  uncertainty k = 1.006285
        18         5         6         7     4      180.000000       15.038971         2    ;  uncertainty k = 0.031236
        18         6         7         5     4      180.000000       15.038971         2    ;  uncertainty k = 0.031236
        18         7         5         6     4      180.000000       15.038971         2    ;  uncertainty k = 0.031236
        19         1         2         5     4      180.000000        9.566047         2    ;  uncertainty k = 0.195608
        19         2         5         1     4      180.000000        9.566047         2    ;  uncertainty k = 0.195608
        19         5         1         2     4      180.000000        9.566047         2    ;  uncertainty k = 0.195608

[ pairs ]
;       ai        aj funct
         1        18     1
         1        20     1
         1        21     1
         1        28     1
         1        29     1
         2         4     1
         2        18     1
         2        23     1
         2        24     1
         2        25     1
         2        26     1
         2        28     1
         2        37     1
         2        38     1
         2        39     1
         3        19     1
         3        20     1
         3        37     1
         3        38     1
         3        39     1
         4         5     1
         4         6     1
         5         8     1
         5        17     1
         5        20     1
         5        21     1
         5        23     1
         5        29     1
         6         9     1
         6        11     1
         6        14     1
         6        15     1
         6        19     1
         6        28     1
         6        29     1
         6        36     1
         7         8     1
         7        17     1
         7        19     1
         7        23     1
         7        28     1
         8        10     1
         8        13     1
         8        16     1
         8        31     1
         8        32     1
         8        33     1
         9        10     1
         9        13     1
         9        30     1
        10        14     1
        10        17     1
        11        15     1
        11        16     1
        11        30     1
        11        31     1
        11        32     1
        11        33     1
        11        34     1
        12        14     1
        12        17     1
        12        18     1
        13        18     1
        13        35     1
        13        36     1
        14        36     1
        16        18     1
        16        34     1
        17        30     1
        17        34     1
        17        35     1
        18        27     1
        18        30     1
        19        22     1
        19        27     1
        20        22     1
        22        24     1
        22        25     1
        22        26     1
        23        27     1
        27        29     1
        34        35     1
        35        36     1
