; ITP file created by ByteFF-joint-25, 2025-07-14 11:31:38.687046

[ atomtypes ]
;name           bonded.type        at.num        mass        charge   ptype           sigma         epsilon
 c0bf                                   6      0.0000       0.00000       A     3.31506e-01     4.13155e-01    ;  uncertainty sigma = 0.000007, epsilon = 0.000889
 c1bf                                   6      0.0000       0.00000       A     3.31509e-01     4.13390e-01    ;  uncertainty sigma = 0.000009, epsilon = 0.000607
 c2bf                                   6      0.0000       0.00000       A     3.31521e-01     4.13701e-01    ;  uncertainty sigma = 0.000004, epsilon = 0.000875
 c3bf                                   6      0.0000       0.00000       A     3.31471e-01     4.12729e-01    ;  uncertainty sigma = 0.000008, epsilon = 0.001275
 o4bf                                   8      0.0000       0.00000       A     3.15601e-01     3.03854e-01    ;  uncertainty sigma = 0.000054, epsilon = 0.001687
 c5bf                                   6      0.0000       0.00000       A     3.39806e-01     4.50607e-01    ;  uncertainty sigma = 0.000040, epsilon = 0.001845
 c6bf                                   6      0.0000       0.00000       A     3.39882e-01     4.49700e-01    ;  uncertainty sigma = 0.000050, epsilon = 0.004460
 n7bf                                   7      0.0000       0.00000       A     3.27794e-01     6.45463e-01    ;  uncertainty sigma = 0.000114, epsilon = 0.012172
 c8bf                                   6      0.0000       0.00000       A     3.31488e-01     4.14442e-01    ;  uncertainty sigma = 0.000019, epsilon = 0.001752
 n9bf                                   7      0.0000       0.00000       A     3.36538e-01     4.70713e-01    ;  uncertainty sigma = 0.000066, epsilon = 0.005914
 c10bf                                  6      0.0000       0.00000       A     3.39788e-01     4.50912e-01    ;  uncertainty sigma = 0.000015, epsilon = 0.002115
 c11bf                                  6      0.0000       0.00000       A     3.39907e-01     4.52103e-01    ;  uncertainty sigma = 0.000043, epsilon = 0.002263
 c12bf                                  6      0.0000       0.00000       A     3.39764e-01     4.51433e-01    ;  uncertainty sigma = 0.000038, epsilon = 0.001538
 f13bf                                  9      0.0000       0.00000       A     3.03433e-01     3.48520e-01    ;  uncertainty sigma = 0.000026, epsilon = 0.000578
 f14bf                                  9      0.0000       0.00000       A     3.03433e-01     3.48520e-01    ;  uncertainty sigma = 0.000026, epsilon = 0.000578
 f15bf                                  9      0.0000       0.00000       A     3.03433e-01     3.48520e-01    ;  uncertainty sigma = 0.000026, epsilon = 0.000578
 c16bf                                  6      0.0000       0.00000       A     3.31551e-01     4.13489e-01    ;  uncertainty sigma = 0.000022, epsilon = 0.001530
 c17bf                                  6      0.0000       0.00000       A     3.31499e-01     4.13466e-01    ;  uncertainty sigma = 0.000013, epsilon = 0.000774
 h18bf                                  1      0.0000       0.00000       A     2.62564e-01     6.71258e-02    ;  uncertainty sigma = 0.000011, epsilon = 0.000520
 h19bf                                  1      0.0000       0.00000       A     2.62554e-01     6.69585e-02    ;  uncertainty sigma = 0.000008, epsilon = 0.000568
 h20bf                                  1      0.0000       0.00000       A     2.42326e-01     8.69324e-02    ;  uncertainty sigma = 0.000099, epsilon = 0.001171
 h21bf                                  1      0.0000       0.00000       A     2.42326e-01     8.69324e-02    ;  uncertainty sigma = 0.000099, epsilon = 0.001171
 h22bf                                  1      0.0000       0.00000       A     1.10660e-01     4.19617e-02    ;  uncertainty sigma = 0.000134, epsilon = 0.001120
 h23bf                                  1      0.0000       0.00000       A     1.10660e-01     4.19617e-02    ;  uncertainty sigma = 0.000134, epsilon = 0.001120
 h24bf                                  1      0.0000       0.00000       A     2.60047e-01     8.67817e-02    ;  uncertainty sigma = 0.000024, epsilon = 0.001129
 h25bf                                  1      0.0000       0.00000       A     2.60047e-01     8.67817e-02    ;  uncertainty sigma = 0.000024, epsilon = 0.001129
 h26bf                                  1      0.0000       0.00000       A     2.60239e-01     8.53301e-02    ;  uncertainty sigma = 0.000159, epsilon = 0.002446
 h27bf                                  1      0.0000       0.00000       A     2.62589e-01     6.72812e-02    ;  uncertainty sigma = 0.000025, epsilon = 0.000703
 c28bf                                  6      0.0000       0.00000       A     3.31536e-01     4.12891e-01    ;  uncertainty sigma = 0.000007, epsilon = 0.001154
 n29bf                                  7      0.0000       0.00000       A     3.38423e-01     3.93494e-01    ;  uncertainty sigma = 0.000011, epsilon = 0.001079
 c30bf                                  6      0.0000       0.00000       A     3.31518e-01     4.13057e-01    ;  uncertainty sigma = 0.000006, epsilon = 0.000552
 c31bf                                  6      0.0000       0.00000       A     3.31496e-01     4.12964e-01    ;  uncertainty sigma = 0.000011, epsilon = 0.001184
 c32bf                                  6      0.0000       0.00000       A     3.31518e-01     4.13057e-01    ;  uncertainty sigma = 0.000006, epsilon = 0.000552
 n33bf                                  7      0.0000       0.00000       A     3.38423e-01     3.93494e-01    ;  uncertainty sigma = 0.000011, epsilon = 0.001079
 h34bf                                  1      0.0000       0.00000       A     2.44767e-01     6.73272e-02    ;  uncertainty sigma = 0.000010, epsilon = 0.000500
 h35bf                                  1      0.0000       0.00000       A     2.53671e-01     6.68281e-02    ;  uncertainty sigma = 0.000032, epsilon = 0.000613
 h36bf                                  1      0.0000       0.00000       A     2.53671e-01     6.68278e-02    ;  uncertainty sigma = 0.000032, epsilon = 0.000613
 h37bf                                  1      0.0000       0.00000       A     1.10782e-01     4.29104e-02    ;  uncertainty sigma = 0.000068, epsilon = 0.001720

[ moleculetype ]
;name             nrexcl
 MOL                   3

[ atoms ]
;       nr            type      resi   res      atom      cgnr      charge          mass ; qtot
         1            c0bf         1   UNL        c0         1    -0.05006       12.0110 ; qtot   -0.050
         2            c1bf         1   UNL        c1         2    -0.06226       12.0110 ; qtot   -0.112
         3            c2bf         1   UNL        c2         3    -0.13782       12.0110 ; qtot   -0.250
         4            c3bf         1   UNL        c3         4     0.14724       12.0110 ; qtot   -0.103
         5            o4bf         1   UNL        o4         5    -0.28867       15.9990 ; qtot   -0.392
         6            c5bf         1   UNL        c5         6     0.11656       12.0110 ; qtot   -0.275
         7            c6bf         1   UNL        c6         7     0.09605       12.0110 ; qtot   -0.179
         8            n7bf         1   UNL        n7         8    -0.33373       14.0070 ; qtot   -0.513
         9            c8bf         1   UNL        c8         9     0.43598       12.0110 ; qtot   -0.077
        10            n9bf         1   UNL        n9        10    -0.45909       14.0070 ; qtot   -0.536
        11           c10bf         1   UNL       c10        11    -0.12741       12.0110 ; qtot   -0.663
        12           c11bf         1   UNL       c11        12    -0.14664       12.0110 ; qtot   -0.810
        13           c12bf         1   UNL       c12        13     0.67129       12.0110 ; qtot   -0.139
        14           f13bf         1   UNL       f13        14    -0.21257       18.9980 ; qtot   -0.351
        15           f14bf         1   UNL       f14        15    -0.21257       18.9980 ; qtot   -0.564
        16           f15bf         1   UNL       f15        16    -0.21257       18.9980 ; qtot   -0.776
        17           c16bf         1   UNL       c16        17    -0.21630       12.0110 ; qtot   -0.993
        18           c17bf         1   UNL       c17        18    -0.03342       12.0110 ; qtot   -1.026
        19           h18bf         1   UNL       h18        19     0.14023        1.0080 ; qtot   -0.886
        20           h19bf         1   UNL       h19        20     0.15705        1.0080 ; qtot   -0.729
        21           h20bf         1   UNL       h20        21     0.09267        1.0080 ; qtot   -0.636
        22           h21bf         1   UNL       h21        22     0.09267        1.0080 ; qtot   -0.543
        23           h22bf         1   UNL       h22        23     0.33581        1.0080 ; qtot   -0.208
        24           h23bf         1   UNL       h23        24     0.33581        1.0080 ; qtot    0.128
        25           h24bf         1   UNL       h24        25     0.13278        1.0080 ; qtot    0.261
        26           h25bf         1   UNL       h25        26     0.13278        1.0080 ; qtot    0.394
        27           h26bf         1   UNL       h26        27     0.13093        1.0080 ; qtot    0.525
        28           h27bf         1   UNL       h27        28     0.15157        1.0080 ; qtot    0.676
        29           c28bf         1   UNL       c28        29     0.63499       12.0110 ; qtot    1.311
        30           n29bf         1   UNL       n29        30    -0.69119       14.0070 ; qtot    0.620
        31           c30bf         1   UNL       c30        31     0.43878       12.0110 ; qtot    1.059
        32           c31bf         1   UNL       c31        32    -0.26994       12.0110 ; qtot    0.789
        33           c32bf         1   UNL       c32        33     0.43878       12.0110 ; qtot    1.228
        34           n33bf         1   UNL       n33        34    -0.69119       14.0070 ; qtot    0.537
        35           h34bf         1   UNL       h34        35     0.05484        1.0080 ; qtot    0.591
        36           h35bf         1   UNL       h35        36     0.03081        1.0080 ; qtot    0.622
        37           h36bf         1   UNL       h36        37     0.03081        1.0080 ; qtot    0.653
        38           h37bf         1   UNL       h37        38     0.34700        1.0080 ; qtot    1.000

[ bonds ]
;       ai        aj funct               r               k
         1         2     1        0.140670   339675.910205    ;  uncertainty r = 0.000059, k = 4.159336
         1        18     1        0.140293   339153.855078    ;  uncertainty r = 0.000135, k = 6.742392
         1        32     1        0.147438   274587.794092    ;  uncertainty r = 0.000086, k = 8.748971
         2         3     1        0.139489   370418.376270    ;  uncertainty r = 0.000065, k = 1.675771
         2        19     1        0.108753   334731.415088    ;  uncertainty r = 0.000024, k = 1.414210
         3         4     1        0.139024   367202.232715    ;  uncertainty r = 0.000070, k = 8.979848
         3        20     1        0.108822   336902.503516    ;  uncertainty r = 0.000021, k = 1.817738
         4         5     1        0.137509   343700.686328    ;  uncertainty r = 0.000179, k = 19.116434
         4        17     1        0.139333   351773.605029    ;  uncertainty r = 0.000213, k = 17.109522
         5         6     1        0.144012   215686.681152    ;  uncertainty r = 0.000106, k = 2.989013
         6         7     1        0.155319   193128.577734    ;  uncertainty r = 0.000237, k = 19.986155
         6        21     1        0.109327   310289.107129    ;  uncertainty r = 0.000068, k = 4.450517
         6        22     1        0.109327   310289.107129    ;  uncertainty r = 0.000068, k = 4.450517
         7         8     1        0.149238   248163.423389    ;  uncertainty r = 0.000294, k = 40.887908
         7        12     1        0.155238   176558.952002    ;  uncertainty r = 0.000286, k = 21.473646
         7        17     1        0.150620   246418.319482    ;  uncertainty r = 0.000286, k = 16.949541
         8         9     1        0.131533   554108.898047    ;  uncertainty r = 0.000318, k = 21.274791
         8        38     1        0.101696   420138.643018    ;  uncertainty r = 0.000100, k = 16.373031
         9        10     1        0.132738   290574.279932    ;  uncertainty r = 0.000241, k = 31.208321
         9        11     1        0.150433   235965.035742    ;  uncertainty r = 0.000166, k = 16.389584
        10        23     1        0.101487   418300.711719    ;  uncertainty r = 0.000059, k = 13.320181
        10        24     1        0.101487   418300.711719    ;  uncertainty r = 0.000059, k = 13.320181
        11        12     1        0.154112   199608.874609    ;  uncertainty r = 0.000169, k = 22.900523
        11        25     1        0.109402   313314.105420    ;  uncertainty r = 0.000078, k = 2.924089
        11        26     1        0.109402   313314.105420    ;  uncertainty r = 0.000078, k = 2.924089
        12        13     1        0.151683   201697.171729    ;  uncertainty r = 0.000428, k = 17.355847
        12        27     1        0.109312   310751.430957    ;  uncertainty r = 0.000074, k = 5.309695
        13        14     1        0.135045   285925.325781    ;  uncertainty r = 0.000152, k = 10.444849
        13        15     1        0.135045   285925.325781    ;  uncertainty r = 0.000152, k = 10.444849
        13        16     1        0.135045   285925.325781    ;  uncertainty r = 0.000152, k = 10.444849
        17        18     1        0.138696   362844.069629    ;  uncertainty r = 0.000045, k = 6.455343
        18        28     1        0.108817   334334.925928    ;  uncertainty r = 0.000014, k = 1.752729
        29        30     1        0.134095   393877.020313    ;  uncertainty r = 0.000023, k = 7.302799
        29        34     1        0.134095   393877.020313    ;  uncertainty r = 0.000023, k = 7.302799
        29        35     1        0.108844   338489.685938    ;  uncertainty r = 0.000017, k = 3.590476
        30        31     1        0.133716   408974.712598    ;  uncertainty r = 0.000023, k = 8.291297
        31        32     1        0.140409   374459.955811    ;  uncertainty r = 0.000036, k = 8.486236
        31        36     1        0.108999   332213.021973    ;  uncertainty r = 0.000029, k = 2.087593
        32        33     1        0.140409   374459.955811    ;  uncertainty r = 0.000036, k = 8.486236
        33        34     1        0.133716   408974.712598    ;  uncertainty r = 0.000023, k = 8.291297
        33        37     1        0.108999   332213.021973    ;  uncertainty r = 0.000029, k = 2.087577

[ angles ]
;       ai        aj        ak funct           theta             cth
         1         2         3     1      123.374367      531.270640    ;  uncertainty theta = 0.003585, k = 0.041394
         1         2        19     1      117.999649      279.180745    ;  uncertainty theta = 0.001606, k = 0.081860
         1        18        17     1      120.049843      508.982170    ;  uncertainty theta = 0.005547, k = 0.215338
         1        18        28     1      119.332909      278.672716    ;  uncertainty theta = 0.003632, k = 0.115368
         1        32        31     1      122.288834      391.969315    ;  uncertainty theta = 0.004528, k = 0.100247
         1        32        33     1      122.288834      391.969315    ;  uncertainty theta = 0.004528, k = 0.100247
         2         1        18     1      121.382736      434.156811    ;  uncertainty theta = 0.004032, k = 0.100504
         2         1        32     1      120.469254      418.001398    ;  uncertainty theta = 0.002854, k = 0.195317
         2         3         4     1      116.340637      516.487175    ;  uncertainty theta = 0.002053, k = 0.116416
         2         3        20     1      121.643166      281.846947    ;  uncertainty theta = 0.001155, k = 0.071379
         3         2        19     1      119.494423      291.889862    ;  uncertainty theta = 0.002337, k = 0.031907
         3         4         5     1      124.924881      488.618687    ;  uncertainty theta = 0.002028, k = 0.117801
         3         4        17     1      119.934898      366.401817    ;  uncertainty theta = 0.003286, k = 0.084968
         4         3        20     1      121.797279      286.626217    ;  uncertainty theta = 0.003142, k = 0.193852
         4         5         6     1      109.833389      733.974191    ;  uncertainty theta = 0.006277, k = 0.251566
         4        17         7     1      110.256615      602.612130    ;  uncertainty theta = 0.008372, k = 0.148469
         4        17        18     1      119.594070      399.914548    ;  uncertainty theta = 0.004102, k = 0.280714
         5         4        17     1      115.587479      688.401942    ;  uncertainty theta = 0.005585, k = 0.321760
         5         6         7     1      108.290939      799.024806    ;  uncertainty theta = 0.008649, k = 0.134007
         5         6        21     1      107.634384      492.465789    ;  uncertainty theta = 0.004233, k = 0.101716
         5         6        22     1      107.634384      492.465789    ;  uncertainty theta = 0.004233, k = 0.101716
         6         7         8     1      110.412369      668.683208    ;  uncertainty theta = 0.009979, k = 0.524178
         6         7        12     1      111.489014      511.552799    ;  uncertainty theta = 0.010562, k = 0.300596
         6         7        17     1      104.297585      541.627534    ;  uncertainty theta = 0.013019, k = 0.226919
         7         6        21     1      109.334763      390.289516    ;  uncertainty theta = 0.003095, k = 0.085246
         7         6        22     1      109.334763      390.289516    ;  uncertainty theta = 0.003095, k = 0.085246
         7         8         9     1      113.904442      621.533085    ;  uncertainty theta = 0.010771, k = 0.336518
         7         8        38     1      117.626488      279.688870    ;  uncertainty theta = 0.014831, k = 0.214756
         7        12        11     1      107.458046      679.448249    ;  uncertainty theta = 0.004545, k = 0.222828
         7        12        13     1      108.382858      500.438155    ;  uncertainty theta = 0.005346, k = 0.125298
         7        12        27     1      107.466652      386.605022    ;  uncertainty theta = 0.007218, k = 0.107254
         7        17        18     1      126.947830      372.449196    ;  uncertainty theta = 0.004029, k = 0.129194
         8         7        12     1      104.663368      626.969936    ;  uncertainty theta = 0.003811, k = 0.435925
         8         7        17     1      112.157005      630.090315    ;  uncertainty theta = 0.014279, k = 0.538860
         8         9        10     1      127.264977      700.507617    ;  uncertainty theta = 0.010047, k = 0.449642
         8         9        11     1      113.992188      590.265193    ;  uncertainty theta = 0.013347, k = 0.205088
         9         8        38     1      119.805786      332.736948    ;  uncertainty theta = 0.014389, k = 0.066564
         9        10        23     1      114.784744      366.422981    ;  uncertainty theta = 0.008184, k = 0.362672
         9        10        24     1      114.784744      366.422981    ;  uncertainty theta = 0.008184, k = 0.362672
         9        11        12     1      105.264221      716.346435    ;  uncertainty theta = 0.005817, k = 0.169748
         9        11        25     1      109.041626      381.009522    ;  uncertainty theta = 0.004480, k = 0.162059
         9        11        26     1      109.041626      381.009522    ;  uncertainty theta = 0.004480, k = 0.162059
        10         9        11     1      125.571922      438.913960    ;  uncertainty theta = 0.013820, k = 0.237812
        11        12        13     1      107.037880      508.892790    ;  uncertainty theta = 0.010727, k = 0.149732
        11        12        27     1      108.736107      399.315192    ;  uncertainty theta = 0.004788, k = 0.123631
        12         7        17     1      113.246193      523.127590    ;  uncertainty theta = 0.007890, k = 0.517895
        12        11        25     1      108.692787      375.537686    ;  uncertainty theta = 0.003299, k = 0.147589
        12        11        26     1      108.692787      375.537686    ;  uncertainty theta = 0.003299, k = 0.147589
        12        13        14     1      111.812241      595.089025    ;  uncertainty theta = 0.006407, k = 0.238063
        12        13        15     1      111.812241      595.089025    ;  uncertainty theta = 0.006407, k = 0.238063
        12        13        16     1      111.812241      595.089025    ;  uncertainty theta = 0.006407, k = 0.238063
        13        12        27     1      105.628067      408.465969    ;  uncertainty theta = 0.006757, k = 0.130342
        14        13        15     1      109.127151      808.571279    ;  uncertainty theta = 0.003719, k = 0.057240
        14        13        16     1      109.127151      808.571279    ;  uncertainty theta = 0.003719, k = 0.057240
        15        13        16     1      109.127151      808.571279    ;  uncertainty theta = 0.003719, k = 0.057240
        17        18        28     1      119.793762      283.515861    ;  uncertainty theta = 0.005302, k = 0.076755
        18         1        32     1      120.484421      412.072862    ;  uncertainty theta = 0.002095, k = 0.092750
        21         6        22     1      108.913330      325.725255    ;  uncertainty theta = 0.002097, k = 0.184465
        23        10        24     1      112.138748      267.152942    ;  uncertainty theta = 0.014743, k = 0.191618
        25        11        26     1      106.635033      299.150956    ;  uncertainty theta = 0.004150, k = 0.151740
        29        30        31     1      114.471008      379.196292    ;  uncertainty theta = 0.005379, k = 0.112623
        29        34        33     1      114.471008      379.196292    ;  uncertainty theta = 0.005379, k = 0.112623
        30        29        34     1      126.965683      902.142121    ;  uncertainty theta = 0.001350, k = 0.151041
        30        29        35     1      116.277603      311.354630    ;  uncertainty theta = 0.005242, k = 0.080846
        30        31        32     1      122.573997      722.921474    ;  uncertainty theta = 0.002834, k = 0.105670
        30        31        36     1      116.955284      341.878722    ;  uncertainty theta = 0.002731, k = 0.098523
        31        32        33     1      117.061295      361.469196    ;  uncertainty theta = 0.004605, k = 0.362790
        32        31        36     1      119.663620      264.879996    ;  uncertainty theta = 0.003766, k = 0.070433
        32        33        34     1      122.573997      722.921474    ;  uncertainty theta = 0.002834, k = 0.105670
        32        33        37     1      119.663620      264.879996    ;  uncertainty theta = 0.003766, k = 0.070433
        34        29        35     1      116.277603      311.354630    ;  uncertainty theta = 0.005242, k = 0.080846
        34        33        37     1      116.955284      341.878722    ;  uncertainty theta = 0.002731, k = 0.098523

[ dihedrals ] ; propers for gromacs 4.5 or higher, use funct 9
;       ai        aj        ak        al funct           phase               k        pn
         1         2         3         4     9        0.000000        0.030216         1    ;  uncertainty k = 0.289394
         1         2         3         4     9      180.000000       14.496731         2    ;  uncertainty k = 0.360791
         1         2         3         4     9        0.000000       -0.487945         3    ;  uncertainty k = 0.546901
         1         2         3         4     9      180.000000        0.832809         4    ;  uncertainty k = 0.398283
         1         2         3        20     9        0.000000        0.191450         1    ;  uncertainty k = 0.204961
         1         2         3        20     9      180.000000        8.083448         2    ;  uncertainty k = 0.345065
         1         2         3        20     9        0.000000        1.482613         3    ;  uncertainty k = 0.230791
         1         2         3        20     9      180.000000        1.879729         4    ;  uncertainty k = 0.192624
         1        18        17         4     9        0.000000       -0.018278         1    ;  uncertainty k = 0.524567
         1        18        17         4     9      180.000000       14.939718         2    ;  uncertainty k = 0.315064
         1        18        17         4     9        0.000000       -1.498865         3    ;  uncertainty k = 0.727379
         1        18        17         4     9      180.000000        0.534838         4    ;  uncertainty k = 0.656825
         1        18        17         7     9        0.000000        0.412974         1    ;  uncertainty k = 0.369794
         1        18        17         7     9      180.000000        7.761336         2    ;  uncertainty k = 0.721785
         1        18        17         7     9        0.000000        1.485989         3    ;  uncertainty k = 0.185253
         1        18        17         7     9      180.000000        1.864689         4    ;  uncertainty k = 0.271730
         1        32        31        30     9        0.000000        0.223297         1    ;  uncertainty k = 0.211084
         1        32        31        30     9      180.000000        9.898431         2    ;  uncertainty k = 0.380457
         1        32        31        30     9        0.000000        1.033483         3    ;  uncertainty k = 0.281310
         1        32        31        30     9      180.000000        1.682295         4    ;  uncertainty k = 0.243983
         1        32        31        36     9        0.000000       -0.485458         1    ;  uncertainty k = 0.777927
         1        32        31        36     9      180.000000        6.209058         2    ;  uncertainty k = 0.743961
         1        32        31        36     9        0.000000        0.833359         3    ;  uncertainty k = 0.155968
         1        32        31        36     9      180.000000        1.133312         4    ;  uncertainty k = 0.227570
         1        32        33        34     9        0.000000        0.223297         1    ;  uncertainty k = 0.211084
         1        32        33        34     9      180.000000        9.898431         2    ;  uncertainty k = 0.380457
         1        32        33        34     9        0.000000        1.033483         3    ;  uncertainty k = 0.281310
         1        32        33        34     9      180.000000        1.682295         4    ;  uncertainty k = 0.243983
         1        32        33        37     9        0.000000       -0.485458         1    ;  uncertainty k = 0.777927
         1        32        33        37     9      180.000000        6.209058         2    ;  uncertainty k = 0.743961
         1        32        33        37     9        0.000000        0.833359         3    ;  uncertainty k = 0.155968
         1        32        33        37     9      180.000000        1.133312         4    ;  uncertainty k = 0.227570
         2         1        18        17     9        0.000000        0.140251         1    ;  uncertainty k = 0.479381
         2         1        18        17     9      180.000000       11.005163         2    ;  uncertainty k = 0.303025
         2         1        18        17     9        0.000000       -0.092038         3    ;  uncertainty k = 0.587489
         2         1        18        17     9      180.000000        1.080896         4    ;  uncertainty k = 0.406996
         2         1        18        28     9        0.000000        0.061301         1    ;  uncertainty k = 0.253575
         2         1        18        28     9      180.000000        7.090603         2    ;  uncertainty k = 0.638856
         2         1        18        28     9        0.000000        1.385941         3    ;  uncertainty k = 0.214712
         2         1        18        28     9      180.000000        1.604272         4    ;  uncertainty k = 0.212045
         2         1        32        31     9        0.000000       -0.136879         1    ;  uncertainty k = 0.935388
         2         1        32        31     9      180.000000        3.263424         2    ;  uncertainty k = 0.203440
         2         1        32        31     9        0.000000        0.445883         3    ;  uncertainty k = 0.247210
         2         1        32        31     9      180.000000       -0.175969         4    ;  uncertainty k = 0.027907
         2         1        32        33     9        0.000000       -0.136879         1    ;  uncertainty k = 0.935388
         2         1        32        33     9      180.000000        3.263424         2    ;  uncertainty k = 0.203440
         2         1        32        33     9        0.000000        0.445883         3    ;  uncertainty k = 0.247210
         2         1        32        33     9      180.000000       -0.175969         4    ;  uncertainty k = 0.027907
         2         3         4         5     9        0.000000        0.269804         1    ;  uncertainty k = 0.177814
         2         3         4         5     9      180.000000       10.069704         2    ;  uncertainty k = 0.461611
         2         3         4         5     9        0.000000        1.507281         3    ;  uncertainty k = 0.267096
         2         3         4         5     9      180.000000        1.661586         4    ;  uncertainty k = 0.196047
         2         3         4        17     9        0.000000        0.231957         1    ;  uncertainty k = 0.173125
         2         3         4        17     9      180.000000       11.010176         2    ;  uncertainty k = 0.110983
         2         3         4        17     9        0.000000       -0.796862         3    ;  uncertainty k = 0.473418
         2         3         4        17     9      180.000000        1.040591         4    ;  uncertainty k = 0.343038
         3         2         1        18     9        0.000000       -0.088273         1    ;  uncertainty k = 0.106214
         3         2         1        18     9      180.000000       10.807383         2    ;  uncertainty k = 0.276895
         3         2         1        18     9        0.000000       -0.432634         3    ;  uncertainty k = 0.358495
         3         2         1        18     9      180.000000        0.941538         4    ;  uncertainty k = 0.231231
         3         2         1        32     9        0.000000       -0.095086         1    ;  uncertainty k = 0.222913
         3         2         1        32     9      180.000000        8.341512         2    ;  uncertainty k = 0.477731
         3         2         1        32     9        0.000000        1.165259         3    ;  uncertainty k = 0.357218
         3         2         1        32     9      180.000000        1.808961         4    ;  uncertainty k = 0.203289
         3         4         5         6     9        0.000000        1.152462         1    ;  uncertainty k = 1.585817
         3         4         5         6     9      180.000000        4.949628         2    ;  uncertainty k = 0.730076
         3         4         5         6     9        0.000000        1.115777         3    ;  uncertainty k = 0.347697
         3         4         5         6     9      180.000000        0.195478         4    ;  uncertainty k = 0.204438
         3         4        17         7     9        0.000000        0.911803         1    ;  uncertainty k = 0.564592
         3         4        17         7     9      180.000000        7.013077         2    ;  uncertainty k = 0.787807
         3         4        17         7     9        0.000000        0.730413         3    ;  uncertainty k = 0.298923
         3         4        17         7     9      180.000000        1.398512         4    ;  uncertainty k = 0.222633
         3         4        17        18     9        0.000000       -0.600752         1    ;  uncertainty k = 0.874962
         3         4        17        18     9      180.000000        7.957062         2    ;  uncertainty k = 0.389024
         3         4        17        18     9        0.000000       -0.351792         3    ;  uncertainty k = 0.201092
         3         4        17        18     9      180.000000        0.977309         4    ;  uncertainty k = 0.314279
         4         3         2        19     9        0.000000        0.204208         1    ;  uncertainty k = 0.179035
         4         3         2        19     9      180.000000        9.745474         2    ;  uncertainty k = 0.503589
         4         3         2        19     9        0.000000        1.244589         3    ;  uncertainty k = 0.319981
         4         3         2        19     9      180.000000        1.691085         4    ;  uncertainty k = 0.180373
         4         5         6         7     9        0.000000        1.176082         1    ;  uncertainty k = 2.254001
         4         5         6         7     9      180.000000        2.200468         2    ;  uncertainty k = 1.959275
         4         5         6         7     9        0.000000        0.377506         3    ;  uncertainty k = 0.199603
         4         5         6         7     9      180.000000       -0.735147         4    ;  uncertainty k = 0.150056
         4         5         6        21     9        0.000000       -1.328090         1    ;  uncertainty k = 0.917091
         4         5         6        21     9      180.000000       -0.651918         2    ;  uncertainty k = 0.292183
         4         5         6        21     9        0.000000        0.903425         3    ;  uncertainty k = 0.219575
         4         5         6        21     9      180.000000        0.315703         4    ;  uncertainty k = 0.187234
         4         5         6        22     9        0.000000       -1.328090         1    ;  uncertainty k = 0.917091
         4         5         6        22     9      180.000000       -0.651918         2    ;  uncertainty k = 0.292183
         4         5         6        22     9        0.000000        0.903425         3    ;  uncertainty k = 0.219575
         4         5         6        22     9      180.000000        0.315703         4    ;  uncertainty k = 0.187234
         4        17         7         6     9        0.000000       -0.959061         1    ;  uncertainty k = 2.671996
         4        17         7         6     9      180.000000        5.388477         2    ;  uncertainty k = 0.693798
         4        17         7         6     9        0.000000       -1.214646         3    ;  uncertainty k = 0.191276
         4        17         7         6     9      180.000000        1.164834         4    ;  uncertainty k = 0.354061
         4        17         7         8     9        0.000000       -1.680820         1    ;  uncertainty k = 1.968784
         4        17         7         8     9      180.000000        4.937914         2    ;  uncertainty k = 0.757981
         4        17         7         8     9        0.000000       -0.251266         3    ;  uncertainty k = 0.552638
         4        17         7         8     9      180.000000        0.696574         4    ;  uncertainty k = 0.165418
         4        17         7        12     9        0.000000       -0.229911         1    ;  uncertainty k = 2.608666
         4        17         7        12     9      180.000000        4.390771         2    ;  uncertainty k = 0.986315
         4        17         7        12     9        0.000000       -0.817209         3    ;  uncertainty k = 0.565763
         4        17         7        12     9      180.000000        0.943662         4    ;  uncertainty k = 0.243858
         4        17        18        28     9        0.000000        0.066192         1    ;  uncertainty k = 0.216645
         4        17        18        28     9      180.000000        8.530552         2    ;  uncertainty k = 0.738277
         4        17        18        28     9        0.000000        1.151261         3    ;  uncertainty k = 0.402136
         4        17        18        28     9      180.000000        1.590548         4    ;  uncertainty k = 0.219071
         5         4         3        20     9        0.000000       -0.089813         1    ;  uncertainty k = 0.608505
         5         4         3        20     9      180.000000        7.277219         2    ;  uncertainty k = 0.374441
         5         4         3        20     9        0.000000        0.812417         3    ;  uncertainty k = 0.429574
         5         4         3        20     9      180.000000        0.954123         4    ;  uncertainty k = 0.294525
         5         4        17         7     9        0.000000        0.524301         1    ;  uncertainty k = 1.268988
         5         4        17         7     9      180.000000       14.435207         2    ;  uncertainty k = 1.049313
         5         4        17         7     9        0.000000       -1.244748         3    ;  uncertainty k = 0.951827
         5         4        17         7     9      180.000000        1.148944         4    ;  uncertainty k = 0.434541
         5         4        17        18     9        0.000000       -0.188118         1    ;  uncertainty k = 0.312309
         5         4        17        18     9      180.000000        8.896485         2    ;  uncertainty k = 0.452587
         5         4        17        18     9        0.000000        0.230032         3    ;  uncertainty k = 0.292042
         5         4        17        18     9      180.000000        1.320186         4    ;  uncertainty k = 0.113389
         5         6         7         8     9        0.000000        2.871284         1    ;  uncertainty k = 2.149819
         5         6         7         8     9      180.000000       -1.533731         2    ;  uncertainty k = 0.870361
         5         6         7         8     9        0.000000        1.710723         3    ;  uncertainty k = 0.362780
         5         6         7         8     9      180.000000        0.002185         4    ;  uncertainty k = 0.251364
         5         6         7        12     9        0.000000        2.896665         1    ;  uncertainty k = 1.603272
         5         6         7        12     9      180.000000       -0.300345         2    ;  uncertainty k = 1.318280
         5         6         7        12     9        0.000000        1.339077         3    ;  uncertainty k = 0.812822
         5         6         7        12     9      180.000000        0.160649         4    ;  uncertainty k = 0.156091
         5         6         7        17     9        0.000000        0.723540         1    ;  uncertainty k = 1.831049
         5         6         7        17     9      180.000000        0.487930         2    ;  uncertainty k = 1.223138
         5         6         7        17     9        0.000000        1.726589         3    ;  uncertainty k = 0.220636
         5         6         7        17     9      180.000000        0.217790         4    ;  uncertainty k = 0.209170
         6         5         4        17     9        0.000000        0.025312         1    ;  uncertainty k = 1.036128
         6         5         4        17     9      180.000000        9.894148         2    ;  uncertainty k = 0.632805
         6         5         4        17     9        0.000000       -0.406036         3    ;  uncertainty k = 1.206785
         6         5         4        17     9      180.000000        0.267939         4    ;  uncertainty k = 0.292542
         6         7         8         9     9        0.000000       -1.711379         1    ;  uncertainty k = 1.193596
         6         7         8         9     9      180.000000        1.815883         2    ;  uncertainty k = 0.362315
         6         7         8         9     9        0.000000       -0.256869         3    ;  uncertainty k = 0.525786
         6         7         8         9     9      180.000000        0.281123         4    ;  uncertainty k = 0.140704
         6         7         8        38     9        0.000000        0.552998         1    ;  uncertainty k = 0.964473
         6         7         8        38     9      180.000000       -0.220526         2    ;  uncertainty k = 0.549672
         6         7         8        38     9        0.000000        0.482207         3    ;  uncertainty k = 0.244869
         6         7         8        38     9      180.000000        0.254775         4    ;  uncertainty k = 0.150035
         6         7        12        11     9        0.000000       -1.742972         1    ;  uncertainty k = 1.049641
         6         7        12        11     9      180.000000        0.290787         2    ;  uncertainty k = 0.431170
         6         7        12        11     9        0.000000        0.259070         3    ;  uncertainty k = 0.095799
         6         7        12        11     9      180.000000       -0.129613         4    ;  uncertainty k = 0.159968
         6         7        12        13     9        0.000000       -2.749955         1    ;  uncertainty k = 1.622536
         6         7        12        13     9      180.000000        0.018694         2    ;  uncertainty k = 0.529488
         6         7        12        13     9        0.000000        0.197309         3    ;  uncertainty k = 0.327199
         6         7        12        13     9      180.000000       -0.152029         4    ;  uncertainty k = 0.180296
         6         7        12        27     9        0.000000       -1.140495         1    ;  uncertainty k = 0.855635
         6         7        12        27     9      180.000000        0.245824         2    ;  uncertainty k = 0.336800
         6         7        12        27     9        0.000000        0.429575         3    ;  uncertainty k = 0.091076
         6         7        12        27     9      180.000000       -0.143918         4    ;  uncertainty k = 0.086149
         6         7        17        18     9        0.000000        0.285860         1    ;  uncertainty k = 0.582756
         6         7        17        18     9      180.000000        1.948960         2    ;  uncertainty k = 0.410281
         6         7        17        18     9        0.000000        0.198597         3    ;  uncertainty k = 0.215889
         6         7        17        18     9      180.000000        0.498939         4    ;  uncertainty k = 0.197118
         7         8         9        10     9        0.000000        1.995922         1    ;  uncertainty k = 1.650883
         7         8         9        10     9      180.000000       15.921893         2    ;  uncertainty k = 0.406608
         7         8         9        10     9        0.000000        0.067910         3    ;  uncertainty k = 0.492343
         7         8         9        10     9      180.000000       -0.443555         4    ;  uncertainty k = 0.308620
         7         8         9        11     9        0.000000        1.136276         1    ;  uncertainty k = 2.314670
         7         8         9        11     9      180.000000       16.202314         2    ;  uncertainty k = 0.690999
         7         8         9        11     9        0.000000        0.545622         3    ;  uncertainty k = 1.241279
         7         8         9        11     9      180.000000       -0.158888         4    ;  uncertainty k = 0.659732
         7        12        11         9     9        0.000000        0.086671         1    ;  uncertainty k = 2.401135
         7        12        11         9     9      180.000000        2.589060         2    ;  uncertainty k = 0.898404
         7        12        11         9     9        0.000000        0.007880         3    ;  uncertainty k = 0.355285
         7        12        11         9     9      180.000000       -0.150841         4    ;  uncertainty k = 0.411089
         7        12        11        25     9        0.000000        0.281111         1    ;  uncertainty k = 0.593397
         7        12        11        25     9      180.000000       -0.569363         2    ;  uncertainty k = 0.729864
         7        12        11        25     9        0.000000        0.167660         3    ;  uncertainty k = 0.186242
         7        12        11        25     9      180.000000       -0.033607         4    ;  uncertainty k = 0.216669
         7        12        11        26     9        0.000000        0.281111         1    ;  uncertainty k = 0.593397
         7        12        11        26     9      180.000000       -0.569363         2    ;  uncertainty k = 0.729864
         7        12        11        26     9        0.000000        0.167660         3    ;  uncertainty k = 0.186242
         7        12        11        26     9      180.000000       -0.033607         4    ;  uncertainty k = 0.216669
         7        12        13        14     9        0.000000       -2.005942         1    ;  uncertainty k = 1.034447
         7        12        13        14     9      180.000000        0.341661         2    ;  uncertainty k = 0.591005
         7        12        13        14     9        0.000000        0.306573         3    ;  uncertainty k = 0.281148
         7        12        13        14     9      180.000000       -0.168225         4    ;  uncertainty k = 0.177075
         7        12        13        15     9        0.000000       -2.005942         1    ;  uncertainty k = 1.034447
         7        12        13        15     9      180.000000        0.341661         2    ;  uncertainty k = 0.591005
         7        12        13        15     9        0.000000        0.306573         3    ;  uncertainty k = 0.281148
         7        12        13        15     9      180.000000       -0.168225         4    ;  uncertainty k = 0.177075
         7        12        13        16     9        0.000000       -2.005942         1    ;  uncertainty k = 1.034447
         7        12        13        16     9      180.000000        0.341661         2    ;  uncertainty k = 0.591005
         7        12        13        16     9        0.000000        0.306573         3    ;  uncertainty k = 0.281148
         7        12        13        16     9      180.000000       -0.168225         4    ;  uncertainty k = 0.177075
         7        17        18        28     9        0.000000        0.328487         1    ;  uncertainty k = 1.100136
         7        17        18        28     9      180.000000        6.077027         2    ;  uncertainty k = 0.633219
         7        17        18        28     9        0.000000        0.993981         3    ;  uncertainty k = 0.310107
         7        17        18        28     9      180.000000        1.030312         4    ;  uncertainty k = 0.143279
         8         7         6        21     9        0.000000       -0.344895         1    ;  uncertainty k = 0.432581
         8         7         6        21     9      180.000000       -0.871576         2    ;  uncertainty k = 0.656834
         8         7         6        21     9        0.000000        0.509970         3    ;  uncertainty k = 0.179247
         8         7         6        21     9      180.000000       -0.159376         4    ;  uncertainty k = 0.153718
         8         7         6        22     9        0.000000       -0.344895         1    ;  uncertainty k = 0.432581
         8         7         6        22     9      180.000000       -0.871576         2    ;  uncertainty k = 0.656834
         8         7         6        22     9        0.000000        0.509970         3    ;  uncertainty k = 0.179247
         8         7         6        22     9      180.000000       -0.159376         4    ;  uncertainty k = 0.153718
         8         7        12        11     9        0.000000       -0.550876         1    ;  uncertainty k = 1.179569
         8         7        12        11     9      180.000000        0.622165         2    ;  uncertainty k = 0.370146
         8         7        12        11     9        0.000000        1.071715         3    ;  uncertainty k = 0.305704
         8         7        12        11     9      180.000000       -0.173973         4    ;  uncertainty k = 0.195396
         8         7        12        13     9        0.000000       -4.212888         1    ;  uncertainty k = 2.759184
         8         7        12        13     9      180.000000       -0.455627         2    ;  uncertainty k = 1.086444
         8         7        12        13     9        0.000000        0.946085         3    ;  uncertainty k = 0.361284
         8         7        12        13     9      180.000000       -0.122077         4    ;  uncertainty k = 0.254867
         8         7        12        27     9        0.000000       -0.801559         1    ;  uncertainty k = 0.812550
         8         7        12        27     9      180.000000       -0.312905         2    ;  uncertainty k = 0.561018
         8         7        12        27     9        0.000000        0.570623         3    ;  uncertainty k = 0.081320
         8         7        12        27     9      180.000000       -0.208392         4    ;  uncertainty k = 0.111171
         8         7        17        18     9        0.000000        1.199857         1    ;  uncertainty k = 1.630065
         8         7        17        18     9      180.000000        2.467216         2    ;  uncertainty k = 0.390686
         8         7        17        18     9        0.000000        0.220386         3    ;  uncertainty k = 0.603138
         8         7        17        18     9      180.000000        0.222967         4    ;  uncertainty k = 0.144964
         8         9        10        23     9        0.000000        5.639946         1    ;  uncertainty k = 1.763033
         8         9        10        23     9      180.000000       14.999895         2    ;  uncertainty k = 0.679303
         8         9        10        23     9        0.000000        1.413217         3    ;  uncertainty k = 0.713527
         8         9        10        23     9      180.000000       -0.820261         4    ;  uncertainty k = 0.324625
         8         9        10        24     9        0.000000        5.639946         1    ;  uncertainty k = 1.763033
         8         9        10        24     9      180.000000       14.999895         2    ;  uncertainty k = 0.679303
         8         9        10        24     9        0.000000        1.413217         3    ;  uncertainty k = 0.713527
         8         9        10        24     9      180.000000       -0.820261         4    ;  uncertainty k = 0.324625
         8         9        11        12     9        0.000000       -2.481943         1    ;  uncertainty k = 1.243761
         8         9        11        12     9      180.000000        5.891752         2    ;  uncertainty k = 1.882023
         8         9        11        12     9        0.000000       -0.060209         3    ;  uncertainty k = 0.474588
         8         9        11        12     9      180.000000        0.286459         4    ;  uncertainty k = 0.306847
         8         9        11        25     9        0.000000       -1.597549         1    ;  uncertainty k = 1.394932
         8         9        11        25     9      180.000000        1.929590         2    ;  uncertainty k = 0.313827
         8         9        11        25     9        0.000000        0.502848         3    ;  uncertainty k = 0.249569
         8         9        11        25     9      180.000000        0.173344         4    ;  uncertainty k = 0.134392
         8         9        11        26     9        0.000000       -1.597549         1    ;  uncertainty k = 1.394932
         8         9        11        26     9      180.000000        1.929590         2    ;  uncertainty k = 0.313827
         8         9        11        26     9        0.000000        0.502848         3    ;  uncertainty k = 0.249569
         8         9        11        26     9      180.000000        0.173344         4    ;  uncertainty k = 0.134392
         9         8         7        12     9        0.000000       -1.805167         1    ;  uncertainty k = 1.028273
         9         8         7        12     9      180.000000        1.285877         2    ;  uncertainty k = 0.661220
         9         8         7        12     9        0.000000       -0.085003         3    ;  uncertainty k = 0.385690
         9         8         7        12     9      180.000000        0.280412         4    ;  uncertainty k = 0.136437
         9         8         7        17     9        0.000000       -0.301314         1    ;  uncertainty k = 1.238101
         9         8         7        17     9      180.000000        1.458822         2    ;  uncertainty k = 0.455171
         9         8         7        17     9        0.000000        0.280991         3    ;  uncertainty k = 0.347852
         9         8         7        17     9      180.000000        0.437656         4    ;  uncertainty k = 0.250139
         9        11        12        13     9        0.000000       -1.191830         1    ;  uncertainty k = 2.042345
         9        11        12        13     9      180.000000       -0.287155         2    ;  uncertainty k = 0.974725
         9        11        12        13     9        0.000000        0.254867         3    ;  uncertainty k = 0.326406
         9        11        12        13     9      180.000000       -0.106166         4    ;  uncertainty k = 0.222732
         9        11        12        27     9        0.000000       -1.683010         1    ;  uncertainty k = 0.934216
         9        11        12        27     9      180.000000        0.460973         2    ;  uncertainty k = 0.159081
         9        11        12        27     9        0.000000        0.577028         3    ;  uncertainty k = 0.170174
         9        11        12        27     9      180.000000        0.048389         4    ;  uncertainty k = 0.102053
        10         9         8        38     9        0.000000        1.711393         1    ;  uncertainty k = 3.097538
        10         9         8        38     9      180.000000       11.290738         2    ;  uncertainty k = 0.716713
        10         9         8        38     9        0.000000        1.263776         3    ;  uncertainty k = 0.371254
        10         9         8        38     9      180.000000       -0.199973         4    ;  uncertainty k = 0.315665
        10         9        11        12     9        0.000000        0.711012         1    ;  uncertainty k = 2.288408
        10         9        11        12     9      180.000000        2.976948         2    ;  uncertainty k = 0.726887
        10         9        11        12     9        0.000000        0.485024         3    ;  uncertainty k = 0.461905
        10         9        11        12     9      180.000000        0.390813         4    ;  uncertainty k = 0.148044
        10         9        11        25     9        0.000000       -1.018381         1    ;  uncertainty k = 1.118717
        10         9        11        25     9      180.000000        1.855627         2    ;  uncertainty k = 0.519445
        10         9        11        25     9        0.000000        0.471353         3    ;  uncertainty k = 0.243351
        10         9        11        25     9      180.000000        0.175330         4    ;  uncertainty k = 0.069887
        10         9        11        26     9        0.000000       -1.018381         1    ;  uncertainty k = 1.118717
        10         9        11        26     9      180.000000        1.855627         2    ;  uncertainty k = 0.519445
        10         9        11        26     9        0.000000        0.471353         3    ;  uncertainty k = 0.243351
        10         9        11        26     9      180.000000        0.175330         4    ;  uncertainty k = 0.069887
        11         9         8        38     9        0.000000        0.209407         1    ;  uncertainty k = 2.454945
        11         9         8        38     9      180.000000       13.064939         2    ;  uncertainty k = 0.674453
        11         9         8        38     9        0.000000        1.488201         3    ;  uncertainty k = 0.334343
        11         9         8        38     9      180.000000       -0.337287         4    ;  uncertainty k = 0.304455
        11         9        10        23     9        0.000000        1.995219         1    ;  uncertainty k = 2.390794
        11         9        10        23     9      180.000000       10.777981         2    ;  uncertainty k = 0.517169
        11         9        10        23     9        0.000000        1.163167         3    ;  uncertainty k = 0.491973
        11         9        10        23     9      180.000000       -0.557923         4    ;  uncertainty k = 0.168475
        11         9        10        24     9        0.000000        1.995219         1    ;  uncertainty k = 2.390794
        11         9        10        24     9      180.000000       10.777981         2    ;  uncertainty k = 0.517169
        11         9        10        24     9        0.000000        1.163167         3    ;  uncertainty k = 0.491973
        11         9        10        24     9      180.000000       -0.557923         4    ;  uncertainty k = 0.168475
        11        12         7        17     9        0.000000       -0.605950         1    ;  uncertainty k = 0.853928
        11        12         7        17     9      180.000000        0.866925         2    ;  uncertainty k = 0.784603
        11        12         7        17     9        0.000000        0.519531         3    ;  uncertainty k = 0.216342
        11        12         7        17     9      180.000000       -0.093916         4    ;  uncertainty k = 0.064104
        11        12        13        14     9        0.000000       -0.728367         1    ;  uncertainty k = 0.384599
        11        12        13        14     9      180.000000        0.458213         2    ;  uncertainty k = 0.349865
        11        12        13        14     9        0.000000        0.346550         3    ;  uncertainty k = 0.205131
        11        12        13        14     9      180.000000       -0.252210         4    ;  uncertainty k = 0.090757
        11        12        13        15     9        0.000000       -0.728367         1    ;  uncertainty k = 0.384599
        11        12        13        15     9      180.000000        0.458213         2    ;  uncertainty k = 0.349865
        11        12        13        15     9        0.000000        0.346550         3    ;  uncertainty k = 0.205131
        11        12        13        15     9      180.000000       -0.252210         4    ;  uncertainty k = 0.090757
        11        12        13        16     9        0.000000       -0.728367         1    ;  uncertainty k = 0.384599
        11        12        13        16     9      180.000000        0.458213         2    ;  uncertainty k = 0.349865
        11        12        13        16     9        0.000000        0.346550         3    ;  uncertainty k = 0.205131
        11        12        13        16     9      180.000000       -0.252210         4    ;  uncertainty k = 0.090757
        12         7         6        21     9        0.000000       -0.138198         1    ;  uncertainty k = 0.304670
        12         7         6        21     9      180.000000       -0.978930         2    ;  uncertainty k = 0.334306
        12         7         6        21     9        0.000000       -0.066286         3    ;  uncertainty k = 0.110908
        12         7         6        21     9      180.000000       -0.158394         4    ;  uncertainty k = 0.112943
        12         7         6        22     9        0.000000       -0.138198         1    ;  uncertainty k = 0.304670
        12         7         6        22     9      180.000000       -0.978930         2    ;  uncertainty k = 0.334306
        12         7         6        22     9        0.000000       -0.066286         3    ;  uncertainty k = 0.110908
        12         7         6        22     9      180.000000       -0.158394         4    ;  uncertainty k = 0.112943
        12         7         8        38     9        0.000000        1.289548         1    ;  uncertainty k = 0.893061
        12         7         8        38     9      180.000000       -0.728208         2    ;  uncertainty k = 1.432712
        12         7         8        38     9        0.000000        0.531329         3    ;  uncertainty k = 0.283826
        12         7         8        38     9      180.000000        0.176152         4    ;  uncertainty k = 0.192879
        12         7        17        18     9        0.000000        0.437462         1    ;  uncertainty k = 0.655568
        12         7        17        18     9      180.000000        1.725945         2    ;  uncertainty k = 0.552384
        12         7        17        18     9        0.000000        0.251560         3    ;  uncertainty k = 0.414286
        12         7        17        18     9      180.000000        0.416847         4    ;  uncertainty k = 0.097936
        13        12         7        17     9        0.000000       -0.682746         1    ;  uncertainty k = 1.387778
        13        12         7        17     9      180.000000        0.137620         2    ;  uncertainty k = 0.599277
        13        12         7        17     9        0.000000        0.486183         3    ;  uncertainty k = 0.182798
        13        12         7        17     9      180.000000       -0.023587         4    ;  uncertainty k = 0.092374
        13        12        11        25     9        0.000000        0.576002         1    ;  uncertainty k = 0.389149
        13        12        11        25     9      180.000000       -0.755541         2    ;  uncertainty k = 0.252053
        13        12        11        25     9        0.000000        0.509245         3    ;  uncertainty k = 0.150473
        13        12        11        25     9      180.000000       -0.151936         4    ;  uncertainty k = 0.054750
        13        12        11        26     9        0.000000        0.576002         1    ;  uncertainty k = 0.389149
        13        12        11        26     9      180.000000       -0.755541         2    ;  uncertainty k = 0.252053
        13        12        11        26     9        0.000000        0.509245         3    ;  uncertainty k = 0.150473
        13        12        11        26     9      180.000000       -0.151936         4    ;  uncertainty k = 0.054750
        14        13        12        27     9        0.000000       -0.478553         1    ;  uncertainty k = 0.648782
        14        13        12        27     9      180.000000       -0.280066         2    ;  uncertainty k = 0.237277
        14        13        12        27     9        0.000000        0.468749         3    ;  uncertainty k = 0.182964
        14        13        12        27     9      180.000000       -0.084173         4    ;  uncertainty k = 0.105865
        15        13        12        27     9        0.000000       -0.478553         1    ;  uncertainty k = 0.648782
        15        13        12        27     9      180.000000       -0.280066         2    ;  uncertainty k = 0.237277
        15        13        12        27     9        0.000000        0.468749         3    ;  uncertainty k = 0.182964
        15        13        12        27     9      180.000000       -0.084173         4    ;  uncertainty k = 0.105865
        16        13        12        27     9        0.000000       -0.478553         1    ;  uncertainty k = 0.648782
        16        13        12        27     9      180.000000       -0.280066         2    ;  uncertainty k = 0.237277
        16        13        12        27     9        0.000000        0.468749         3    ;  uncertainty k = 0.182964
        16        13        12        27     9      180.000000       -0.084173         4    ;  uncertainty k = 0.105865
        17         4         3        20     9        0.000000        0.212446         1    ;  uncertainty k = 0.410462
        17         4         3        20     9      180.000000        5.992657         2    ;  uncertainty k = 0.906414
        17         4         3        20     9        0.000000        1.240565         3    ;  uncertainty k = 0.228595
        17         4         3        20     9      180.000000        1.307825         4    ;  uncertainty k = 0.096796
        17         7         6        21     9        0.000000       -0.127813         1    ;  uncertainty k = 0.288258
        17         7         6        21     9      180.000000       -0.423514         2    ;  uncertainty k = 0.388022
        17         7         6        21     9        0.000000        0.271145         3    ;  uncertainty k = 0.155091
        17         7         6        21     9      180.000000       -0.087033         4    ;  uncertainty k = 0.091940
        17         7         6        22     9        0.000000       -0.127813         1    ;  uncertainty k = 0.288258
        17         7         6        22     9      180.000000       -0.423514         2    ;  uncertainty k = 0.388022
        17         7         6        22     9        0.000000        0.271145         3    ;  uncertainty k = 0.155091
        17         7         6        22     9      180.000000       -0.087033         4    ;  uncertainty k = 0.091940
        17         7         8        38     9        0.000000        1.138538         1    ;  uncertainty k = 1.557059
        17         7         8        38     9      180.000000       -0.345043         2    ;  uncertainty k = 0.126566
        17         7         8        38     9        0.000000        0.593677         3    ;  uncertainty k = 0.383884
        17         7         8        38     9      180.000000        0.109214         4    ;  uncertainty k = 0.256612
        17         7        12        27     9        0.000000       -0.348826         1    ;  uncertainty k = 0.398985
        17         7        12        27     9      180.000000        0.326514         2    ;  uncertainty k = 0.396047
        17         7        12        27     9        0.000000        0.491707         3    ;  uncertainty k = 0.159582
        17         7        12        27     9      180.000000       -0.142314         4    ;  uncertainty k = 0.078340
        17        18         1        32     9        0.000000        0.177924         1    ;  uncertainty k = 0.322330
        17        18         1        32     9      180.000000        9.612114         2    ;  uncertainty k = 0.363228
        17        18         1        32     9        0.000000        1.372420         3    ;  uncertainty k = 0.332548
        17        18         1        32     9      180.000000        1.614228         4    ;  uncertainty k = 0.116360
        18         1         2        19     9        0.000000        0.052010         1    ;  uncertainty k = 0.175110
        18         1         2        19     9      180.000000        6.844416         2    ;  uncertainty k = 0.607422
        18         1         2        19     9        0.000000        1.338182         3    ;  uncertainty k = 0.227944
        18         1         2        19     9      180.000000        1.583395         4    ;  uncertainty k = 0.286166
        18         1        32        31     9        0.000000       -0.365083         1    ;  uncertainty k = 0.693241
        18         1        32        31     9      180.000000        3.317499         2    ;  uncertainty k = 0.158131
        18         1        32        31     9        0.000000        0.417138         3    ;  uncertainty k = 0.344354
        18         1        32        31     9      180.000000       -0.206631         4    ;  uncertainty k = 0.136723
        18         1        32        33     9        0.000000       -0.365083         1    ;  uncertainty k = 0.693241
        18         1        32        33     9      180.000000        3.317499         2    ;  uncertainty k = 0.158131
        18         1        32        33     9        0.000000        0.417138         3    ;  uncertainty k = 0.344354
        18         1        32        33     9      180.000000       -0.206631         4    ;  uncertainty k = 0.136723
        19         2         1        32     9        0.000000       -0.256403         1    ;  uncertainty k = 0.388192
        19         2         1        32     9      180.000000        7.368988         2    ;  uncertainty k = 0.387882
        19         2         1        32     9        0.000000        0.887927         3    ;  uncertainty k = 0.150895
        19         2         1        32     9      180.000000        1.186100         4    ;  uncertainty k = 0.271415
        19         2         3        20     9        0.000000        0.018407         1    ;  uncertainty k = 0.454226
        19         2         3        20     9      180.000000        7.677144         2    ;  uncertainty k = 0.276346
        19         2         3        20     9        0.000000       -0.322414         3    ;  uncertainty k = 0.296317
        19         2         3        20     9      180.000000        0.145780         4    ;  uncertainty k = 0.138185
        25        11        12        27     9        0.000000        1.062908         1    ;  uncertainty k = 0.361776
        25        11        12        27     9      180.000000       -0.680179         2    ;  uncertainty k = 0.313426
        25        11        12        27     9        0.000000        0.665646         3    ;  uncertainty k = 0.117054
        25        11        12        27     9      180.000000        0.112142         4    ;  uncertainty k = 0.087385
        26        11        12        27     9        0.000000        1.062908         1    ;  uncertainty k = 0.361776
        26        11        12        27     9      180.000000       -0.680179         2    ;  uncertainty k = 0.313426
        26        11        12        27     9        0.000000        0.665646         3    ;  uncertainty k = 0.117054
        26        11        12        27     9      180.000000        0.112142         4    ;  uncertainty k = 0.087385
        28        18         1        32     9        0.000000       -0.351092         1    ;  uncertainty k = 0.315051
        28        18         1        32     9      180.000000        7.323356         2    ;  uncertainty k = 0.210151
        28        18         1        32     9        0.000000        0.871078         3    ;  uncertainty k = 0.163870
        28        18         1        32     9      180.000000        1.190293         4    ;  uncertainty k = 0.265336
        29        30        31        32     9        0.000000       -0.329530         1    ;  uncertainty k = 0.374040
        29        30        31        32     9      180.000000       15.635117         2    ;  uncertainty k = 0.320244
        29        30        31        32     9        0.000000       -0.178687         3    ;  uncertainty k = 0.958629
        29        30        31        32     9      180.000000        1.451904         4    ;  uncertainty k = 0.195086
        29        30        31        36     9        0.000000        0.402677         1    ;  uncertainty k = 0.427126
        29        30        31        36     9      180.000000       15.748001         2    ;  uncertainty k = 0.666350
        29        30        31        36     9        0.000000        1.796940         3    ;  uncertainty k = 0.732839
        29        30        31        36     9      180.000000        1.414586         4    ;  uncertainty k = 0.442292
        29        34        33        32     9        0.000000       -0.329530         1    ;  uncertainty k = 0.374040
        29        34        33        32     9      180.000000       15.635117         2    ;  uncertainty k = 0.320244
        29        34        33        32     9        0.000000       -0.178687         3    ;  uncertainty k = 0.958629
        29        34        33        32     9      180.000000        1.451904         4    ;  uncertainty k = 0.195086
        29        34        33        37     9        0.000000        0.402677         1    ;  uncertainty k = 0.427126
        29        34        33        37     9      180.000000       15.748001         2    ;  uncertainty k = 0.666350
        29        34        33        37     9        0.000000        1.796940         3    ;  uncertainty k = 0.732839
        29        34        33        37     9      180.000000        1.414586         4    ;  uncertainty k = 0.442292
        30        29        34        33     9        0.000000       -0.512108         1    ;  uncertainty k = 0.537342
        30        29        34        33     9      180.000000       15.746504         2    ;  uncertainty k = 0.540962
        30        29        34        33     9        0.000000        0.315475         3    ;  uncertainty k = 0.515154
        30        29        34        33     9      180.000000        0.978159         4    ;  uncertainty k = 0.215410
        30        31        32        33     9        0.000000       -0.377843         1    ;  uncertainty k = 0.347827
        30        31        32        33     9      180.000000       11.413486         2    ;  uncertainty k = 0.510941
        30        31        32        33     9        0.000000       -0.732100         3    ;  uncertainty k = 0.481391
        30        31        32        33     9      180.000000        1.084177         4    ;  uncertainty k = 0.218617
        31        30        29        34     9        0.000000       -0.512108         1    ;  uncertainty k = 0.537342
        31        30        29        34     9      180.000000       15.746504         2    ;  uncertainty k = 0.540962
        31        30        29        34     9        0.000000        0.315475         3    ;  uncertainty k = 0.515154
        31        30        29        34     9      180.000000        0.978159         4    ;  uncertainty k = 0.215410
        31        30        29        35     9        0.000000        0.401175         1    ;  uncertainty k = 0.800773
        31        30        29        35     9      180.000000       12.737604         2    ;  uncertainty k = 0.458442
        31        30        29        35     9        0.000000        1.772181         3    ;  uncertainty k = 0.932055
        31        30        29        35     9      180.000000        1.222206         4    ;  uncertainty k = 0.418733
        31        32        33        34     9        0.000000       -0.377843         1    ;  uncertainty k = 0.347827
        31        32        33        34     9      180.000000       11.413486         2    ;  uncertainty k = 0.510941
        31        32        33        34     9        0.000000       -0.732100         3    ;  uncertainty k = 0.481391
        31        32        33        34     9      180.000000        1.084177         4    ;  uncertainty k = 0.218617
        31        32        33        37     9        0.000000       -0.645880         1    ;  uncertainty k = 0.437356
        31        32        33        37     9      180.000000        5.013070         2    ;  uncertainty k = 0.793729
        31        32        33        37     9        0.000000        0.735454         3    ;  uncertainty k = 0.180358
        31        32        33        37     9      180.000000        1.255831         4    ;  uncertainty k = 0.266689
        33        32        31        36     9        0.000000       -0.645880         1    ;  uncertainty k = 0.437356
        33        32        31        36     9      180.000000        5.013070         2    ;  uncertainty k = 0.793729
        33        32        31        36     9        0.000000        0.735454         3    ;  uncertainty k = 0.180358
        33        32        31        36     9      180.000000        1.255831         4    ;  uncertainty k = 0.266689
        33        34        29        35     9        0.000000        0.401175         1    ;  uncertainty k = 0.800773
        33        34        29        35     9      180.000000       12.737604         2    ;  uncertainty k = 0.458442
        33        34        29        35     9        0.000000        1.772181         3    ;  uncertainty k = 0.932055
        33        34        29        35     9      180.000000        1.222206         4    ;  uncertainty k = 0.418733

[ dihedrals ] ; impropers
;       ai        aj        ak        al funct           phase               k        pn
         1         2        18        32     4      180.000000       13.380861         2    ;  uncertainty k = 0.158155
         1        18        32         2     4      180.000000       13.380861         2    ;  uncertainty k = 0.158155
         1        32         2        18     4      180.000000       13.380861         2    ;  uncertainty k = 0.158155
         2         1         3        19     4      180.000000        4.542461         2    ;  uncertainty k = 0.142140
         2         3        19         1     4      180.000000        4.542461         2    ;  uncertainty k = 0.142140
         2        19         1         3     4      180.000000        4.542461         2    ;  uncertainty k = 0.142140
         3         2         4        20     4      180.000000        2.229446         2    ;  uncertainty k = 0.207577
         3         4        20         2     4      180.000000        2.229446         2    ;  uncertainty k = 0.207577
         3        20         2         4     4      180.000000        2.229446         2    ;  uncertainty k = 0.207577
         4         3         5        17     4      180.000000        9.221800         2    ;  uncertainty k = 0.335485
         4         5        17         3     4      180.000000        9.221800         2    ;  uncertainty k = 0.335485
         4        17         3         5     4      180.000000        9.221800         2    ;  uncertainty k = 0.335485
         9         8        10        11     4      180.000000       28.440325         2    ;  uncertainty k = 0.165657
         9        10        11         8     4      180.000000       28.440325         2    ;  uncertainty k = 0.165657
         9        11         8        10     4      180.000000       28.440325         2    ;  uncertainty k = 0.165657
        10         9        23        24     4      180.000000        0.283598         2    ;  uncertainty k = 0.634144
        10        23        24         9     4      180.000000        0.283598         2    ;  uncertainty k = 0.634144
        10        24         9        23     4      180.000000        0.283598         2    ;  uncertainty k = 0.634144
        17         4         7        18     4      180.000000        1.392517         2    ;  uncertainty k = 0.584719
        17         7        18         4     4      180.000000        1.392517         2    ;  uncertainty k = 0.584719
        17        18         4         7     4      180.000000        1.392517         2    ;  uncertainty k = 0.584719
        18         1        17        28     4      180.000000        5.862019         2    ;  uncertainty k = 0.279223
        18        17        28         1     4      180.000000        5.862019         2    ;  uncertainty k = 0.279223
        18        28         1        17     4      180.000000        5.862019         2    ;  uncertainty k = 0.279223
        29        30        34        35     4      180.000000       23.601838         2    ;  uncertainty k = 0.036035
        29        34        35        30     4      180.000000       23.601838         2    ;  uncertainty k = 0.036035
        29        35        30        34     4      180.000000       23.601838         2    ;  uncertainty k = 0.036035
        31        30        32        36     4      180.000000       15.905730         2    ;  uncertainty k = 0.049961
        31        32        36        30     4      180.000000       15.905730         2    ;  uncertainty k = 0.049961
        31        36        30        32     4      180.000000       15.905730         2    ;  uncertainty k = 0.049961
        32         1        31        33     4      180.000000       12.067413         2    ;  uncertainty k = 0.148758
        32        31        33         1     4      180.000000       12.067413         2    ;  uncertainty k = 0.148758
        32        33         1        31     4      180.000000       12.067413         2    ;  uncertainty k = 0.148758
        33        32        34        37     4      180.000000       15.905734         2    ;  uncertainty k = 0.049962
        33        34        37        32     4      180.000000       15.905734         2    ;  uncertainty k = 0.049962
        33        37        32        34     4      180.000000       15.905734         2    ;  uncertainty k = 0.049962

[ pairs ]
;       ai        aj funct
         1         4     1
         1         7     1
         1        20     1
         1        30     1
         1        34     1
         1        36     1
         1        37     1
         2         5     1
         2        17     1
         2        28     1
         2        31     1
         2        33     1
         3         6     1
         3         7     1
         3        18     1
         3        32     1
         4         8     1
         4        12     1
         4        19     1
         4        21     1
         4        22     1
         4        28     1
         5         8     1
         5        12     1
         5        18     1
         5        20     1
         6         9     1
         6        11     1
         6        13     1
         6        18     1
         6        27     1
         6        38     1
         7        10     1
         7        14     1
         7        15     1
         7        16     1
         7        25     1
         7        26     1
         7        28     1
         8        13     1
         8        18     1
         8        21     1
         8        22     1
         8        23     1
         8        24     1
         8        25     1
         8        26     1
         8        27     1
         9        13     1
         9        17     1
         9        27     1
        10        12     1
        10        25     1
        10        26     1
        10        38     1
        11        14     1
        11        15     1
        11        16     1
        11        17     1
        11        23     1
        11        24     1
        11        38     1
        12        18     1
        12        21     1
        12        22     1
        12        38     1
        13        17     1
        13        25     1
        13        26     1
        14        27     1
        15        27     1
        16        27     1
        17        20     1
        17        21     1
        17        22     1
        17        27     1
        17        32     1
        17        38     1
        18        19     1
        18        31     1
        18        33     1
        19        20     1
        19        32     1
        25        27     1
        26        27     1
        28        32     1
        29        32     1
        29        36     1
        29        37     1
        30        33     1
        31        34     1
        31        35     1
        31        37     1
        33        35     1
        33        36     1
