; ITP file created by ByteFF-joint-25, 2025-07-14 11:31:39.088992

[ atomtypes ]
;name           bonded.type        at.num        mass        charge   ptype           sigma         epsilon
 c0bf                                   6      0.0000       0.00000       A     3.31505e-01     4.13169e-01    ;  uncertainty sigma = 0.000008, epsilon = 0.000550
 c1bf                                   6      0.0000       0.00000       A     3.31510e-01     4.13406e-01    ;  uncertainty sigma = 0.000008, epsilon = 0.000569
 c2bf                                   6      0.0000       0.00000       A     3.31521e-01     4.13701e-01    ;  uncertainty sigma = 0.000004, epsilon = 0.000875
 c3bf                                   6      0.0000       0.00000       A     3.31471e-01     4.12729e-01    ;  uncertainty sigma = 0.000008, epsilon = 0.001275
 o4bf                                   8      0.0000       0.00000       A     3.15601e-01     3.03854e-01    ;  uncertainty sigma = 0.000054, epsilon = 0.001687
 c5bf                                   6      0.0000       0.00000       A     3.39806e-01     4.50607e-01    ;  uncertainty sigma = 0.000040, epsilon = 0.001845
 c6bf                                   6      0.0000       0.00000       A     3.39882e-01     4.49700e-01    ;  uncertainty sigma = 0.000050, epsilon = 0.004460
 n7bf                                   7      0.0000       0.00000       A     3.27794e-01     6.45463e-01    ;  uncertainty sigma = 0.000114, epsilon = 0.012172
 c8bf                                   6      0.0000       0.00000       A     3.31488e-01     4.14442e-01    ;  uncertainty sigma = 0.000019, epsilon = 0.001752
 n9bf                                   7      0.0000       0.00000       A     3.36538e-01     4.70713e-01    ;  uncertainty sigma = 0.000066, epsilon = 0.005914
 c10bf                                  6      0.0000       0.00000       A     3.39788e-01     4.50912e-01    ;  uncertainty sigma = 0.000015, epsilon = 0.002115
 c11bf                                  6      0.0000       0.00000       A     3.39907e-01     4.52103e-01    ;  uncertainty sigma = 0.000043, epsilon = 0.002263
 c12bf                                  6      0.0000       0.00000       A     3.39764e-01     4.51433e-01    ;  uncertainty sigma = 0.000038, epsilon = 0.001538
 f13bf                                  9      0.0000       0.00000       A     3.03433e-01     3.48520e-01    ;  uncertainty sigma = 0.000026, epsilon = 0.000578
 f14bf                                  9      0.0000       0.00000       A     3.03433e-01     3.48520e-01    ;  uncertainty sigma = 0.000026, epsilon = 0.000578
 f15bf                                  9      0.0000       0.00000       A     3.03433e-01     3.48520e-01    ;  uncertainty sigma = 0.000026, epsilon = 0.000578
 c16bf                                  6      0.0000       0.00000       A     3.31551e-01     4.13489e-01    ;  uncertainty sigma = 0.000022, epsilon = 0.001530
 c17bf                                  6      0.0000       0.00000       A     3.31500e-01     4.13465e-01    ;  uncertainty sigma = 0.000013, epsilon = 0.000785
 h18bf                                  1      0.0000       0.00000       A     2.62564e-01     6.71258e-02    ;  uncertainty sigma = 0.000011, epsilon = 0.000520
 h19bf                                  1      0.0000       0.00000       A     2.62554e-01     6.69585e-02    ;  uncertainty sigma = 0.000008, epsilon = 0.000568
 h20bf                                  1      0.0000       0.00000       A     2.42326e-01     8.69324e-02    ;  uncertainty sigma = 0.000099, epsilon = 0.001171
 h21bf                                  1      0.0000       0.00000       A     2.42326e-01     8.69324e-02    ;  uncertainty sigma = 0.000099, epsilon = 0.001171
 h22bf                                  1      0.0000       0.00000       A     1.10660e-01     4.19617e-02    ;  uncertainty sigma = 0.000134, epsilon = 0.001120
 h23bf                                  1      0.0000       0.00000       A     1.10660e-01     4.19617e-02    ;  uncertainty sigma = 0.000134, epsilon = 0.001120
 h24bf                                  1      0.0000       0.00000       A     2.60047e-01     8.67817e-02    ;  uncertainty sigma = 0.000024, epsilon = 0.001129
 h25bf                                  1      0.0000       0.00000       A     2.60047e-01     8.67817e-02    ;  uncertainty sigma = 0.000024, epsilon = 0.001129
 h26bf                                  1      0.0000       0.00000       A     2.60239e-01     8.53301e-02    ;  uncertainty sigma = 0.000159, epsilon = 0.002446
 h27bf                                  1      0.0000       0.00000       A     2.62589e-01     6.72812e-02    ;  uncertainty sigma = 0.000025, epsilon = 0.000703
 c28bf                                  6      0.0000       0.00000       A     3.31518e-01     4.13129e-01    ;  uncertainty sigma = 0.000006, epsilon = 0.000524
 n29bf                                  7      0.0000       0.00000       A     3.38405e-01     3.93565e-01    ;  uncertainty sigma = 0.000013, epsilon = 0.000990
 c30bf                                  6      0.0000       0.00000       A     3.31517e-01     4.13344e-01    ;  uncertainty sigma = 0.000004, epsilon = 0.000647
 c31bf                                  6      0.0000       0.00000       A     3.31477e-01     4.12999e-01    ;  uncertainty sigma = 0.000009, epsilon = 0.000807
 c32bf                                  6      0.0000       0.00000       A     3.31513e-01     4.13176e-01    ;  uncertainty sigma = 0.000011, epsilon = 0.000754
 c33bf                                  6      0.0000       0.00000       A     3.31527e-01     4.13667e-01    ;  uncertainty sigma = 0.000010, epsilon = 0.000927
 h34bf                                  1      0.0000       0.00000       A     2.53608e-01     6.69186e-02    ;  uncertainty sigma = 0.000019, epsilon = 0.000651
 h35bf                                  1      0.0000       0.00000       A     2.53644e-01     6.67556e-02    ;  uncertainty sigma = 0.000027, epsilon = 0.000598
 h36bf                                  1      0.0000       0.00000       A     2.62563e-01     6.70335e-02    ;  uncertainty sigma = 0.000017, epsilon = 0.000878
 c37bf                                  6      0.0000       0.00000       A     3.47914e-01     6.68787e-01    ;  uncertainty sigma = 0.000018, epsilon = 0.001216
 c38bf                                  6      0.0000       0.00000       A     3.47950e-01     6.65347e-01    ;  uncertainty sigma = 0.000053, epsilon = 0.002820
 c39bf                                  6      0.0000       0.00000       A     3.39770e-01     4.50056e-01    ;  uncertainty sigma = 0.000007, epsilon = 0.001435
 h40bf                                  1      0.0000       0.00000       A     2.42228e-01     8.71357e-02    ;  uncertainty sigma = 0.000030, epsilon = 0.000751
 h41bf                                  1      0.0000       0.00000       A     2.42228e-01     8.71357e-02    ;  uncertainty sigma = 0.000030, epsilon = 0.000751
 o42bf                                  8      0.0000       0.00000       A     3.15602e-01     3.04110e-01    ;  uncertainty sigma = 0.000030, epsilon = 0.001407
 c43bf                                  6      0.0000       0.00000       A     3.39787e-01     4.51423e-01    ;  uncertainty sigma = 0.000009, epsilon = 0.000781
 h44bf                                  1      0.0000       0.00000       A     2.42186e-01     8.67158e-02    ;  uncertainty sigma = 0.000012, epsilon = 0.000513
 h45bf                                  1      0.0000       0.00000       A     2.42186e-01     8.67158e-02    ;  uncertainty sigma = 0.000012, epsilon = 0.000513
 h46bf                                  1      0.0000       0.00000       A     2.42186e-01     8.67158e-02    ;  uncertainty sigma = 0.000012, epsilon = 0.000513
 h47bf                                  1      0.0000       0.00000       A     1.10782e-01     4.29103e-02    ;  uncertainty sigma = 0.000068, epsilon = 0.001720

[ moleculetype ]
;name             nrexcl
 MOL                   3

[ atoms ]
;       nr            type      resi   res      atom      cgnr      charge          mass ; qtot
         1            c0bf         1   UNL        c0         1    -0.04709       12.0110 ; qtot   -0.047
         2            c1bf         1   UNL        c1         2    -0.06523       12.0110 ; qtot   -0.112
         3            c2bf         1   UNL        c2         3    -0.13983       12.0110 ; qtot   -0.252
         4            c3bf         1   UNL        c3         4     0.14724       12.0110 ; qtot   -0.105
         5            o4bf         1   UNL        o4         5    -0.28867       15.9990 ; qtot   -0.394
         6            c5bf         1   UNL        c5         6     0.11656       12.0110 ; qtot   -0.277
         7            c6bf         1   UNL        c6         7     0.09605       12.0110 ; qtot   -0.181
         8            n7bf         1   UNL        n7         8    -0.33373       14.0070 ; qtot   -0.515
         9            c8bf         1   UNL        c8         9     0.43598       12.0110 ; qtot   -0.079
        10            n9bf         1   UNL        n9        10    -0.45909       14.0070 ; qtot   -0.538
        11           c10bf         1   UNL       c10        11    -0.12741       12.0110 ; qtot   -0.665
        12           c11bf         1   UNL       c11        12    -0.14664       12.0110 ; qtot   -0.812
        13           c12bf         1   UNL       c12        13     0.67129       12.0110 ; qtot   -0.141
        14           f13bf         1   UNL       f13        14    -0.21257       18.9980 ; qtot   -0.353
        15           f14bf         1   UNL       f14        15    -0.21257       18.9980 ; qtot   -0.566
        16           f15bf         1   UNL       f15        16    -0.21257       18.9980 ; qtot   -0.778
        17           c16bf         1   UNL       c16        17    -0.21668       12.0110 ; qtot   -0.995
        18           c17bf         1   UNL       c17        18    -0.03824       12.0110 ; qtot   -1.033
        19           h18bf         1   UNL       h18        19     0.13937        1.0080 ; qtot   -0.894
        20           h19bf         1   UNL       h19        20     0.15705        1.0080 ; qtot   -0.737
        21           h20bf         1   UNL       h20        21     0.09267        1.0080 ; qtot   -0.644
        22           h21bf         1   UNL       h21        22     0.09267        1.0080 ; qtot   -0.551
        23           h22bf         1   UNL       h22        23     0.33581        1.0080 ; qtot   -0.216
        24           h23bf         1   UNL       h23        24     0.33581        1.0080 ; qtot    0.120
        25           h24bf         1   UNL       h24        25     0.13278        1.0080 ; qtot    0.253
        26           h25bf         1   UNL       h25        26     0.13278        1.0080 ; qtot    0.386
        27           h26bf         1   UNL       h26        27     0.13093        1.0080 ; qtot    0.517
        28           h27bf         1   UNL       h27        28     0.15080        1.0080 ; qtot    0.667
        29           c28bf         1   UNL       c28        29     0.42192       12.0110 ; qtot    1.089
        30           n29bf         1   UNL       n29        30    -0.65960       14.0070 ; qtot    0.430
        31           c30bf         1   UNL       c30        31     0.41359       12.0110 ; qtot    0.843
        32           c31bf         1   UNL       c31        32    -0.15286       12.0110 ; qtot    0.691
        33           c32bf         1   UNL       c32        33    -0.06219       12.0110 ; qtot    0.628
        34           c33bf         1   UNL       c33        34    -0.08652       12.0110 ; qtot    0.542
        35           h34bf         1   UNL       h34        35     0.02969        1.0080 ; qtot    0.572
        36           h35bf         1   UNL       h35        36     0.02398        1.0080 ; qtot    0.595
        37           h36bf         1   UNL       h36        37     0.14700        1.0080 ; qtot    0.742
        38           c37bf         1   UNL       c37        38    -0.10584       12.0110 ; qtot    0.637
        39           c38bf         1   UNL       c38        39    -0.12260       12.0110 ; qtot    0.514
        40           c39bf         1   UNL       c39        40     0.21825       12.0110 ; qtot    0.732
        41           h40bf         1   UNL       h40        41     0.05336        1.0080 ; qtot    0.786
        42           h41bf         1   UNL       h41        42     0.05336        1.0080 ; qtot    0.839
        43           o42bf         1   UNL       o42        43    -0.40810       15.9990 ; qtot    0.431
        44           c43bf         1   UNL       c43        44     0.11631       12.0110 ; qtot    0.547
        45           h44bf         1   UNL       h44        45     0.03525        1.0080 ; qtot    0.582
        46           h45bf         1   UNL       h45        46     0.03525        1.0080 ; qtot    0.618
        47           h46bf         1   UNL       h46        47     0.03525        1.0080 ; qtot    0.653
        48           h47bf         1   UNL       h47        48     0.34703        1.0080 ; qtot    1.000

[ bonds ]
;       ai        aj funct               r               k
         1         2     1        0.140653   338160.257227    ;  uncertainty r = 0.000044, k = 4.118530
         1        18     1        0.140286   338285.593359    ;  uncertainty r = 0.000125, k = 6.417548
         1        32     1        0.147628   271941.562207    ;  uncertainty r = 0.000077, k = 3.932981
         2         3     1        0.139504   370452.059717    ;  uncertainty r = 0.000063, k = 1.620611
         2        19     1        0.108746   334672.475439    ;  uncertainty r = 0.000021, k = 1.515054
         3         4     1        0.139024   367202.232715    ;  uncertainty r = 0.000070, k = 8.979848
         3        20     1        0.108822   336902.503516    ;  uncertainty r = 0.000021, k = 1.817738
         4         5     1        0.137509   343700.686328    ;  uncertainty r = 0.000179, k = 19.116434
         4        17     1        0.139333   351773.605029    ;  uncertainty r = 0.000213, k = 17.109522
         5         6     1        0.144012   215686.681152    ;  uncertainty r = 0.000106, k = 2.989013
         6         7     1        0.155319   193128.577734    ;  uncertainty r = 0.000237, k = 19.986155
         6        21     1        0.109327   310289.107129    ;  uncertainty r = 0.000068, k = 4.450517
         6        22     1        0.109327   310289.107129    ;  uncertainty r = 0.000068, k = 4.450517
         7         8     1        0.149238   248163.423389    ;  uncertainty r = 0.000294, k = 40.887908
         7        12     1        0.155238   176558.952002    ;  uncertainty r = 0.000286, k = 21.473646
         7        17     1        0.150620   246418.319482    ;  uncertainty r = 0.000286, k = 16.949541
         8         9     1        0.131533   554108.898047    ;  uncertainty r = 0.000318, k = 21.274791
         8        48     1        0.101696   420138.643018    ;  uncertainty r = 0.000100, k = 16.373031
         9        10     1        0.132738   290574.279932    ;  uncertainty r = 0.000241, k = 31.208321
         9        11     1        0.150433   235965.035742    ;  uncertainty r = 0.000166, k = 16.389584
        10        23     1        0.101487   418300.711719    ;  uncertainty r = 0.000059, k = 13.320181
        10        24     1        0.101487   418300.711719    ;  uncertainty r = 0.000059, k = 13.320181
        11        12     1        0.154112   199608.874609    ;  uncertainty r = 0.000169, k = 22.900523
        11        25     1        0.109402   313314.105420    ;  uncertainty r = 0.000078, k = 2.924089
        11        26     1        0.109402   313314.105420    ;  uncertainty r = 0.000078, k = 2.924089
        12        13     1        0.151683   201697.171729    ;  uncertainty r = 0.000428, k = 17.355847
        12        27     1        0.109312   310751.430957    ;  uncertainty r = 0.000074, k = 5.309695
        13        14     1        0.135045   285925.325781    ;  uncertainty r = 0.000152, k = 10.444849
        13        15     1        0.135045   285925.325781    ;  uncertainty r = 0.000152, k = 10.444849
        13        16     1        0.135045   285925.325781    ;  uncertainty r = 0.000152, k = 10.444849
        17        18     1        0.138717   363195.102734    ;  uncertainty r = 0.000053, k = 6.380779
        18        28     1        0.108815   334256.527002    ;  uncertainty r = 0.000017, k = 1.640780
        29        30     1        0.133258   394990.233984    ;  uncertainty r = 0.000038, k = 7.244782
        29        34     1        0.140764   338220.499268    ;  uncertainty r = 0.000050, k = 6.149319
        29        35     1        0.108973   335495.893994    ;  uncertainty r = 0.000036, k = 1.962774
        30        31     1        0.133589   387702.760156    ;  uncertainty r = 0.000067, k = 6.123866
        31        32     1        0.140377   327985.481201    ;  uncertainty r = 0.000031, k = 5.194654
        31        36     1        0.109038   335225.992285    ;  uncertainty r = 0.000023, k = 2.561694
        32        33     1        0.139448   358309.470654    ;  uncertainty r = 0.000083, k = 7.260000
        33        34     1        0.140241   366871.425000    ;  uncertainty r = 0.000072, k = 5.843096
        33        37     1        0.108770   333050.358252    ;  uncertainty r = 0.000038, k = 2.555135
        34        38     1        0.143039   316953.705322    ;  uncertainty r = 0.000078, k = 4.141215
        38        39     1        0.121567   970118.828906    ;  uncertainty r = 0.000075, k = 3.918852
        39        40     1        0.147289   281994.653906    ;  uncertainty r = 0.000107, k = 11.099759
        40        41     1        0.110009   304712.185498    ;  uncertainty r = 0.000048, k = 2.144937
        40        42     1        0.110009   304712.185498    ;  uncertainty r = 0.000048, k = 2.144937
        40        43     1        0.141809   246224.671582    ;  uncertainty r = 0.000087, k = 10.762357
        43        44     1        0.141994   252573.094824    ;  uncertainty r = 0.000054, k = 6.668919
        44        45     1        0.109769   310358.568066    ;  uncertainty r = 0.000024, k = 0.977323
        44        46     1        0.109769   310358.568066    ;  uncertainty r = 0.000024, k = 0.977334
        44        47     1        0.109769   310358.568066    ;  uncertainty r = 0.000024, k = 0.977323

[ angles ]
;       ai        aj        ak funct           theta             cth
         1         2         3     1      123.357788      531.198785    ;  uncertainty theta = 0.003314, k = 0.023465
         1         2        19     1      118.115829      278.025255    ;  uncertainty theta = 0.001455, k = 0.097786
         1        18        17     1      120.029785      510.435806    ;  uncertainty theta = 0.005421, k = 0.227020
         1        18        28     1      119.434250      278.231850    ;  uncertainty theta = 0.004249, k = 0.118348
         1        32        31     1      120.904068      397.770102    ;  uncertainty theta = 0.002865, k = 0.091562
         1        32        33     1      121.748642      407.012492    ;  uncertainty theta = 0.003369, k = 0.098032
         2         1        18     1      121.227005      431.043487    ;  uncertainty theta = 0.003819, k = 0.103355
         2         1        32     1      120.455917      415.198636    ;  uncertainty theta = 0.001930, k = 0.164754
         2         3         4     1      116.328880      515.992873    ;  uncertainty theta = 0.002059, k = 0.117142
         2         3        20     1      121.683670      281.669369    ;  uncertainty theta = 0.001122, k = 0.071199
         3         2        19     1      119.484665      291.753718    ;  uncertainty theta = 0.002322, k = 0.029381
         3         4         5     1      124.924881      488.618687    ;  uncertainty theta = 0.002028, k = 0.117801
         3         4        17     1      119.934898      366.401817    ;  uncertainty theta = 0.003286, k = 0.084968
         4         3        20     1      121.797279      286.626217    ;  uncertainty theta = 0.003142, k = 0.193852
         4         5         6     1      109.833389      733.974191    ;  uncertainty theta = 0.006277, k = 0.251566
         4        17         7     1      110.256615      602.612130    ;  uncertainty theta = 0.008372, k = 0.148469
         4        17        18     1      119.633873      398.794235    ;  uncertainty theta = 0.003885, k = 0.298000
         5         4        17     1      115.587479      688.401942    ;  uncertainty theta = 0.005585, k = 0.321760
         5         6         7     1      108.290939      799.024806    ;  uncertainty theta = 0.008649, k = 0.134007
         5         6        21     1      107.634384      492.465789    ;  uncertainty theta = 0.004233, k = 0.101716
         5         6        22     1      107.634384      492.465789    ;  uncertainty theta = 0.004233, k = 0.101716
         6         7         8     1      110.412369      668.683208    ;  uncertainty theta = 0.009979, k = 0.524178
         6         7        12     1      111.489014      511.552799    ;  uncertainty theta = 0.010562, k = 0.300596
         6         7        17     1      104.297585      541.627534    ;  uncertainty theta = 0.013019, k = 0.226919
         7         6        21     1      109.334763      390.289516    ;  uncertainty theta = 0.003095, k = 0.085246
         7         6        22     1      109.334763      390.289516    ;  uncertainty theta = 0.003095, k = 0.085246
         7         8         9     1      113.904442      621.533085    ;  uncertainty theta = 0.010771, k = 0.336518
         7         8        48     1      117.626488      279.688870    ;  uncertainty theta = 0.014831, k = 0.214756
         7        12        11     1      107.458046      679.448249    ;  uncertainty theta = 0.004545, k = 0.222828
         7        12        13     1      108.382858      500.438155    ;  uncertainty theta = 0.005346, k = 0.125298
         7        12        27     1      107.466652      386.605022    ;  uncertainty theta = 0.007218, k = 0.107254
         7        17        18     1      126.927330      372.525775    ;  uncertainty theta = 0.004202, k = 0.135799
         8         7        12     1      104.663368      626.969936    ;  uncertainty theta = 0.003811, k = 0.435925
         8         7        17     1      112.157005      630.090315    ;  uncertainty theta = 0.014279, k = 0.538860
         8         9        10     1      127.264977      700.507617    ;  uncertainty theta = 0.010047, k = 0.449642
         8         9        11     1      113.992188      590.265193    ;  uncertainty theta = 0.013347, k = 0.205088
         9         8        48     1      119.805786      332.736948    ;  uncertainty theta = 0.014389, k = 0.066564
         9        10        23     1      114.784744      366.422981    ;  uncertainty theta = 0.008184, k = 0.362672
         9        10        24     1      114.784744      366.422981    ;  uncertainty theta = 0.008184, k = 0.362672
         9        11        12     1      105.264221      716.346435    ;  uncertainty theta = 0.005817, k = 0.169748
         9        11        25     1      109.041626      381.009522    ;  uncertainty theta = 0.004480, k = 0.162059
         9        11        26     1      109.041626      381.009522    ;  uncertainty theta = 0.004480, k = 0.162059
        10         9        11     1      125.571922      438.913960    ;  uncertainty theta = 0.013820, k = 0.237812
        11        12        13     1      107.037880      508.892790    ;  uncertainty theta = 0.010727, k = 0.149732
        11        12        27     1      108.736107      399.315192    ;  uncertainty theta = 0.004788, k = 0.123631
        12         7        17     1      113.246193      523.127590    ;  uncertainty theta = 0.007890, k = 0.517895
        12        11        25     1      108.692787      375.537686    ;  uncertainty theta = 0.003299, k = 0.147589
        12        11        26     1      108.692787      375.537686    ;  uncertainty theta = 0.003299, k = 0.147589
        12        13        14     1      111.812241      595.089025    ;  uncertainty theta = 0.006407, k = 0.238063
        12        13        15     1      111.812241      595.089025    ;  uncertainty theta = 0.006407, k = 0.238063
        12        13        16     1      111.812241      595.089025    ;  uncertainty theta = 0.006407, k = 0.238063
        13        12        27     1      105.628067      408.465969    ;  uncertainty theta = 0.006757, k = 0.130342
        14        13        15     1      109.127151      808.571279    ;  uncertainty theta = 0.003719, k = 0.057240
        14        13        16     1      109.127151      808.571279    ;  uncertainty theta = 0.003719, k = 0.057240
        15        13        16     1      109.127151      808.571279    ;  uncertainty theta = 0.003719, k = 0.057240
        17        18        28     1      119.796753      283.216662    ;  uncertainty theta = 0.005302, k = 0.075360
        18         1        32     1      120.377724      410.209196    ;  uncertainty theta = 0.002980, k = 0.087571
        21         6        22     1      108.913330      325.725255    ;  uncertainty theta = 0.002097, k = 0.184465
        23        10        24     1      112.138748      267.152942    ;  uncertainty theta = 0.014743, k = 0.191618
        25        11        26     1      106.635033      299.150956    ;  uncertainty theta = 0.004150, k = 0.151740
        29        30        31     1      117.716354      391.924881    ;  uncertainty theta = 0.003305, k = 0.158173
        29        34        33     1      118.319313      392.349882    ;  uncertainty theta = 0.002376, k = 0.052610
        29        34        38     1      120.866982      378.457407    ;  uncertainty theta = 0.001665, k = 0.088146
        30        29        34     1      123.185036      708.180689    ;  uncertainty theta = 0.001724, k = 0.067010
        30        29        35     1      117.018288      337.856276    ;  uncertainty theta = 0.002317, k = 0.034294
        30        31        32     1      124.414261      711.643968    ;  uncertainty theta = 0.002373, k = 0.078654
        30        31        36     1      116.326248      341.593313    ;  uncertainty theta = 0.001391, k = 0.058385
        31        32        33     1      117.891380      383.374737    ;  uncertainty theta = 0.000903, k = 0.198750
        32        31        36     1      119.062683      265.652334    ;  uncertainty theta = 0.002622, k = 0.078309
        32        33        34     1      119.663574      547.614837    ;  uncertainty theta = 0.002048, k = 0.116366
        32        33        37     1      119.841934      272.395631    ;  uncertainty theta = 0.001967, k = 0.108798
        33        34        38     1      121.949905      390.041104    ;  uncertainty theta = 0.002120, k = 0.138417
        34        29        35     1      119.657349      274.645802    ;  uncertainty theta = 0.002311, k = 0.170978
        34        33        37     1      119.924744      283.980509    ;  uncertainty theta = 0.003275, k = 0.076830
        34        38        39     1      180.000000      188.819854    ;  uncertainty theta = 0.000000, k = 0.568857
        38        39        40     1      179.723999      167.360000    ;  uncertainty theta = 0.003434, k = 0.000000
        39        40        41     1      108.975784      406.791820    ;  uncertainty theta = 0.004809, k = 0.068698
        39        40        42     1      108.975784      406.791820    ;  uncertainty theta = 0.004809, k = 0.068698
        39        40        43     1      111.247154      604.406240    ;  uncertainty theta = 0.001925, k = 0.178333
        40        43        44     1      108.622604      566.174505    ;  uncertainty theta = 0.001610, k = 0.075906
        41        40        42     1      106.580467      317.538984    ;  uncertainty theta = 0.002504, k = 0.058830
        41        40        43     1      107.826439      447.226193    ;  uncertainty theta = 0.001811, k = 0.039450
        42        40        43     1      107.826439      447.226193    ;  uncertainty theta = 0.001811, k = 0.039450
        43        44        45     1      109.372421      462.624591    ;  uncertainty theta = 0.001210, k = 0.032057
        43        44        46     1      109.372421      462.624591    ;  uncertainty theta = 0.001210, k = 0.032057
        43        44        47     1      109.372421      462.624591    ;  uncertainty theta = 0.001210, k = 0.032057
        45        44        46     1      108.707809      325.247999    ;  uncertainty theta = 0.001870, k = 0.028493
        45        44        47     1      108.707809      325.247999    ;  uncertainty theta = 0.001870, k = 0.028493
        46        44        47     1      108.707809      325.248031    ;  uncertainty theta = 0.001870, k = 0.028493

[ dihedrals ] ; propers for gromacs 4.5 or higher, use funct 9
;       ai        aj        ak        al funct           phase               k        pn
         1         2         3         4     9        0.000000        0.048402         1    ;  uncertainty k = 0.321532
         1         2         3         4     9      180.000000       14.553322         2    ;  uncertainty k = 0.337055
         1         2         3         4     9        0.000000       -0.529993         3    ;  uncertainty k = 0.550751
         1         2         3         4     9      180.000000        0.813893         4    ;  uncertainty k = 0.391022
         1         2         3        20     9        0.000000        0.173970         1    ;  uncertainty k = 0.164408
         1         2         3        20     9      180.000000        8.090779         2    ;  uncertainty k = 0.353055
         1         2         3        20     9        0.000000        1.486978         3    ;  uncertainty k = 0.224073
         1         2         3        20     9      180.000000        1.882742         4    ;  uncertainty k = 0.209328
         1        18        17         4     9        0.000000       -0.017897         1    ;  uncertainty k = 0.525325
         1        18        17         4     9      180.000000       15.057975         2    ;  uncertainty k = 0.299998
         1        18        17         4     9        0.000000       -1.486875         3    ;  uncertainty k = 0.738148
         1        18        17         4     9      180.000000        0.526841         4    ;  uncertainty k = 0.643001
         1        18        17         7     9        0.000000        0.442615         1    ;  uncertainty k = 0.384260
         1        18        17         7     9      180.000000        7.716112         2    ;  uncertainty k = 0.755114
         1        18        17         7     9        0.000000        1.502922         3    ;  uncertainty k = 0.204160
         1        18        17         7     9      180.000000        1.853980         4    ;  uncertainty k = 0.263344
         1        32        31        30     9        0.000000        0.190654         1    ;  uncertainty k = 0.221259
         1        32        31        30     9      180.000000        9.575565         2    ;  uncertainty k = 0.309530
         1        32        31        30     9        0.000000        1.022006         3    ;  uncertainty k = 0.280083
         1        32        31        30     9      180.000000        1.701381         4    ;  uncertainty k = 0.198667
         1        32        31        36     9        0.000000       -0.428360         1    ;  uncertainty k = 0.743012
         1        32        31        36     9      180.000000        6.157823         2    ;  uncertainty k = 0.808727
         1        32        31        36     9        0.000000        0.848529         3    ;  uncertainty k = 0.205969
         1        32        31        36     9      180.000000        1.116518         4    ;  uncertainty k = 0.226223
         1        32        33        34     9        0.000000        0.038396         1    ;  uncertainty k = 0.224983
         1        32        33        34     9      180.000000        9.009670         2    ;  uncertainty k = 0.343078
         1        32        33        34     9        0.000000        1.235506         3    ;  uncertainty k = 0.290871
         1        32        33        34     9      180.000000        1.764854         4    ;  uncertainty k = 0.058959
         1        32        33        37     9        0.000000       -0.021126         1    ;  uncertainty k = 0.241049
         1        32        33        37     9      180.000000        7.348524         2    ;  uncertainty k = 0.165002
         1        32        33        37     9        0.000000        0.846743         3    ;  uncertainty k = 0.200433
         1        32        33        37     9      180.000000        1.220126         4    ;  uncertainty k = 0.142165
         2         1        18        17     9        0.000000        0.200172         1    ;  uncertainty k = 0.476509
         2         1        18        17     9      180.000000       10.851135         2    ;  uncertainty k = 0.325130
         2         1        18        17     9        0.000000       -0.053710         3    ;  uncertainty k = 0.624114
         2         1        18        17     9      180.000000        1.102967         4    ;  uncertainty k = 0.422954
         2         1        18        28     9        0.000000        0.099746         1    ;  uncertainty k = 0.255850
         2         1        18        28     9      180.000000        7.103780         2    ;  uncertainty k = 0.619218
         2         1        18        28     9        0.000000        1.395203         3    ;  uncertainty k = 0.211257
         2         1        18        28     9      180.000000        1.605970         4    ;  uncertainty k = 0.214911
         2         1        32        31     9        0.000000       -0.223924         1    ;  uncertainty k = 0.799577
         2         1        32        31     9      180.000000        3.411929         2    ;  uncertainty k = 0.119506
         2         1        32        31     9        0.000000        0.391724         3    ;  uncertainty k = 0.146185
         2         1        32        31     9      180.000000       -0.136540         4    ;  uncertainty k = 0.030853
         2         1        32        33     9        0.000000       -0.349319         1    ;  uncertainty k = 0.459735
         2         1        32        33     9      180.000000        3.798130         2    ;  uncertainty k = 0.131219
         2         1        32        33     9        0.000000        0.343136         3    ;  uncertainty k = 0.134166
         2         1        32        33     9      180.000000       -0.056506         4    ;  uncertainty k = 0.025170
         2         3         4         5     9        0.000000        0.276215         1    ;  uncertainty k = 0.180488
         2         3         4         5     9      180.000000       10.079093         2    ;  uncertainty k = 0.467620
         2         3         4         5     9        0.000000        1.501645         3    ;  uncertainty k = 0.261901
         2         3         4         5     9      180.000000        1.661949         4    ;  uncertainty k = 0.192986
         2         3         4        17     9        0.000000        0.224186         1    ;  uncertainty k = 0.157859
         2         3         4        17     9      180.000000       11.045601         2    ;  uncertainty k = 0.112420
         2         3         4        17     9        0.000000       -0.800072         3    ;  uncertainty k = 0.476584
         2         3         4        17     9      180.000000        1.036737         4    ;  uncertainty k = 0.346310
         3         2         1        18     9        0.000000       -0.047614         1    ;  uncertainty k = 0.063447
         3         2         1        18     9      180.000000       10.694900         2    ;  uncertainty k = 0.278953
         3         2         1        18     9        0.000000       -0.402517         3    ;  uncertainty k = 0.362644
         3         2         1        18     9      180.000000        0.961356         4    ;  uncertainty k = 0.256669
         3         2         1        32     9        0.000000       -0.049900         1    ;  uncertainty k = 0.298396
         3         2         1        32     9      180.000000        8.450325         2    ;  uncertainty k = 0.486447
         3         2         1        32     9        0.000000        1.187808         3    ;  uncertainty k = 0.373082
         3         2         1        32     9      180.000000        1.826190         4    ;  uncertainty k = 0.173550
         3         4         5         6     9        0.000000        1.152462         1    ;  uncertainty k = 1.585817
         3         4         5         6     9      180.000000        4.949628         2    ;  uncertainty k = 0.730076
         3         4         5         6     9        0.000000        1.115777         3    ;  uncertainty k = 0.347697
         3         4         5         6     9      180.000000        0.195478         4    ;  uncertainty k = 0.204438
         3         4        17         7     9        0.000000        0.911803         1    ;  uncertainty k = 0.564592
         3         4        17         7     9      180.000000        7.013077         2    ;  uncertainty k = 0.787807
         3         4        17         7     9        0.000000        0.730413         3    ;  uncertainty k = 0.298923
         3         4        17         7     9      180.000000        1.398512         4    ;  uncertainty k = 0.222633
         3         4        17        18     9        0.000000       -0.590402         1    ;  uncertainty k = 0.862500
         3         4        17        18     9      180.000000        7.977225         2    ;  uncertainty k = 0.388877
         3         4        17        18     9        0.000000       -0.356805         3    ;  uncertainty k = 0.207091
         3         4        17        18     9      180.000000        0.976979         4    ;  uncertainty k = 0.319916
         4         3         2        19     9        0.000000        0.204581         1    ;  uncertainty k = 0.178521
         4         3         2        19     9      180.000000        9.702093         2    ;  uncertainty k = 0.498668
         4         3         2        19     9        0.000000        1.242039         3    ;  uncertainty k = 0.316141
         4         3         2        19     9      180.000000        1.693981         4    ;  uncertainty k = 0.183772
         4         5         6         7     9        0.000000        1.176082         1    ;  uncertainty k = 2.254001
         4         5         6         7     9      180.000000        2.200468         2    ;  uncertainty k = 1.959275
         4         5         6         7     9        0.000000        0.377506         3    ;  uncertainty k = 0.199603
         4         5         6         7     9      180.000000       -0.735147         4    ;  uncertainty k = 0.150056
         4         5         6        21     9        0.000000       -1.328090         1    ;  uncertainty k = 0.917091
         4         5         6        21     9      180.000000       -0.651918         2    ;  uncertainty k = 0.292183
         4         5         6        21     9        0.000000        0.903425         3    ;  uncertainty k = 0.219575
         4         5         6        21     9      180.000000        0.315703         4    ;  uncertainty k = 0.187234
         4         5         6        22     9        0.000000       -1.328090         1    ;  uncertainty k = 0.917091
         4         5         6        22     9      180.000000       -0.651918         2    ;  uncertainty k = 0.292183
         4         5         6        22     9        0.000000        0.903425         3    ;  uncertainty k = 0.219575
         4         5         6        22     9      180.000000        0.315703         4    ;  uncertainty k = 0.187234
         4        17         7         6     9        0.000000       -0.959061         1    ;  uncertainty k = 2.671996
         4        17         7         6     9      180.000000        5.388477         2    ;  uncertainty k = 0.693798
         4        17         7         6     9        0.000000       -1.214646         3    ;  uncertainty k = 0.191276
         4        17         7         6     9      180.000000        1.164834         4    ;  uncertainty k = 0.354061
         4        17         7         8     9        0.000000       -1.680820         1    ;  uncertainty k = 1.968784
         4        17         7         8     9      180.000000        4.937914         2    ;  uncertainty k = 0.757981
         4        17         7         8     9        0.000000       -0.251266         3    ;  uncertainty k = 0.552638
         4        17         7         8     9      180.000000        0.696574         4    ;  uncertainty k = 0.165418
         4        17         7        12     9        0.000000       -0.229911         1    ;  uncertainty k = 2.608666
         4        17         7        12     9      180.000000        4.390771         2    ;  uncertainty k = 0.986315
         4        17         7        12     9        0.000000       -0.817209         3    ;  uncertainty k = 0.565763
         4        17         7        12     9      180.000000        0.943662         4    ;  uncertainty k = 0.243858
         4        17        18        28     9        0.000000        0.046917         1    ;  uncertainty k = 0.202223
         4        17        18        28     9      180.000000        8.473792         2    ;  uncertainty k = 0.738902
         4        17        18        28     9        0.000000        1.165418         3    ;  uncertainty k = 0.399814
         4        17        18        28     9      180.000000        1.591924         4    ;  uncertainty k = 0.220058
         5         4         3        20     9        0.000000       -0.089813         1    ;  uncertainty k = 0.608505
         5         4         3        20     9      180.000000        7.277219         2    ;  uncertainty k = 0.374441
         5         4         3        20     9        0.000000        0.812417         3    ;  uncertainty k = 0.429574
         5         4         3        20     9      180.000000        0.954123         4    ;  uncertainty k = 0.294525
         5         4        17         7     9        0.000000        0.524301         1    ;  uncertainty k = 1.268988
         5         4        17         7     9      180.000000       14.435207         2    ;  uncertainty k = 1.049313
         5         4        17         7     9        0.000000       -1.244748         3    ;  uncertainty k = 0.951827
         5         4        17         7     9      180.000000        1.148944         4    ;  uncertainty k = 0.434541
         5         4        17        18     9        0.000000       -0.192727         1    ;  uncertainty k = 0.321802
         5         4        17        18     9      180.000000        8.886129         2    ;  uncertainty k = 0.452104
         5         4        17        18     9        0.000000        0.216010         3    ;  uncertainty k = 0.291373
         5         4        17        18     9      180.000000        1.319955         4    ;  uncertainty k = 0.109417
         5         6         7         8     9        0.000000        2.871284         1    ;  uncertainty k = 2.149819
         5         6         7         8     9      180.000000       -1.533731         2    ;  uncertainty k = 0.870361
         5         6         7         8     9        0.000000        1.710723         3    ;  uncertainty k = 0.362780
         5         6         7         8     9      180.000000        0.002185         4    ;  uncertainty k = 0.251364
         5         6         7        12     9        0.000000        2.896665         1    ;  uncertainty k = 1.603272
         5         6         7        12     9      180.000000       -0.300345         2    ;  uncertainty k = 1.318280
         5         6         7        12     9        0.000000        1.339077         3    ;  uncertainty k = 0.812822
         5         6         7        12     9      180.000000        0.160649         4    ;  uncertainty k = 0.156091
         5         6         7        17     9        0.000000        0.723540         1    ;  uncertainty k = 1.831049
         5         6         7        17     9      180.000000        0.487930         2    ;  uncertainty k = 1.223138
         5         6         7        17     9        0.000000        1.726589         3    ;  uncertainty k = 0.220636
         5         6         7        17     9      180.000000        0.217790         4    ;  uncertainty k = 0.209170
         6         5         4        17     9        0.000000        0.025312         1    ;  uncertainty k = 1.036128
         6         5         4        17     9      180.000000        9.894148         2    ;  uncertainty k = 0.632805
         6         5         4        17     9        0.000000       -0.406036         3    ;  uncertainty k = 1.206785
         6         5         4        17     9      180.000000        0.267939         4    ;  uncertainty k = 0.292542
         6         7         8         9     9        0.000000       -1.711379         1    ;  uncertainty k = 1.193596
         6         7         8         9     9      180.000000        1.815883         2    ;  uncertainty k = 0.362315
         6         7         8         9     9        0.000000       -0.256869         3    ;  uncertainty k = 0.525786
         6         7         8         9     9      180.000000        0.281123         4    ;  uncertainty k = 0.140704
         6         7         8        48     9        0.000000        0.552998         1    ;  uncertainty k = 0.964473
         6         7         8        48     9      180.000000       -0.220526         2    ;  uncertainty k = 0.549672
         6         7         8        48     9        0.000000        0.482207         3    ;  uncertainty k = 0.244869
         6         7         8        48     9      180.000000        0.254775         4    ;  uncertainty k = 0.150035
         6         7        12        11     9        0.000000       -1.742972         1    ;  uncertainty k = 1.049641
         6         7        12        11     9      180.000000        0.290787         2    ;  uncertainty k = 0.431170
         6         7        12        11     9        0.000000        0.259070         3    ;  uncertainty k = 0.095799
         6         7        12        11     9      180.000000       -0.129613         4    ;  uncertainty k = 0.159968
         6         7        12        13     9        0.000000       -2.749955         1    ;  uncertainty k = 1.622536
         6         7        12        13     9      180.000000        0.018694         2    ;  uncertainty k = 0.529488
         6         7        12        13     9        0.000000        0.197309         3    ;  uncertainty k = 0.327199
         6         7        12        13     9      180.000000       -0.152029         4    ;  uncertainty k = 0.180296
         6         7        12        27     9        0.000000       -1.140495         1    ;  uncertainty k = 0.855635
         6         7        12        27     9      180.000000        0.245824         2    ;  uncertainty k = 0.336800
         6         7        12        27     9        0.000000        0.429575         3    ;  uncertainty k = 0.091076
         6         7        12        27     9      180.000000       -0.143918         4    ;  uncertainty k = 0.086149
         6         7        17        18     9        0.000000        0.266231         1    ;  uncertainty k = 0.596584
         6         7        17        18     9      180.000000        1.954698         2    ;  uncertainty k = 0.417985
         6         7        17        18     9        0.000000        0.200011         3    ;  uncertainty k = 0.214605
         6         7        17        18     9      180.000000        0.497549         4    ;  uncertainty k = 0.200090
         7         8         9        10     9        0.000000        1.995922         1    ;  uncertainty k = 1.650883
         7         8         9        10     9      180.000000       15.921893         2    ;  uncertainty k = 0.406608
         7         8         9        10     9        0.000000        0.067910         3    ;  uncertainty k = 0.492343
         7         8         9        10     9      180.000000       -0.443555         4    ;  uncertainty k = 0.308620
         7         8         9        11     9        0.000000        1.136276         1    ;  uncertainty k = 2.314670
         7         8         9        11     9      180.000000       16.202314         2    ;  uncertainty k = 0.690999
         7         8         9        11     9        0.000000        0.545622         3    ;  uncertainty k = 1.241279
         7         8         9        11     9      180.000000       -0.158888         4    ;  uncertainty k = 0.659732
         7        12        11         9     9        0.000000        0.086671         1    ;  uncertainty k = 2.401135
         7        12        11         9     9      180.000000        2.589060         2    ;  uncertainty k = 0.898404
         7        12        11         9     9        0.000000        0.007880         3    ;  uncertainty k = 0.355285
         7        12        11         9     9      180.000000       -0.150841         4    ;  uncertainty k = 0.411089
         7        12        11        25     9        0.000000        0.281111         1    ;  uncertainty k = 0.593397
         7        12        11        25     9      180.000000       -0.569363         2    ;  uncertainty k = 0.729864
         7        12        11        25     9        0.000000        0.167660         3    ;  uncertainty k = 0.186242
         7        12        11        25     9      180.000000       -0.033607         4    ;  uncertainty k = 0.216669
         7        12        11        26     9        0.000000        0.281111         1    ;  uncertainty k = 0.593397
         7        12        11        26     9      180.000000       -0.569363         2    ;  uncertainty k = 0.729864
         7        12        11        26     9        0.000000        0.167660         3    ;  uncertainty k = 0.186242
         7        12        11        26     9      180.000000       -0.033607         4    ;  uncertainty k = 0.216669
         7        12        13        14     9        0.000000       -2.005942         1    ;  uncertainty k = 1.034447
         7        12        13        14     9      180.000000        0.341661         2    ;  uncertainty k = 0.591005
         7        12        13        14     9        0.000000        0.306573         3    ;  uncertainty k = 0.281148
         7        12        13        14     9      180.000000       -0.168225         4    ;  uncertainty k = 0.177075
         7        12        13        15     9        0.000000       -2.005942         1    ;  uncertainty k = 1.034447
         7        12        13        15     9      180.000000        0.341661         2    ;  uncertainty k = 0.591005
         7        12        13        15     9        0.000000        0.306573         3    ;  uncertainty k = 0.281148
         7        12        13        15     9      180.000000       -0.168225         4    ;  uncertainty k = 0.177075
         7        12        13        16     9        0.000000       -2.005942         1    ;  uncertainty k = 1.034447
         7        12        13        16     9      180.000000        0.341661         2    ;  uncertainty k = 0.591005
         7        12        13        16     9        0.000000        0.306573         3    ;  uncertainty k = 0.281148
         7        12        13        16     9      180.000000       -0.168225         4    ;  uncertainty k = 0.177075
         7        17        18        28     9        0.000000        0.327505         1    ;  uncertainty k = 1.098616
         7        17        18        28     9      180.000000        6.066577         2    ;  uncertainty k = 0.639356
         7        17        18        28     9        0.000000        0.989842         3    ;  uncertainty k = 0.306411
         7        17        18        28     9      180.000000        1.024869         4    ;  uncertainty k = 0.149657
         8         7         6        21     9        0.000000       -0.344895         1    ;  uncertainty k = 0.432581
         8         7         6        21     9      180.000000       -0.871576         2    ;  uncertainty k = 0.656834
         8         7         6        21     9        0.000000        0.509970         3    ;  uncertainty k = 0.179247
         8         7         6        21     9      180.000000       -0.159376         4    ;  uncertainty k = 0.153718
         8         7         6        22     9        0.000000       -0.344895         1    ;  uncertainty k = 0.432581
         8         7         6        22     9      180.000000       -0.871576         2    ;  uncertainty k = 0.656834
         8         7         6        22     9        0.000000        0.509970         3    ;  uncertainty k = 0.179247
         8         7         6        22     9      180.000000       -0.159376         4    ;  uncertainty k = 0.153718
         8         7        12        11     9        0.000000       -0.550876         1    ;  uncertainty k = 1.179569
         8         7        12        11     9      180.000000        0.622165         2    ;  uncertainty k = 0.370146
         8         7        12        11     9        0.000000        1.071715         3    ;  uncertainty k = 0.305704
         8         7        12        11     9      180.000000       -0.173973         4    ;  uncertainty k = 0.195396
         8         7        12        13     9        0.000000       -4.212888         1    ;  uncertainty k = 2.759184
         8         7        12        13     9      180.000000       -0.455627         2    ;  uncertainty k = 1.086444
         8         7        12        13     9        0.000000        0.946085         3    ;  uncertainty k = 0.361284
         8         7        12        13     9      180.000000       -0.122077         4    ;  uncertainty k = 0.254867
         8         7        12        27     9        0.000000       -0.801559         1    ;  uncertainty k = 0.812550
         8         7        12        27     9      180.000000       -0.312905         2    ;  uncertainty k = 0.561018
         8         7        12        27     9        0.000000        0.570623         3    ;  uncertainty k = 0.081320
         8         7        12        27     9      180.000000       -0.208392         4    ;  uncertainty k = 0.111171
         8         7        17        18     9        0.000000        1.198638         1    ;  uncertainty k = 1.590536
         8         7        17        18     9      180.000000        2.462499         2    ;  uncertainty k = 0.398557
         8         7        17        18     9        0.000000        0.227475         3    ;  uncertainty k = 0.599271
         8         7        17        18     9      180.000000        0.222686         4    ;  uncertainty k = 0.152185
         8         9        10        23     9        0.000000        5.639946         1    ;  uncertainty k = 1.763033
         8         9        10        23     9      180.000000       14.999895         2    ;  uncertainty k = 0.679303
         8         9        10        23     9        0.000000        1.413217         3    ;  uncertainty k = 0.713527
         8         9        10        23     9      180.000000       -0.820261         4    ;  uncertainty k = 0.324625
         8         9        10        24     9        0.000000        5.639946         1    ;  uncertainty k = 1.763033
         8         9        10        24     9      180.000000       14.999895         2    ;  uncertainty k = 0.679303
         8         9        10        24     9        0.000000        1.413217         3    ;  uncertainty k = 0.713527
         8         9        10        24     9      180.000000       -0.820261         4    ;  uncertainty k = 0.324625
         8         9        11        12     9        0.000000       -2.481943         1    ;  uncertainty k = 1.243761
         8         9        11        12     9      180.000000        5.891752         2    ;  uncertainty k = 1.882023
         8         9        11        12     9        0.000000       -0.060209         3    ;  uncertainty k = 0.474588
         8         9        11        12     9      180.000000        0.286459         4    ;  uncertainty k = 0.306847
         8         9        11        25     9        0.000000       -1.597549         1    ;  uncertainty k = 1.394932
         8         9        11        25     9      180.000000        1.929590         2    ;  uncertainty k = 0.313827
         8         9        11        25     9        0.000000        0.502848         3    ;  uncertainty k = 0.249569
         8         9        11        25     9      180.000000        0.173344         4    ;  uncertainty k = 0.134392
         8         9        11        26     9        0.000000       -1.597549         1    ;  uncertainty k = 1.394932
         8         9        11        26     9      180.000000        1.929590         2    ;  uncertainty k = 0.313827
         8         9        11        26     9        0.000000        0.502848         3    ;  uncertainty k = 0.249569
         8         9        11        26     9      180.000000        0.173344         4    ;  uncertainty k = 0.134392
         9         8         7        12     9        0.000000       -1.805167         1    ;  uncertainty k = 1.028273
         9         8         7        12     9      180.000000        1.285877         2    ;  uncertainty k = 0.661220
         9         8         7        12     9        0.000000       -0.085003         3    ;  uncertainty k = 0.385690
         9         8         7        12     9      180.000000        0.280412         4    ;  uncertainty k = 0.136437
         9         8         7        17     9        0.000000       -0.301314         1    ;  uncertainty k = 1.238101
         9         8         7        17     9      180.000000        1.458822         2    ;  uncertainty k = 0.455171
         9         8         7        17     9        0.000000        0.280991         3    ;  uncertainty k = 0.347852
         9         8         7        17     9      180.000000        0.437656         4    ;  uncertainty k = 0.250139
         9        11        12        13     9        0.000000       -1.191830         1    ;  uncertainty k = 2.042345
         9        11        12        13     9      180.000000       -0.287155         2    ;  uncertainty k = 0.974725
         9        11        12        13     9        0.000000        0.254867         3    ;  uncertainty k = 0.326406
         9        11        12        13     9      180.000000       -0.106166         4    ;  uncertainty k = 0.222732
         9        11        12        27     9        0.000000       -1.683010         1    ;  uncertainty k = 0.934216
         9        11        12        27     9      180.000000        0.460973         2    ;  uncertainty k = 0.159081
         9        11        12        27     9        0.000000        0.577028         3    ;  uncertainty k = 0.170174
         9        11        12        27     9      180.000000        0.048389         4    ;  uncertainty k = 0.102053
        10         9         8        48     9        0.000000        1.711393         1    ;  uncertainty k = 3.097538
        10         9         8        48     9      180.000000       11.290738         2    ;  uncertainty k = 0.716713
        10         9         8        48     9        0.000000        1.263776         3    ;  uncertainty k = 0.371254
        10         9         8        48     9      180.000000       -0.199973         4    ;  uncertainty k = 0.315665
        10         9        11        12     9        0.000000        0.711012         1    ;  uncertainty k = 2.288408
        10         9        11        12     9      180.000000        2.976948         2    ;  uncertainty k = 0.726887
        10         9        11        12     9        0.000000        0.485024         3    ;  uncertainty k = 0.461905
        10         9        11        12     9      180.000000        0.390813         4    ;  uncertainty k = 0.148044
        10         9        11        25     9        0.000000       -1.018381         1    ;  uncertainty k = 1.118717
        10         9        11        25     9      180.000000        1.855627         2    ;  uncertainty k = 0.519445
        10         9        11        25     9        0.000000        0.471353         3    ;  uncertainty k = 0.243351
        10         9        11        25     9      180.000000        0.175330         4    ;  uncertainty k = 0.069887
        10         9        11        26     9        0.000000       -1.018381         1    ;  uncertainty k = 1.118717
        10         9        11        26     9      180.000000        1.855627         2    ;  uncertainty k = 0.519445
        10         9        11        26     9        0.000000        0.471353         3    ;  uncertainty k = 0.243351
        10         9        11        26     9      180.000000        0.175330         4    ;  uncertainty k = 0.069887
        11         9         8        48     9        0.000000        0.209407         1    ;  uncertainty k = 2.454945
        11         9         8        48     9      180.000000       13.064939         2    ;  uncertainty k = 0.674453
        11         9         8        48     9        0.000000        1.488201         3    ;  uncertainty k = 0.334343
        11         9         8        48     9      180.000000       -0.337287         4    ;  uncertainty k = 0.304455
        11         9        10        23     9        0.000000        1.995219         1    ;  uncertainty k = 2.390794
        11         9        10        23     9      180.000000       10.777981         2    ;  uncertainty k = 0.517169
        11         9        10        23     9        0.000000        1.163167         3    ;  uncertainty k = 0.491973
        11         9        10        23     9      180.000000       -0.557923         4    ;  uncertainty k = 0.168475
        11         9        10        24     9        0.000000        1.995219         1    ;  uncertainty k = 2.390794
        11         9        10        24     9      180.000000       10.777981         2    ;  uncertainty k = 0.517169
        11         9        10        24     9        0.000000        1.163167         3    ;  uncertainty k = 0.491973
        11         9        10        24     9      180.000000       -0.557923         4    ;  uncertainty k = 0.168475
        11        12         7        17     9        0.000000       -0.605950         1    ;  uncertainty k = 0.853928
        11        12         7        17     9      180.000000        0.866925         2    ;  uncertainty k = 0.784603
        11        12         7        17     9        0.000000        0.519531         3    ;  uncertainty k = 0.216342
        11        12         7        17     9      180.000000       -0.093916         4    ;  uncertainty k = 0.064104
        11        12        13        14     9        0.000000       -0.728367         1    ;  uncertainty k = 0.384599
        11        12        13        14     9      180.000000        0.458213         2    ;  uncertainty k = 0.349865
        11        12        13        14     9        0.000000        0.346550         3    ;  uncertainty k = 0.205131
        11        12        13        14     9      180.000000       -0.252210         4    ;  uncertainty k = 0.090757
        11        12        13        15     9        0.000000       -0.728367         1    ;  uncertainty k = 0.384599
        11        12        13        15     9      180.000000        0.458213         2    ;  uncertainty k = 0.349865
        11        12        13        15     9        0.000000        0.346550         3    ;  uncertainty k = 0.205131
        11        12        13        15     9      180.000000       -0.252210         4    ;  uncertainty k = 0.090757
        11        12        13        16     9        0.000000       -0.728367         1    ;  uncertainty k = 0.384599
        11        12        13        16     9      180.000000        0.458213         2    ;  uncertainty k = 0.349865
        11        12        13        16     9        0.000000        0.346550         3    ;  uncertainty k = 0.205131
        11        12        13        16     9      180.000000       -0.252210         4    ;  uncertainty k = 0.090757
        12         7         6        21     9        0.000000       -0.138198         1    ;  uncertainty k = 0.304670
        12         7         6        21     9      180.000000       -0.978930         2    ;  uncertainty k = 0.334306
        12         7         6        21     9        0.000000       -0.066286         3    ;  uncertainty k = 0.110908
        12         7         6        21     9      180.000000       -0.158394         4    ;  uncertainty k = 0.112943
        12         7         6        22     9        0.000000       -0.138198         1    ;  uncertainty k = 0.304670
        12         7         6        22     9      180.000000       -0.978930         2    ;  uncertainty k = 0.334306
        12         7         6        22     9        0.000000       -0.066286         3    ;  uncertainty k = 0.110908
        12         7         6        22     9      180.000000       -0.158394         4    ;  uncertainty k = 0.112943
        12         7         8        48     9        0.000000        1.289548         1    ;  uncertainty k = 0.893061
        12         7         8        48     9      180.000000       -0.728208         2    ;  uncertainty k = 1.432712
        12         7         8        48     9        0.000000        0.531329         3    ;  uncertainty k = 0.283826
        12         7         8        48     9      180.000000        0.176152         4    ;  uncertainty k = 0.192879
        12         7        17        18     9        0.000000        0.447487         1    ;  uncertainty k = 0.654637
        12         7        17        18     9      180.000000        1.725451         2    ;  uncertainty k = 0.564058
        12         7        17        18     9        0.000000        0.255938         3    ;  uncertainty k = 0.415281
        12         7        17        18     9      180.000000        0.417263         4    ;  uncertainty k = 0.099784
        13        12         7        17     9        0.000000       -0.682746         1    ;  uncertainty k = 1.387778
        13        12         7        17     9      180.000000        0.137620         2    ;  uncertainty k = 0.599277
        13        12         7        17     9        0.000000        0.486183         3    ;  uncertainty k = 0.182798
        13        12         7        17     9      180.000000       -0.023587         4    ;  uncertainty k = 0.092374
        13        12        11        25     9        0.000000        0.576002         1    ;  uncertainty k = 0.389149
        13        12        11        25     9      180.000000       -0.755541         2    ;  uncertainty k = 0.252053
        13        12        11        25     9        0.000000        0.509245         3    ;  uncertainty k = 0.150473
        13        12        11        25     9      180.000000       -0.151936         4    ;  uncertainty k = 0.054750
        13        12        11        26     9        0.000000        0.576002         1    ;  uncertainty k = 0.389149
        13        12        11        26     9      180.000000       -0.755541         2    ;  uncertainty k = 0.252053
        13        12        11        26     9        0.000000        0.509245         3    ;  uncertainty k = 0.150473
        13        12        11        26     9      180.000000       -0.151936         4    ;  uncertainty k = 0.054750
        14        13        12        27     9        0.000000       -0.478553         1    ;  uncertainty k = 0.648782
        14        13        12        27     9      180.000000       -0.280066         2    ;  uncertainty k = 0.237277
        14        13        12        27     9        0.000000        0.468749         3    ;  uncertainty k = 0.182964
        14        13        12        27     9      180.000000       -0.084173         4    ;  uncertainty k = 0.105865
        15        13        12        27     9        0.000000       -0.478553         1    ;  uncertainty k = 0.648782
        15        13        12        27     9      180.000000       -0.280066         2    ;  uncertainty k = 0.237277
        15        13        12        27     9        0.000000        0.468749         3    ;  uncertainty k = 0.182964
        15        13        12        27     9      180.000000       -0.084173         4    ;  uncertainty k = 0.105865
        16        13        12        27     9        0.000000       -0.478553         1    ;  uncertainty k = 0.648782
        16        13        12        27     9      180.000000       -0.280066         2    ;  uncertainty k = 0.237277
        16        13        12        27     9        0.000000        0.468749         3    ;  uncertainty k = 0.182964
        16        13        12        27     9      180.000000       -0.084173         4    ;  uncertainty k = 0.105865
        17         4         3        20     9        0.000000        0.212446         1    ;  uncertainty k = 0.410462
        17         4         3        20     9      180.000000        5.992657         2    ;  uncertainty k = 0.906414
        17         4         3        20     9        0.000000        1.240565         3    ;  uncertainty k = 0.228595
        17         4         3        20     9      180.000000        1.307825         4    ;  uncertainty k = 0.096796
        17         7         6        21     9        0.000000       -0.127813         1    ;  uncertainty k = 0.288258
        17         7         6        21     9      180.000000       -0.423514         2    ;  uncertainty k = 0.388022
        17         7         6        21     9        0.000000        0.271145         3    ;  uncertainty k = 0.155091
        17         7         6        21     9      180.000000       -0.087033         4    ;  uncertainty k = 0.091940
        17         7         6        22     9        0.000000       -0.127813         1    ;  uncertainty k = 0.288258
        17         7         6        22     9      180.000000       -0.423514         2    ;  uncertainty k = 0.388022
        17         7         6        22     9        0.000000        0.271145         3    ;  uncertainty k = 0.155091
        17         7         6        22     9      180.000000       -0.087033         4    ;  uncertainty k = 0.091940
        17         7         8        48     9        0.000000        1.138538         1    ;  uncertainty k = 1.557059
        17         7         8        48     9      180.000000       -0.345043         2    ;  uncertainty k = 0.126566
        17         7         8        48     9        0.000000        0.593677         3    ;  uncertainty k = 0.383884
        17         7         8        48     9      180.000000        0.109214         4    ;  uncertainty k = 0.256612
        17         7        12        27     9        0.000000       -0.348826         1    ;  uncertainty k = 0.398985
        17         7        12        27     9      180.000000        0.326514         2    ;  uncertainty k = 0.396047
        17         7        12        27     9        0.000000        0.491707         3    ;  uncertainty k = 0.159582
        17         7        12        27     9      180.000000       -0.142314         4    ;  uncertainty k = 0.078340
        17        18         1        32     9        0.000000        0.284757         1    ;  uncertainty k = 0.348903
        17        18         1        32     9      180.000000        9.555313         2    ;  uncertainty k = 0.442017
        17        18         1        32     9        0.000000        1.409924         3    ;  uncertainty k = 0.349896
        17        18         1        32     9      180.000000        1.644923         4    ;  uncertainty k = 0.136837
        18         1         2        19     9        0.000000        0.082270         1    ;  uncertainty k = 0.167484
        18         1         2        19     9      180.000000        6.840124         2    ;  uncertainty k = 0.601068
        18         1         2        19     9        0.000000        1.325535         3    ;  uncertainty k = 0.216089
        18         1         2        19     9      180.000000        1.581755         4    ;  uncertainty k = 0.287540
        18         1        32        31     9        0.000000       -0.457751         1    ;  uncertainty k = 0.630595
        18         1        32        31     9      180.000000        3.451280         2    ;  uncertainty k = 0.151925
        18         1        32        31     9        0.000000        0.372676         3    ;  uncertainty k = 0.226476
        18         1        32        31     9      180.000000       -0.152202         4    ;  uncertainty k = 0.104402
        18         1        32        33     9        0.000000       -0.407109         1    ;  uncertainty k = 0.538822
        18         1        32        33     9      180.000000        3.873247         2    ;  uncertainty k = 0.328432
        18         1        32        33     9        0.000000        0.274195         3    ;  uncertainty k = 0.186611
        18         1        32        33     9      180.000000       -0.055825         4    ;  uncertainty k = 0.133662
        19         2         1        32     9        0.000000       -0.248982         1    ;  uncertainty k = 0.319839
        19         2         1        32     9      180.000000        7.268763         2    ;  uncertainty k = 0.384738
        19         2         1        32     9        0.000000        0.878764         3    ;  uncertainty k = 0.146364
        19         2         1        32     9      180.000000        1.194060         4    ;  uncertainty k = 0.228103
        19         2         3        20     9        0.000000        0.005982         1    ;  uncertainty k = 0.446857
        19         2         3        20     9      180.000000        7.634371         2    ;  uncertainty k = 0.287569
        19         2         3        20     9        0.000000       -0.329207         3    ;  uncertainty k = 0.293239
        19         2         3        20     9      180.000000        0.150577         4    ;  uncertainty k = 0.127520
        25        11        12        27     9        0.000000        1.062908         1    ;  uncertainty k = 0.361776
        25        11        12        27     9      180.000000       -0.680179         2    ;  uncertainty k = 0.313426
        25        11        12        27     9        0.000000        0.665646         3    ;  uncertainty k = 0.117054
        25        11        12        27     9      180.000000        0.112142         4    ;  uncertainty k = 0.087385
        26        11        12        27     9        0.000000        1.062908         1    ;  uncertainty k = 0.361776
        26        11        12        27     9      180.000000       -0.680179         2    ;  uncertainty k = 0.313426
        26        11        12        27     9        0.000000        0.665646         3    ;  uncertainty k = 0.117054
        26        11        12        27     9      180.000000        0.112142         4    ;  uncertainty k = 0.087385
        28        18         1        32     9        0.000000       -0.306168         1    ;  uncertainty k = 0.291474
        28        18         1        32     9      180.000000        7.243631         2    ;  uncertainty k = 0.235132
        28        18         1        32     9        0.000000        0.860815         3    ;  uncertainty k = 0.150313
        28        18         1        32     9      180.000000        1.206310         4    ;  uncertainty k = 0.204426
        29        30        31        32     9        0.000000       -0.366139         1    ;  uncertainty k = 0.576190
        29        30        31        32     9      180.000000       14.374296         2    ;  uncertainty k = 0.467354
        29        30        31        32     9        0.000000        1.015525         3    ;  uncertainty k = 0.826745
        29        30        31        32     9      180.000000        1.414916         4    ;  uncertainty k = 0.137296
        29        30        31        36     9        0.000000        0.313626         1    ;  uncertainty k = 0.207035
        29        30        31        36     9      180.000000       14.957781         2    ;  uncertainty k = 0.433551
        29        30        31        36     9        0.000000        2.268079         3    ;  uncertainty k = 0.537627
        29        30        31        36     9      180.000000        1.606953         4    ;  uncertainty k = 0.367463
        29        34        33        32     9        0.000000       -0.000223         1    ;  uncertainty k = 0.324929
        29        34        33        32     9      180.000000       10.198218         2    ;  uncertainty k = 0.460931
        29        34        33        32     9        0.000000       -0.270060         3    ;  uncertainty k = 0.250880
        29        34        33        32     9      180.000000        1.119812         4    ;  uncertainty k = 0.266877
        29        34        33        37     9        0.000000        0.098364         1    ;  uncertainty k = 0.414418
        29        34        33        37     9      180.000000        6.485991         2    ;  uncertainty k = 0.637158
        29        34        33        37     9        0.000000        1.250250         3    ;  uncertainty k = 0.147655
        29        34        33        37     9      180.000000        1.567444         4    ;  uncertainty k = 0.127568
        29        34        38        39     9        0.000000        0.000000         1    ;  uncertainty k = 0.000000
        29        34        38        39     9      180.000000        0.000000         2    ;  uncertainty k = 0.000000
        29        34        38        39     9        0.000000        0.000000         3    ;  uncertainty k = 0.000000
        29        34        38        39     9      180.000000        0.000000         4    ;  uncertainty k = 0.000000
        30        29        34        33     9        0.000000       -0.247711         1    ;  uncertainty k = 0.241691
        30        29        34        33     9      180.000000       11.153909         2    ;  uncertainty k = 0.552671
        30        29        34        33     9        0.000000       -0.548150         3    ;  uncertainty k = 0.638709
        30        29        34        33     9      180.000000        1.117737         4    ;  uncertainty k = 0.265523
        30        29        34        38     9        0.000000        0.142712         1    ;  uncertainty k = 0.259457
        30        29        34        38     9      180.000000        9.948089         2    ;  uncertainty k = 0.190704
        30        29        34        38     9        0.000000        0.877524         3    ;  uncertainty k = 0.534038
        30        29        34        38     9      180.000000        1.414768         4    ;  uncertainty k = 0.185129
        30        31        32        33     9        0.000000       -0.305867         1    ;  uncertainty k = 0.244832
        30        31        32        33     9      180.000000       11.843811         2    ;  uncertainty k = 0.425829
        30        31        32        33     9        0.000000       -0.388844         3    ;  uncertainty k = 0.563697
        30        31        32        33     9      180.000000        1.091735         4    ;  uncertainty k = 0.197328
        31        30        29        34     9        0.000000       -0.263099         1    ;  uncertainty k = 0.562063
        31        30        29        34     9      180.000000       15.450909         2    ;  uncertainty k = 0.230042
        31        30        29        34     9        0.000000        1.018907         3    ;  uncertainty k = 0.750549
        31        30        29        34     9      180.000000        1.464507         4    ;  uncertainty k = 0.138127
        31        30        29        35     9        0.000000        0.317106         1    ;  uncertainty k = 0.101762
        31        30        29        35     9      180.000000       15.066979         2    ;  uncertainty k = 0.447781
        31        30        29        35     9        0.000000        2.243626         3    ;  uncertainty k = 0.431094
        31        30        29        35     9      180.000000        1.593445         4    ;  uncertainty k = 0.404773
        31        32        33        34     9        0.000000       -0.203176         1    ;  uncertainty k = 0.208202
        31        32        33        34     9      180.000000       10.954451         2    ;  uncertainty k = 0.202822
        31        32        33        34     9        0.000000       -0.302790         3    ;  uncertainty k = 0.306530
        31        32        33        34     9      180.000000        0.985673         4    ;  uncertainty k = 0.293347
        31        32        33        37     9        0.000000        0.068633         1    ;  uncertainty k = 0.261510
        31        32        33        37     9      180.000000        7.018812         2    ;  uncertainty k = 0.555180
        31        32        33        37     9        0.000000        1.281864         3    ;  uncertainty k = 0.182370
        31        32        33        37     9      180.000000        1.526651         4    ;  uncertainty k = 0.178140
        32        33        34        38     9        0.000000       -0.029950         1    ;  uncertainty k = 0.257863
        32        33        34        38     9      180.000000       10.221190         2    ;  uncertainty k = 0.582942
        32        33        34        38     9        0.000000        1.090797         3    ;  uncertainty k = 0.313123
        32        33        34        38     9      180.000000        1.576510         4    ;  uncertainty k = 0.257272
        33        32        31        36     9        0.000000       -0.135296         1    ;  uncertainty k = 0.452341
        33        32        31        36     9      180.000000        5.342440         2    ;  uncertainty k = 0.699243
        33        32        31        36     9        0.000000        1.072297         3    ;  uncertainty k = 0.231111
        33        32        31        36     9      180.000000        1.346554         4    ;  uncertainty k = 0.181442
        33        34        29        35     9        0.000000        0.017933         1    ;  uncertainty k = 0.285448
        33        34        29        35     9      180.000000        5.071622         2    ;  uncertainty k = 0.688054
        33        34        29        35     9        0.000000        1.034766         3    ;  uncertainty k = 0.216692
        33        34        29        35     9      180.000000        1.367416         4    ;  uncertainty k = 0.146024
        33        34        38        39     9        0.000000        0.000000         1    ;  uncertainty k = 0.000000
        33        34        38        39     9      180.000000        0.000000         2    ;  uncertainty k = 0.000000
        33        34        38        39     9        0.000000        0.000000         3    ;  uncertainty k = 0.000000
        33        34        38        39     9      180.000000        0.000000         4    ;  uncertainty k = 0.000000
        34        38        39        40     9        0.000000        0.000000         1    ;  uncertainty k = 0.000000
        34        38        39        40     9      180.000000        0.000000         2    ;  uncertainty k = 0.000000
        34        38        39        40     9        0.000000        0.000000         3    ;  uncertainty k = 0.000000
        34        38        39        40     9      180.000000        0.000000         4    ;  uncertainty k = 0.000000
        35        29        34        38     9        0.000000       -0.257943         1    ;  uncertainty k = 0.470404
        35        29        34        38     9      180.000000        6.960832         2    ;  uncertainty k = 0.693970
        35        29        34        38     9        0.000000        0.527538         3    ;  uncertainty k = 0.097998
        35        29        34        38     9      180.000000        0.887815         4    ;  uncertainty k = 0.286492
        37        33        34        38     9        0.000000       -0.360022         1    ;  uncertainty k = 0.203440
        37        33        34        38     9      180.000000        8.117678         2    ;  uncertainty k = 0.239604
        37        33        34        38     9        0.000000        0.510322         3    ;  uncertainty k = 0.101543
        37        33        34        38     9      180.000000        1.057230         4    ;  uncertainty k = 0.178856
        38        39        40        41     9        0.000000        0.000000         1    ;  uncertainty k = 0.000000
        38        39        40        41     9      180.000000        0.000000         2    ;  uncertainty k = 0.000000
        38        39        40        41     9        0.000000        0.000000         3    ;  uncertainty k = 0.000000
        38        39        40        41     9      180.000000        0.000000         4    ;  uncertainty k = 0.000000
        38        39        40        42     9        0.000000        0.000000         1    ;  uncertainty k = 0.000000
        38        39        40        42     9      180.000000        0.000000         2    ;  uncertainty k = 0.000000
        38        39        40        42     9        0.000000        0.000000         3    ;  uncertainty k = 0.000000
        38        39        40        42     9      180.000000        0.000000         4    ;  uncertainty k = 0.000000
        38        39        40        43     9        0.000000        0.000000         1    ;  uncertainty k = 0.000000
        38        39        40        43     9      180.000000        0.000000         2    ;  uncertainty k = 0.000000
        38        39        40        43     9        0.000000        0.000000         3    ;  uncertainty k = 0.000000
        38        39        40        43     9      180.000000        0.000000         4    ;  uncertainty k = 0.000000
        39        40        43        44     9        0.000000       -7.611489         1    ;  uncertainty k = 0.509705
        39        40        43        44     9      180.000000        0.381329         2    ;  uncertainty k = 0.590105
        39        40        43        44     9        0.000000        1.416301         3    ;  uncertainty k = 0.221006
        39        40        43        44     9      180.000000        0.168658         4    ;  uncertainty k = 0.166241
        40        43        44        45     9        0.000000       -0.984117         1    ;  uncertainty k = 0.197939
        40        43        44        45     9      180.000000       -2.198397         2    ;  uncertainty k = 0.228748
        40        43        44        45     9        0.000000        1.158490         3    ;  uncertainty k = 0.069204
        40        43        44        45     9      180.000000        0.013048         4    ;  uncertainty k = 0.055652
        40        43        44        46     9        0.000000       -0.984117         1    ;  uncertainty k = 0.197939
        40        43        44        46     9      180.000000       -2.198397         2    ;  uncertainty k = 0.228748
        40        43        44        46     9        0.000000        1.158490         3    ;  uncertainty k = 0.069204
        40        43        44        46     9      180.000000        0.013048         4    ;  uncertainty k = 0.055652
        40        43        44        47     9        0.000000       -0.984117         1    ;  uncertainty k = 0.197939
        40        43        44        47     9      180.000000       -2.198397         2    ;  uncertainty k = 0.228748
        40        43        44        47     9        0.000000        1.158490         3    ;  uncertainty k = 0.069204
        40        43        44        47     9      180.000000        0.013048         4    ;  uncertainty k = 0.055652
        41        40        43        44     9        0.000000       -1.482852         1    ;  uncertainty k = 0.433591
        41        40        43        44     9      180.000000       -0.640751         2    ;  uncertainty k = 0.238561
        41        40        43        44     9        0.000000        1.093067         3    ;  uncertainty k = 0.042878
        41        40        43        44     9      180.000000        0.046166         4    ;  uncertainty k = 0.108420
        42        40        43        44     9        0.000000       -1.482852         1    ;  uncertainty k = 0.433591
        42        40        43        44     9      180.000000       -0.640751         2    ;  uncertainty k = 0.238561
        42        40        43        44     9        0.000000        1.093067         3    ;  uncertainty k = 0.042878
        42        40        43        44     9      180.000000        0.046166         4    ;  uncertainty k = 0.108420

[ dihedrals ] ; impropers
;       ai        aj        ak        al funct           phase               k        pn
         1         2        18        32     4      180.000000       13.566689         2    ;  uncertainty k = 0.128517
         1        18        32         2     4      180.000000       13.566689         2    ;  uncertainty k = 0.128517
         1        32         2        18     4      180.000000       13.566689         2    ;  uncertainty k = 0.128517
         2         1         3        19     4      180.000000        4.565311         2    ;  uncertainty k = 0.131930
         2         3        19         1     4      180.000000        4.565311         2    ;  uncertainty k = 0.131930
         2        19         1         3     4      180.000000        4.565311         2    ;  uncertainty k = 0.131930
         3         2         4        20     4      180.000000        2.191613         2    ;  uncertainty k = 0.199799
         3         4        20         2     4      180.000000        2.191613         2    ;  uncertainty k = 0.199799
         3        20         2         4     4      180.000000        2.191613         2    ;  uncertainty k = 0.199799
         4         3         5        17     4      180.000000        9.221800         2    ;  uncertainty k = 0.335485
         4         5        17         3     4      180.000000        9.221800         2    ;  uncertainty k = 0.335485
         4        17         3         5     4      180.000000        9.221800         2    ;  uncertainty k = 0.335485
         9         8        10        11     4      180.000000       28.440325         2    ;  uncertainty k = 0.165657
         9        10        11         8     4      180.000000       28.440325         2    ;  uncertainty k = 0.165657
         9        11         8        10     4      180.000000       28.440325         2    ;  uncertainty k = 0.165657
        10         9        23        24     4      180.000000        0.283597         2    ;  uncertainty k = 0.634143
        10        23        24         9     4      180.000000        0.283597         2    ;  uncertainty k = 0.634143
        10        24         9        23     4      180.000000        0.283597         2    ;  uncertainty k = 0.634143
        17         4         7        18     4      180.000000        1.388318         2    ;  uncertainty k = 0.567976
        17         7        18         4     4      180.000000        1.388318         2    ;  uncertainty k = 0.567976
        17        18         4         7     4      180.000000        1.388318         2    ;  uncertainty k = 0.567976
        18         1        17        28     4      180.000000        5.781735         2    ;  uncertainty k = 0.255402
        18        17        28         1     4      180.000000        5.781735         2    ;  uncertainty k = 0.255402
        18        28         1        17     4      180.000000        5.781735         2    ;  uncertainty k = 0.255402
        29        30        34        35     4      180.000000       13.301916         2    ;  uncertainty k = 0.043813
        29        34        35        30     4      180.000000       13.301916         2    ;  uncertainty k = 0.043813
        29        35        30        34     4      180.000000       13.301916         2    ;  uncertainty k = 0.043813
        31        30        32        36     4      180.000000       13.798363         2    ;  uncertainty k = 0.048244
        31        32        36        30     4      180.000000       13.798363         2    ;  uncertainty k = 0.048244
        31        36        30        32     4      180.000000       13.798363         2    ;  uncertainty k = 0.048244
        32         1        31        33     4      180.000000       13.318467         2    ;  uncertainty k = 0.105314
        32        31        33         1     4      180.000000       13.318467         2    ;  uncertainty k = 0.105314
        32        33         1        31     4      180.000000       13.318467         2    ;  uncertainty k = 0.105314
        33        32        34        37     4      180.000000        5.951701         2    ;  uncertainty k = 0.139527
        33        34        37        32     4      180.000000        5.951701         2    ;  uncertainty k = 0.139527
        33        37        32        34     4      180.000000        5.951701         2    ;  uncertainty k = 0.139527
        34        29        33        38     4      180.000000       12.962834         2    ;  uncertainty k = 0.118494
        34        33        38        29     4      180.000000       12.962834         2    ;  uncertainty k = 0.118494
        34        38        29        33     4      180.000000       12.962834         2    ;  uncertainty k = 0.118494

[ pairs ]
;       ai        aj funct
         1         4     1
         1         7     1
         1        20     1
         1        30     1
         1        34     1
         1        36     1
         1        37     1
         2         5     1
         2        17     1
         2        28     1
         2        31     1
         2        33     1
         3         6     1
         3         7     1
         3        18     1
         3        32     1
         4         8     1
         4        12     1
         4        19     1
         4        21     1
         4        22     1
         4        28     1
         5         8     1
         5        12     1
         5        18     1
         5        20     1
         6         9     1
         6        11     1
         6        13     1
         6        18     1
         6        27     1
         6        48     1
         7        10     1
         7        14     1
         7        15     1
         7        16     1
         7        25     1
         7        26     1
         7        28     1
         8        13     1
         8        18     1
         8        21     1
         8        22     1
         8        23     1
         8        24     1
         8        25     1
         8        26     1
         8        27     1
         9        13     1
         9        17     1
         9        27     1
        10        12     1
        10        25     1
        10        26     1
        10        48     1
        11        14     1
        11        15     1
        11        16     1
        11        17     1
        11        23     1
        11        24     1
        11        48     1
        12        18     1
        12        21     1
        12        22     1
        12        48     1
        13        17     1
        13        25     1
        13        26     1
        14        27     1
        15        27     1
        16        27     1
        17        20     1
        17        21     1
        17        22     1
        17        27     1
        17        32     1
        17        48     1
        18        19     1
        18        31     1
        18        33     1
        19        20     1
        19        32     1
        25        27     1
        26        27     1
        28        32     1
        29        32     1
        29        36     1
        29        37     1
        29        39     1
        30        33     1
        30        38     1
        31        34     1
        31        35     1
        31        37     1
        32        38     1
        33        35     1
        33        36     1
        33        39     1
        34        40     1
        35        38     1
        37        38     1
        38        41     1
        38        42     1
        38        43     1
        39        44     1
        40        45     1
        40        46     1
        40        47     1
        41        44     1
        42        44     1
