; ITP file created by ByteFF-joint-25, 2025-07-14 11:31:37.793771

[ atomtypes ]
;name           bonded.type        at.num        mass        charge   ptype           sigma         epsilon
 c0bf                                   6      0.0000       0.00000       A     3.31498e-01     4.13250e-01    ;  uncertainty sigma = 0.000008, epsilon = 0.000287
 c1bf                                   6      0.0000       0.00000       A     3.31511e-01     4.13444e-01    ;  uncertainty sigma = 0.000008, epsilon = 0.000553
 c2bf                                   6      0.0000       0.00000       A     3.31521e-01     4.13701e-01    ;  uncertainty sigma = 0.000004, epsilon = 0.000875
 c3bf                                   6      0.0000       0.00000       A     3.31471e-01     4.12729e-01    ;  uncertainty sigma = 0.000008, epsilon = 0.001275
 o4bf                                   8      0.0000       0.00000       A     3.15601e-01     3.03854e-01    ;  uncertainty sigma = 0.000054, epsilon = 0.001687
 c5bf                                   6      0.0000       0.00000       A     3.39806e-01     4.50607e-01    ;  uncertainty sigma = 0.000040, epsilon = 0.001845
 c6bf                                   6      0.0000       0.00000       A     3.39882e-01     4.49700e-01    ;  uncertainty sigma = 0.000050, epsilon = 0.004460
 n7bf                                   7      0.0000       0.00000       A     3.27794e-01     6.45463e-01    ;  uncertainty sigma = 0.000114, epsilon = 0.012172
 c8bf                                   6      0.0000       0.00000       A     3.31488e-01     4.14442e-01    ;  uncertainty sigma = 0.000019, epsilon = 0.001752
 n9bf                                   7      0.0000       0.00000       A     3.36538e-01     4.70713e-01    ;  uncertainty sigma = 0.000066, epsilon = 0.005914
 c10bf                                  6      0.0000       0.00000       A     3.39788e-01     4.50912e-01    ;  uncertainty sigma = 0.000015, epsilon = 0.002115
 c11bf                                  6      0.0000       0.00000       A     3.39907e-01     4.52103e-01    ;  uncertainty sigma = 0.000043, epsilon = 0.002263
 c12bf                                  6      0.0000       0.00000       A     3.39764e-01     4.51433e-01    ;  uncertainty sigma = 0.000038, epsilon = 0.001538
 f13bf                                  9      0.0000       0.00000       A     3.03433e-01     3.48520e-01    ;  uncertainty sigma = 0.000026, epsilon = 0.000578
 f14bf                                  9      0.0000       0.00000       A     3.03433e-01     3.48520e-01    ;  uncertainty sigma = 0.000026, epsilon = 0.000578
 f15bf                                  9      0.0000       0.00000       A     3.03433e-01     3.48520e-01    ;  uncertainty sigma = 0.000026, epsilon = 0.000578
 c16bf                                  6      0.0000       0.00000       A     3.31551e-01     4.13489e-01    ;  uncertainty sigma = 0.000022, epsilon = 0.001530
 c17bf                                  6      0.0000       0.00000       A     3.31501e-01     4.13478e-01    ;  uncertainty sigma = 0.000012, epsilon = 0.000813
 h18bf                                  1      0.0000       0.00000       A     2.62564e-01     6.71258e-02    ;  uncertainty sigma = 0.000011, epsilon = 0.000520
 h19bf                                  1      0.0000       0.00000       A     2.62554e-01     6.69585e-02    ;  uncertainty sigma = 0.000008, epsilon = 0.000568
 h20bf                                  1      0.0000       0.00000       A     2.42326e-01     8.69324e-02    ;  uncertainty sigma = 0.000099, epsilon = 0.001171
 h21bf                                  1      0.0000       0.00000       A     2.42326e-01     8.69324e-02    ;  uncertainty sigma = 0.000099, epsilon = 0.001171
 h22bf                                  1      0.0000       0.00000       A     1.10660e-01     4.19617e-02    ;  uncertainty sigma = 0.000134, epsilon = 0.001120
 h23bf                                  1      0.0000       0.00000       A     1.10660e-01     4.19617e-02    ;  uncertainty sigma = 0.000134, epsilon = 0.001120
 h24bf                                  1      0.0000       0.00000       A     2.60047e-01     8.67817e-02    ;  uncertainty sigma = 0.000024, epsilon = 0.001129
 h25bf                                  1      0.0000       0.00000       A     2.60047e-01     8.67817e-02    ;  uncertainty sigma = 0.000024, epsilon = 0.001129
 h26bf                                  1      0.0000       0.00000       A     2.60239e-01     8.53301e-02    ;  uncertainty sigma = 0.000159, epsilon = 0.002446
 h27bf                                  1      0.0000       0.00000       A     2.62589e-01     6.72812e-02    ;  uncertainty sigma = 0.000025, epsilon = 0.000703
 c28bf                                  6      0.0000       0.00000       A     3.31514e-01     4.13261e-01    ;  uncertainty sigma = 0.000002, epsilon = 0.000678
 c29bf                                  6      0.0000       0.00000       A     3.31528e-01     4.13528e-01    ;  uncertainty sigma = 0.000005, epsilon = 0.000680
 c30bf                                  6      0.0000       0.00000       A     3.31526e-01     4.13186e-01    ;  uncertainty sigma = 0.000006, epsilon = 0.000913
 c31bf                                  6      0.0000       0.00000       A     3.31507e-01     4.13161e-01    ;  uncertainty sigma = 0.000008, epsilon = 0.000590
 c32bf                                  6      0.0000       0.00000       A     3.31518e-01     4.13236e-01    ;  uncertainty sigma = 0.000005, epsilon = 0.000628
 c33bf                                  6      0.0000       0.00000       A     3.31523e-01     4.13469e-01    ;  uncertainty sigma = 0.000003, epsilon = 0.000655
 h34bf                                  1      0.0000       0.00000       A     2.62564e-01     6.71211e-02    ;  uncertainty sigma = 0.000006, epsilon = 0.000469
 h35bf                                  1      0.0000       0.00000       A     2.62557e-01     6.71597e-02    ;  uncertainty sigma = 0.000013, epsilon = 0.000769
 h36bf                                  1      0.0000       0.00000       A     2.62562e-01     6.70411e-02    ;  uncertainty sigma = 0.000012, epsilon = 0.000506
 o37bf                                  8      0.0000       0.00000       A     3.15639e-01     3.03016e-01    ;  uncertainty sigma = 0.000023, epsilon = 0.000796
 h38bf                                  1      0.0000       0.00000       A     2.62568e-01     6.69692e-02    ;  uncertainty sigma = 0.000011, epsilon = 0.000459
 c39bf                                  6      0.0000       0.00000       A     3.39790e-01     4.50985e-01    ;  uncertainty sigma = 0.000004, epsilon = 0.000763
 h40bf                                  1      0.0000       0.00000       A     2.42205e-01     8.67536e-02    ;  uncertainty sigma = 0.000015, epsilon = 0.000624
 h41bf                                  1      0.0000       0.00000       A     2.42205e-01     8.67536e-02    ;  uncertainty sigma = 0.000015, epsilon = 0.000624
 h42bf                                  1      0.0000       0.00000       A     2.42205e-01     8.67536e-02    ;  uncertainty sigma = 0.000015, epsilon = 0.000624
 h43bf                                  1      0.0000       0.00000       A     1.10782e-01     4.29103e-02    ;  uncertainty sigma = 0.000068, epsilon = 0.001720

[ moleculetype ]
;name             nrexcl
 MOL                   3

[ atoms ]
;       nr            type      resi   res      atom      cgnr      charge          mass ; qtot
         1            c0bf         1   UNL        c0         1    -0.04609       12.0110 ; qtot   -0.046
         2            c1bf         1   UNL        c1         2    -0.06804       12.0110 ; qtot   -0.114
         3            c2bf         1   UNL        c2         3    -0.14193       12.0110 ; qtot   -0.256
         4            c3bf         1   UNL        c3         4     0.14724       12.0110 ; qtot   -0.109
         5            o4bf         1   UNL        o4         5    -0.28867       15.9990 ; qtot   -0.397
         6            c5bf         1   UNL        c5         6     0.11656       12.0110 ; qtot   -0.281
         7            c6bf         1   UNL        c6         7     0.09605       12.0110 ; qtot   -0.185
         8            n7bf         1   UNL        n7         8    -0.33373       14.0070 ; qtot   -0.519
         9            c8bf         1   UNL        c8         9     0.43598       12.0110 ; qtot   -0.083
        10            n9bf         1   UNL        n9        10    -0.45909       14.0070 ; qtot   -0.542
        11           c10bf         1   UNL       c10        11    -0.12741       12.0110 ; qtot   -0.669
        12           c11bf         1   UNL       c11        12    -0.14664       12.0110 ; qtot   -0.816
        13           c12bf         1   UNL       c12        13     0.67129       12.0110 ; qtot   -0.144
        14           f13bf         1   UNL       f13        14    -0.21257       18.9980 ; qtot   -0.357
        15           f14bf         1   UNL       f14        15    -0.21257       18.9980 ; qtot   -0.570
        16           f15bf         1   UNL       f15        16    -0.21257       18.9980 ; qtot   -0.782
        17           c16bf         1   UNL       c16        17    -0.21714       12.0110 ; qtot   -0.999
        18           c17bf         1   UNL       c17        18    -0.04087       12.0110 ; qtot   -1.040
        19           h18bf         1   UNL       h18        19     0.13899        1.0080 ; qtot   -0.901
        20           h19bf         1   UNL       h19        20     0.15705        1.0080 ; qtot   -0.744
        21           h20bf         1   UNL       h20        21     0.09267        1.0080 ; qtot   -0.651
        22           h21bf         1   UNL       h21        22     0.09267        1.0080 ; qtot   -0.559
        23           h22bf         1   UNL       h22        23     0.33581        1.0080 ; qtot   -0.223
        24           h23bf         1   UNL       h23        24     0.33581        1.0080 ; qtot    0.113
        25           h24bf         1   UNL       h24        25     0.13278        1.0080 ; qtot    0.246
        26           h25bf         1   UNL       h25        26     0.13278        1.0080 ; qtot    0.378
        27           h26bf         1   UNL       h26        27     0.13093        1.0080 ; qtot    0.509
        28           h27bf         1   UNL       h27        28     0.15030        1.0080 ; qtot    0.660
        29           c28bf         1   UNL       c28        29    -0.18637       12.0110 ; qtot    0.473
        30           c29bf         1   UNL       c29        30     0.12869       12.0110 ; qtot    0.602
        31           c30bf         1   UNL       c30        31    -0.17655       12.0110 ; qtot    0.425
        32           c31bf         1   UNL       c31        32    -0.01495       12.0110 ; qtot    0.410
        33           c32bf         1   UNL       c32        33    -0.14102       12.0110 ; qtot    0.269
        34           c33bf         1   UNL       c33        34    -0.09651       12.0110 ; qtot    0.173
        35           h34bf         1   UNL       h34        35     0.14126        1.0080 ; qtot    0.314
        36           h35bf         1   UNL       h35        36     0.14276        1.0080 ; qtot    0.457
        37           h36bf         1   UNL       h36        37     0.13745        1.0080 ; qtot    0.594
        38           o37bf         1   UNL       o37        38    -0.32660       15.9990 ; qtot    0.268
        39           h38bf         1   UNL       h38        39     0.13625        1.0080 ; qtot    0.404
        40           c39bf         1   UNL       c39        40     0.12109       12.0110 ; qtot    0.525
        41           h40bf         1   UNL       h40        41     0.04263        1.0080 ; qtot    0.568
        42           h41bf         1   UNL       h41        42     0.04263        1.0080 ; qtot    0.610
        43           h42bf         1   UNL       h42        43     0.04263        1.0080 ; qtot    0.653
        44           h43bf         1   UNL       h43        44     0.34702        1.0080 ; qtot    1.000

[ bonds ]
;       ai        aj funct               r               k
         1         2     1        0.140620   336740.649316    ;  uncertainty r = 0.000029, k = 3.465561
         1        18     1        0.140269   337578.189893    ;  uncertainty r = 0.000118, k = 5.298102
         1        32     1        0.147834   272269.177783    ;  uncertainty r = 0.000058, k = 6.768420
         2         3     1        0.139528   370360.739014    ;  uncertainty r = 0.000061, k = 1.570291
         2        19     1        0.108736   334592.518750    ;  uncertainty r = 0.000019, k = 1.668832
         3         4     1        0.139024   367202.232715    ;  uncertainty r = 0.000070, k = 8.979848
         3        20     1        0.108822   336902.503516    ;  uncertainty r = 0.000021, k = 1.817738
         4         5     1        0.137509   343700.686328    ;  uncertainty r = 0.000179, k = 19.116434
         4        17     1        0.139333   351773.605029    ;  uncertainty r = 0.000213, k = 17.109522
         5         6     1        0.144012   215686.681152    ;  uncertainty r = 0.000106, k = 2.989013
         6         7     1        0.155319   193128.577734    ;  uncertainty r = 0.000237, k = 19.986155
         6        21     1        0.109327   310289.107129    ;  uncertainty r = 0.000068, k = 4.450517
         6        22     1        0.109327   310289.107129    ;  uncertainty r = 0.000068, k = 4.450517
         7         8     1        0.149238   248163.423389    ;  uncertainty r = 0.000294, k = 40.887908
         7        12     1        0.155238   176558.952002    ;  uncertainty r = 0.000286, k = 21.473646
         7        17     1        0.150620   246418.319482    ;  uncertainty r = 0.000286, k = 16.949541
         8         9     1        0.131533   554108.898047    ;  uncertainty r = 0.000318, k = 21.274791
         8        44     1        0.101696   420138.643018    ;  uncertainty r = 0.000100, k = 16.373031
         9        10     1        0.132738   290574.279932    ;  uncertainty r = 0.000241, k = 31.208321
         9        11     1        0.150433   235965.035742    ;  uncertainty r = 0.000166, k = 16.389584
        10        23     1        0.101487   418300.711719    ;  uncertainty r = 0.000059, k = 13.320181
        10        24     1        0.101487   418300.711719    ;  uncertainty r = 0.000059, k = 13.320181
        11        12     1        0.154112   199608.874609    ;  uncertainty r = 0.000169, k = 22.900523
        11        25     1        0.109402   313314.105420    ;  uncertainty r = 0.000078, k = 2.924089
        11        26     1        0.109402   313314.105420    ;  uncertainty r = 0.000078, k = 2.924089
        12        13     1        0.151683   201697.171729    ;  uncertainty r = 0.000428, k = 17.355847
        12        27     1        0.109312   310751.430957    ;  uncertainty r = 0.000074, k = 5.309695
        13        14     1        0.135045   285925.325781    ;  uncertainty r = 0.000152, k = 10.444849
        13        15     1        0.135045   285925.325781    ;  uncertainty r = 0.000152, k = 10.444849
        13        16     1        0.135045   285925.325781    ;  uncertainty r = 0.000152, k = 10.444849
        17        18     1        0.138744   363536.125293    ;  uncertainty r = 0.000070, k = 6.078258
        18        28     1        0.108810   334099.499316    ;  uncertainty r = 0.000021, k = 1.591888
        29        30     1        0.139901   361896.847168    ;  uncertainty r = 0.000022, k = 2.516463
        29        34     1        0.139470   371080.298145    ;  uncertainty r = 0.000043, k = 1.856865
        29        35     1        0.108802   337752.991406    ;  uncertainty r = 0.000012, k = 0.450674
        30        31     1        0.139769   357571.141748    ;  uncertainty r = 0.000015, k = 2.181356
        30        38     1        0.136564   322084.697949    ;  uncertainty r = 0.000040, k = 3.865880
        31        32     1        0.140083   347326.087598    ;  uncertainty r = 0.000029, k = 4.559531
        31        36     1        0.108832   338548.472363    ;  uncertainty r = 0.000036, k = 1.761261
        32        33     1        0.140209   346398.069043    ;  uncertainty r = 0.000046, k = 1.705260
        33        34     1        0.139444   366836.898828    ;  uncertainty r = 0.000018, k = 2.540213
        33        37     1        0.108812   334981.091406    ;  uncertainty r = 0.000034, k = 1.382229
        34        39     1        0.108774   332532.491211    ;  uncertainty r = 0.000015, k = 1.362356
        38        40     1        0.141909   253420.748096    ;  uncertainty r = 0.000028, k = 2.106506
        40        41     1        0.109623   311224.914502    ;  uncertainty r = 0.000009, k = 1.869779
        40        42     1        0.109623   311224.914502    ;  uncertainty r = 0.000009, k = 1.869779
        40        43     1        0.109623   311224.914502    ;  uncertainty r = 0.000009, k = 1.869779

[ angles ]
;       ai        aj        ak funct           theta             cth
         1         2         3     1      123.346268      530.199262    ;  uncertainty theta = 0.003018, k = 0.032036
         1         2        19     1      118.224144      277.593901    ;  uncertainty theta = 0.001421, k = 0.104410
         1        18        17     1      120.026047      511.986355    ;  uncertainty theta = 0.005216, k = 0.244176
         1        18        28     1      119.502785      277.727173    ;  uncertainty theta = 0.004651, k = 0.116232
         1        32        31     1      119.940102      412.985271    ;  uncertainty theta = 0.002992, k = 0.048968
         1        32        33     1      120.598816      410.950825    ;  uncertainty theta = 0.002608, k = 0.082901
         2         1        18     1      121.107468      428.863831    ;  uncertainty theta = 0.003353, k = 0.089419
         2         1        32     1      120.597656      414.097987    ;  uncertainty theta = 0.001423, k = 0.140715
         2         3         4     1      116.316322      515.429428    ;  uncertainty theta = 0.002123, k = 0.118096
         2         3        20     1      121.724243      281.526967    ;  uncertainty theta = 0.001158, k = 0.071628
         3         2        19     1      119.484604      291.877924    ;  uncertainty theta = 0.002296, k = 0.026284
         3         4         5     1      124.924881      488.618687    ;  uncertainty theta = 0.002028, k = 0.117801
         3         4        17     1      119.934898      366.401817    ;  uncertainty theta = 0.003286, k = 0.084968
         4         3        20     1      121.797279      286.626217    ;  uncertainty theta = 0.003142, k = 0.193852
         4         5         6     1      109.833389      733.974191    ;  uncertainty theta = 0.006277, k = 0.251566
         4        17         7     1      110.256615      602.612130    ;  uncertainty theta = 0.008372, k = 0.148469
         4        17        18     1      119.678452      397.201135    ;  uncertainty theta = 0.003746, k = 0.320860
         5         4        17     1      115.587479      688.401942    ;  uncertainty theta = 0.005585, k = 0.321760
         5         6         7     1      108.290939      799.024806    ;  uncertainty theta = 0.008649, k = 0.134007
         5         6        21     1      107.634384      492.465789    ;  uncertainty theta = 0.004233, k = 0.101716
         5         6        22     1      107.634384      492.465789    ;  uncertainty theta = 0.004233, k = 0.101716
         6         7         8     1      110.412369      668.683208    ;  uncertainty theta = 0.009979, k = 0.524178
         6         7        12     1      111.489014      511.552799    ;  uncertainty theta = 0.010562, k = 0.300596
         6         7        17     1      104.297585      541.627534    ;  uncertainty theta = 0.013019, k = 0.226919
         7         6        21     1      109.334763      390.289516    ;  uncertainty theta = 0.003095, k = 0.085246
         7         6        22     1      109.334763      390.289516    ;  uncertainty theta = 0.003095, k = 0.085246
         7         8         9     1      113.904442      621.533085    ;  uncertainty theta = 0.010771, k = 0.336518
         7         8        44     1      117.626488      279.688870    ;  uncertainty theta = 0.014831, k = 0.214756
         7        12        11     1      107.458046      679.448249    ;  uncertainty theta = 0.004545, k = 0.222828
         7        12        13     1      108.382858      500.438155    ;  uncertainty theta = 0.005346, k = 0.125298
         7        12        27     1      107.466652      386.605022    ;  uncertainty theta = 0.007218, k = 0.107254
         7        17        18     1      126.903549      372.805343    ;  uncertainty theta = 0.004374, k = 0.144794
         8         7        12     1      104.663368      626.969936    ;  uncertainty theta = 0.003811, k = 0.435925
         8         7        17     1      112.157005      630.090315    ;  uncertainty theta = 0.014279, k = 0.538860
         8         9        10     1      127.264977      700.507617    ;  uncertainty theta = 0.010047, k = 0.449642
         8         9        11     1      113.992188      590.265193    ;  uncertainty theta = 0.013347, k = 0.205088
         9         8        44     1      119.805786      332.736948    ;  uncertainty theta = 0.014389, k = 0.066564
         9        10        23     1      114.784744      366.422981    ;  uncertainty theta = 0.008184, k = 0.362672
         9        10        24     1      114.784744      366.422981    ;  uncertainty theta = 0.008184, k = 0.362672
         9        11        12     1      105.264221      716.346435    ;  uncertainty theta = 0.005817, k = 0.169748
         9        11        25     1      109.041626      381.009522    ;  uncertainty theta = 0.004480, k = 0.162059
         9        11        26     1      109.041626      381.009522    ;  uncertainty theta = 0.004480, k = 0.162059
        10         9        11     1      125.571922      438.913960    ;  uncertainty theta = 0.013820, k = 0.237812
        11        12        13     1      107.037880      508.892790    ;  uncertainty theta = 0.010727, k = 0.149732
        11        12        27     1      108.736107      399.315192    ;  uncertainty theta = 0.004788, k = 0.123631
        12         7        17     1      113.246193      523.127590    ;  uncertainty theta = 0.007890, k = 0.517895
        12        11        25     1      108.692787      375.537686    ;  uncertainty theta = 0.003299, k = 0.147589
        12        11        26     1      108.692787      375.537686    ;  uncertainty theta = 0.003299, k = 0.147589
        12        13        14     1      111.812241      595.089025    ;  uncertainty theta = 0.006407, k = 0.238063
        12        13        15     1      111.812241      595.089025    ;  uncertainty theta = 0.006407, k = 0.238063
        12        13        16     1      111.812241      595.089025    ;  uncertainty theta = 0.006407, k = 0.238063
        13        12        27     1      105.628067      408.465969    ;  uncertainty theta = 0.006757, k = 0.130342
        14        13        15     1      109.127151      808.571279    ;  uncertainty theta = 0.003719, k = 0.057240
        14        13        16     1      109.127151      808.571279    ;  uncertainty theta = 0.003719, k = 0.057240
        15        13        16     1      109.127151      808.571279    ;  uncertainty theta = 0.003719, k = 0.057240
        17        18        28     1      119.816727      282.968122    ;  uncertainty theta = 0.005244, k = 0.075376
        18         1        32     1      120.363754      407.024590    ;  uncertainty theta = 0.004060, k = 0.146497
        21         6        22     1      108.913330      325.725255    ;  uncertainty theta = 0.002097, k = 0.184465
        23        10        24     1      112.138748      267.152942    ;  uncertainty theta = 0.014743, k = 0.191618
        25        11        26     1      106.635033      299.150956    ;  uncertainty theta = 0.004150, k = 0.151740
        29        30        31     1      121.556541      371.972482    ;  uncertainty theta = 0.006182, k = 0.097511
        29        30        38     1      119.747482      423.445303    ;  uncertainty theta = 0.003744, k = 0.050397
        29        34        33     1      121.245422      512.633051    ;  uncertainty theta = 0.001723, k = 0.053752
        29        34        39     1      120.007240      281.159137    ;  uncertainty theta = 0.000575, k = 0.062869
        30        29        34     1      118.220108      526.652222    ;  uncertainty theta = 0.002836, k = 0.024644
        30        29        35     1      119.835045      271.079800    ;  uncertainty theta = 0.002430, k = 0.038994
        30        31        32     1      120.465538      524.021899    ;  uncertainty theta = 0.002568, k = 0.085010
        30        31        36     1      119.485107      273.742139    ;  uncertainty theta = 0.002528, k = 0.060476
        30        38        40     1      109.659470      514.717964    ;  uncertainty theta = 0.001249, k = 0.064419
        31        30        38     1      118.958450      426.298819    ;  uncertainty theta = 0.003464, k = 0.100935
        31        32        33     1      120.809311      407.356669    ;  uncertainty theta = 0.002493, k = 0.204943
        32        31        36     1      119.710121      273.935966    ;  uncertainty theta = 0.001050, k = 0.083803
        32        33        34     1      119.904175      529.503631    ;  uncertainty theta = 0.001605, k = 0.057912
        32        33        37     1      119.295456      279.134300    ;  uncertainty theta = 0.001185, k = 0.052340
        33        34        39     1      120.232033      281.481799    ;  uncertainty theta = 0.000863, k = 0.028874
        34        29        35     1      121.130226      286.065614    ;  uncertainty theta = 0.001996, k = 0.026691
        34        33        37     1      120.432045      294.783217    ;  uncertainty theta = 0.001225, k = 0.044485
        38        40        41     1      108.795364      446.331628    ;  uncertainty theta = 0.001356, k = 0.023104
        38        40        42     1      108.795364      446.331628    ;  uncertainty theta = 0.001356, k = 0.023104
        38        40        43     1      108.795364      446.331628    ;  uncertainty theta = 0.001356, k = 0.023104
        41        40        42     1      109.081810      330.154316    ;  uncertainty theta = 0.001818, k = 0.013785
        41        40        43     1      109.081810      330.154316    ;  uncertainty theta = 0.001818, k = 0.013785
        42        40        43     1      109.081810      330.154316    ;  uncertainty theta = 0.001818, k = 0.013785

[ dihedrals ] ; propers for gromacs 4.5 or higher, use funct 9
;       ai        aj        ak        al funct           phase               k        pn
         1         2         3         4     9        0.000000        0.074736         1    ;  uncertainty k = 0.356416
         1         2         3         4     9      180.000000       14.581139         2    ;  uncertainty k = 0.309282
         1         2         3         4     9        0.000000       -0.559158         3    ;  uncertainty k = 0.552812
         1         2         3         4     9      180.000000        0.811322         4    ;  uncertainty k = 0.370531
         1         2         3        20     9        0.000000        0.155845         1    ;  uncertainty k = 0.121515
         1         2         3        20     9      180.000000        8.083050         2    ;  uncertainty k = 0.367477
         1         2         3        20     9        0.000000        1.483652         3    ;  uncertainty k = 0.217572
         1         2         3        20     9      180.000000        1.883233         4    ;  uncertainty k = 0.225362
         1        18        17         4     9        0.000000       -0.007419         1    ;  uncertainty k = 0.523450
         1        18        17         4     9      180.000000       15.119602         2    ;  uncertainty k = 0.286328
         1        18        17         4     9        0.000000       -1.499543         3    ;  uncertainty k = 0.781685
         1        18        17         4     9      180.000000        0.528559         4    ;  uncertainty k = 0.628930
         1        18        17         7     9        0.000000        0.459047         1    ;  uncertainty k = 0.408166
         1        18        17         7     9      180.000000        7.633736         2    ;  uncertainty k = 0.766664
         1        18        17         7     9        0.000000        1.522117         3    ;  uncertainty k = 0.239812
         1        18        17         7     9      180.000000        1.854150         4    ;  uncertainty k = 0.270728
         1        32        31        30     9        0.000000        0.024491         1    ;  uncertainty k = 0.228356
         1        32        31        30     9      180.000000        9.004058         2    ;  uncertainty k = 0.608647
         1        32        31        30     9        0.000000        1.226122         3    ;  uncertainty k = 0.313168
         1        32        31        30     9      180.000000        1.650715         4    ;  uncertainty k = 0.171048
         1        32        31        36     9        0.000000       -0.224807         1    ;  uncertainty k = 0.283705
         1        32        31        36     9      180.000000        7.101771         2    ;  uncertainty k = 0.371894
         1        32        31        36     9        0.000000        0.762029         3    ;  uncertainty k = 0.188808
         1        32        31        36     9      180.000000        1.137391         4    ;  uncertainty k = 0.207842
         1        32        33        34     9        0.000000       -0.031105         1    ;  uncertainty k = 0.219656
         1        32        33        34     9      180.000000        8.714295         2    ;  uncertainty k = 0.630417
         1        32        33        34     9        0.000000        1.155202         3    ;  uncertainty k = 0.420351
         1        32        33        34     9      180.000000        1.736018         4    ;  uncertainty k = 0.152258
         1        32        33        37     9        0.000000       -0.215927         1    ;  uncertainty k = 0.324487
         1        32        33        37     9      180.000000        6.935006         2    ;  uncertainty k = 0.414110
         1        32        33        37     9        0.000000        0.834109         3    ;  uncertainty k = 0.164393
         1        32        33        37     9      180.000000        1.170382         4    ;  uncertainty k = 0.199381
         2         1        18        17     9        0.000000        0.256599         1    ;  uncertainty k = 0.481218
         2         1        18        17     9      180.000000       10.759382         2    ;  uncertainty k = 0.356625
         2         1        18        17     9        0.000000       -0.001814         3    ;  uncertainty k = 0.626720
         2         1        18        17     9      180.000000        1.128046         4    ;  uncertainty k = 0.429967
         2         1        18        28     9        0.000000        0.146409         1    ;  uncertainty k = 0.256446
         2         1        18        28     9      180.000000        7.137914         2    ;  uncertainty k = 0.617738
         2         1        18        28     9        0.000000        1.403773         3    ;  uncertainty k = 0.203348
         2         1        18        28     9      180.000000        1.610477         4    ;  uncertainty k = 0.222377
         2         1        32        31     9        0.000000       -0.270410         1    ;  uncertainty k = 0.320252
         2         1        32        31     9      180.000000        4.084143         2    ;  uncertainty k = 0.171748
         2         1        32        31     9        0.000000        0.323303         3    ;  uncertainty k = 0.096636
         2         1        32        31     9      180.000000        0.025249         4    ;  uncertainty k = 0.062688
         2         1        32        33     9        0.000000       -0.354194         1    ;  uncertainty k = 0.341674
         2         1        32        33     9      180.000000        4.059387         2    ;  uncertainty k = 0.133792
         2         1        32        33     9        0.000000        0.345463         3    ;  uncertainty k = 0.054720
         2         1        32        33     9      180.000000       -0.007830         4    ;  uncertainty k = 0.053233
         2         3         4         5     9        0.000000        0.279458         1    ;  uncertainty k = 0.189429
         2         3         4         5     9      180.000000       10.089701         2    ;  uncertainty k = 0.469082
         2         3         4         5     9        0.000000        1.496076         3    ;  uncertainty k = 0.251520
         2         3         4         5     9      180.000000        1.661623         4    ;  uncertainty k = 0.187771
         2         3         4        17     9        0.000000        0.214487         1    ;  uncertainty k = 0.145216
         2         3         4        17     9      180.000000       11.082703         2    ;  uncertainty k = 0.114110
         2         3         4        17     9        0.000000       -0.803582         3    ;  uncertainty k = 0.478777
         2         3         4        17     9      180.000000        1.029716         4    ;  uncertainty k = 0.350277
         3         2         1        18     9        0.000000       -0.016643         1    ;  uncertainty k = 0.082666
         3         2         1        18     9      180.000000       10.630260         2    ;  uncertainty k = 0.279256
         3         2         1        18     9        0.000000       -0.370789         3    ;  uncertainty k = 0.370565
         3         2         1        18     9      180.000000        0.985980         4    ;  uncertainty k = 0.268476
         3         2         1        32     9        0.000000        0.033675         1    ;  uncertainty k = 0.316022
         3         2         1        32     9      180.000000        8.640418         2    ;  uncertainty k = 0.544214
         3         2         1        32     9        0.000000        1.207926         3    ;  uncertainty k = 0.368400
         3         2         1        32     9      180.000000        1.813565         4    ;  uncertainty k = 0.160112
         3         4         5         6     9        0.000000        1.152462         1    ;  uncertainty k = 1.585817
         3         4         5         6     9      180.000000        4.949628         2    ;  uncertainty k = 0.730076
         3         4         5         6     9        0.000000        1.115777         3    ;  uncertainty k = 0.347697
         3         4         5         6     9      180.000000        0.195478         4    ;  uncertainty k = 0.204438
         3         4        17         7     9        0.000000        0.911803         1    ;  uncertainty k = 0.564592
         3         4        17         7     9      180.000000        7.013077         2    ;  uncertainty k = 0.787807
         3         4        17         7     9        0.000000        0.730413         3    ;  uncertainty k = 0.298923
         3         4        17         7     9      180.000000        1.398512         4    ;  uncertainty k = 0.222633
         3         4        17        18     9        0.000000       -0.575517         1    ;  uncertainty k = 0.851754
         3         4        17        18     9      180.000000        8.010756         2    ;  uncertainty k = 0.389370
         3         4        17        18     9        0.000000       -0.361972         3    ;  uncertainty k = 0.209863
         3         4        17        18     9      180.000000        0.977288         4    ;  uncertainty k = 0.326645
         4         3         2        19     9        0.000000        0.206293         1    ;  uncertainty k = 0.179230
         4         3         2        19     9      180.000000        9.658637         2    ;  uncertainty k = 0.494697
         4         3         2        19     9        0.000000        1.238104         3    ;  uncertainty k = 0.309861
         4         3         2        19     9      180.000000        1.696814         4    ;  uncertainty k = 0.187818
         4         5         6         7     9        0.000000        1.176082         1    ;  uncertainty k = 2.254001
         4         5         6         7     9      180.000000        2.200468         2    ;  uncertainty k = 1.959275
         4         5         6         7     9        0.000000        0.377506         3    ;  uncertainty k = 0.199603
         4         5         6         7     9      180.000000       -0.735147         4    ;  uncertainty k = 0.150056
         4         5         6        21     9        0.000000       -1.328090         1    ;  uncertainty k = 0.917091
         4         5         6        21     9      180.000000       -0.651918         2    ;  uncertainty k = 0.292183
         4         5         6        21     9        0.000000        0.903425         3    ;  uncertainty k = 0.219575
         4         5         6        21     9      180.000000        0.315703         4    ;  uncertainty k = 0.187234
         4         5         6        22     9        0.000000       -1.328090         1    ;  uncertainty k = 0.917091
         4         5         6        22     9      180.000000       -0.651918         2    ;  uncertainty k = 0.292183
         4         5         6        22     9        0.000000        0.903425         3    ;  uncertainty k = 0.219575
         4         5         6        22     9      180.000000        0.315703         4    ;  uncertainty k = 0.187234
         4        17         7         6     9        0.000000       -0.959061         1    ;  uncertainty k = 2.671996
         4        17         7         6     9      180.000000        5.388477         2    ;  uncertainty k = 0.693798
         4        17         7         6     9        0.000000       -1.214646         3    ;  uncertainty k = 0.191276
         4        17         7         6     9      180.000000        1.164834         4    ;  uncertainty k = 0.354061
         4        17         7         8     9        0.000000       -1.680820         1    ;  uncertainty k = 1.968784
         4        17         7         8     9      180.000000        4.937914         2    ;  uncertainty k = 0.757981
         4        17         7         8     9        0.000000       -0.251266         3    ;  uncertainty k = 0.552638
         4        17         7         8     9      180.000000        0.696574         4    ;  uncertainty k = 0.165418
         4        17         7        12     9        0.000000       -0.229911         1    ;  uncertainty k = 2.608666
         4        17         7        12     9      180.000000        4.390771         2    ;  uncertainty k = 0.986315
         4        17         7        12     9        0.000000       -0.817209         3    ;  uncertainty k = 0.565763
         4        17         7        12     9      180.000000        0.943662         4    ;  uncertainty k = 0.243858
         4        17        18        28     9        0.000000        0.027227         1    ;  uncertainty k = 0.193878
         4        17        18        28     9      180.000000        8.410220         2    ;  uncertainty k = 0.737986
         4        17        18        28     9        0.000000        1.181748         3    ;  uncertainty k = 0.395714
         4        17        18        28     9      180.000000        1.594432         4    ;  uncertainty k = 0.217238
         5         4         3        20     9        0.000000       -0.089813         1    ;  uncertainty k = 0.608505
         5         4         3        20     9      180.000000        7.277219         2    ;  uncertainty k = 0.374441
         5         4         3        20     9        0.000000        0.812417         3    ;  uncertainty k = 0.429574
         5         4         3        20     9      180.000000        0.954123         4    ;  uncertainty k = 0.294525
         5         4        17         7     9        0.000000        0.524301         1    ;  uncertainty k = 1.268988
         5         4        17         7     9      180.000000       14.435207         2    ;  uncertainty k = 1.049313
         5         4        17         7     9        0.000000       -1.244748         3    ;  uncertainty k = 0.951827
         5         4        17         7     9      180.000000        1.148944         4    ;  uncertainty k = 0.434541
         5         4        17        18     9        0.000000       -0.194600         1    ;  uncertainty k = 0.332346
         5         4        17        18     9      180.000000        8.874113         2    ;  uncertainty k = 0.458211
         5         4        17        18     9        0.000000        0.199068         3    ;  uncertainty k = 0.285918
         5         4        17        18     9      180.000000        1.322137         4    ;  uncertainty k = 0.105971
         5         6         7         8     9        0.000000        2.871284         1    ;  uncertainty k = 2.149819
         5         6         7         8     9      180.000000       -1.533731         2    ;  uncertainty k = 0.870361
         5         6         7         8     9        0.000000        1.710723         3    ;  uncertainty k = 0.362780
         5         6         7         8     9      180.000000        0.002185         4    ;  uncertainty k = 0.251364
         5         6         7        12     9        0.000000        2.896665         1    ;  uncertainty k = 1.603272
         5         6         7        12     9      180.000000       -0.300345         2    ;  uncertainty k = 1.318280
         5         6         7        12     9        0.000000        1.339077         3    ;  uncertainty k = 0.812822
         5         6         7        12     9      180.000000        0.160649         4    ;  uncertainty k = 0.156091
         5         6         7        17     9        0.000000        0.723540         1    ;  uncertainty k = 1.831049
         5         6         7        17     9      180.000000        0.487930         2    ;  uncertainty k = 1.223138
         5         6         7        17     9        0.000000        1.726589         3    ;  uncertainty k = 0.220636
         5         6         7        17     9      180.000000        0.217790         4    ;  uncertainty k = 0.209170
         6         5         4        17     9        0.000000        0.025312         1    ;  uncertainty k = 1.036128
         6         5         4        17     9      180.000000        9.894148         2    ;  uncertainty k = 0.632805
         6         5         4        17     9        0.000000       -0.406036         3    ;  uncertainty k = 1.206785
         6         5         4        17     9      180.000000        0.267939         4    ;  uncertainty k = 0.292542
         6         7         8         9     9        0.000000       -1.711379         1    ;  uncertainty k = 1.193596
         6         7         8         9     9      180.000000        1.815883         2    ;  uncertainty k = 0.362315
         6         7         8         9     9        0.000000       -0.256869         3    ;  uncertainty k = 0.525786
         6         7         8         9     9      180.000000        0.281123         4    ;  uncertainty k = 0.140704
         6         7         8        44     9        0.000000        0.552998         1    ;  uncertainty k = 0.964473
         6         7         8        44     9      180.000000       -0.220526         2    ;  uncertainty k = 0.549672
         6         7         8        44     9        0.000000        0.482207         3    ;  uncertainty k = 0.244869
         6         7         8        44     9      180.000000        0.254775         4    ;  uncertainty k = 0.150035
         6         7        12        11     9        0.000000       -1.742972         1    ;  uncertainty k = 1.049641
         6         7        12        11     9      180.000000        0.290787         2    ;  uncertainty k = 0.431170
         6         7        12        11     9        0.000000        0.259070         3    ;  uncertainty k = 0.095799
         6         7        12        11     9      180.000000       -0.129613         4    ;  uncertainty k = 0.159968
         6         7        12        13     9        0.000000       -2.749955         1    ;  uncertainty k = 1.622536
         6         7        12        13     9      180.000000        0.018694         2    ;  uncertainty k = 0.529488
         6         7        12        13     9        0.000000        0.197309         3    ;  uncertainty k = 0.327199
         6         7        12        13     9      180.000000       -0.152029         4    ;  uncertainty k = 0.180296
         6         7        12        27     9        0.000000       -1.140495         1    ;  uncertainty k = 0.855635
         6         7        12        27     9      180.000000        0.245824         2    ;  uncertainty k = 0.336800
         6         7        12        27     9        0.000000        0.429575         3    ;  uncertainty k = 0.091076
         6         7        12        27     9      180.000000       -0.143918         4    ;  uncertainty k = 0.086149
         6         7        17        18     9        0.000000        0.237621         1    ;  uncertainty k = 0.611460
         6         7        17        18     9      180.000000        1.962916         2    ;  uncertainty k = 0.420999
         6         7        17        18     9        0.000000        0.199232         3    ;  uncertainty k = 0.211647
         6         7        17        18     9      180.000000        0.497152         4    ;  uncertainty k = 0.202963
         7         8         9        10     9        0.000000        1.995922         1    ;  uncertainty k = 1.650883
         7         8         9        10     9      180.000000       15.921893         2    ;  uncertainty k = 0.406608
         7         8         9        10     9        0.000000        0.067910         3    ;  uncertainty k = 0.492343
         7         8         9        10     9      180.000000       -0.443555         4    ;  uncertainty k = 0.308620
         7         8         9        11     9        0.000000        1.136276         1    ;  uncertainty k = 2.314670
         7         8         9        11     9      180.000000       16.202314         2    ;  uncertainty k = 0.690999
         7         8         9        11     9        0.000000        0.545622         3    ;  uncertainty k = 1.241279
         7         8         9        11     9      180.000000       -0.158888         4    ;  uncertainty k = 0.659732
         7        12        11         9     9        0.000000        0.086671         1    ;  uncertainty k = 2.401135
         7        12        11         9     9      180.000000        2.589060         2    ;  uncertainty k = 0.898404
         7        12        11         9     9        0.000000        0.007880         3    ;  uncertainty k = 0.355285
         7        12        11         9     9      180.000000       -0.150841         4    ;  uncertainty k = 0.411089
         7        12        11        25     9        0.000000        0.281111         1    ;  uncertainty k = 0.593397
         7        12        11        25     9      180.000000       -0.569363         2    ;  uncertainty k = 0.729864
         7        12        11        25     9        0.000000        0.167660         3    ;  uncertainty k = 0.186242
         7        12        11        25     9      180.000000       -0.033607         4    ;  uncertainty k = 0.216669
         7        12        11        26     9        0.000000        0.281111         1    ;  uncertainty k = 0.593397
         7        12        11        26     9      180.000000       -0.569363         2    ;  uncertainty k = 0.729864
         7        12        11        26     9        0.000000        0.167660         3    ;  uncertainty k = 0.186242
         7        12        11        26     9      180.000000       -0.033607         4    ;  uncertainty k = 0.216669
         7        12        13        14     9        0.000000       -2.005942         1    ;  uncertainty k = 1.034447
         7        12        13        14     9      180.000000        0.341661         2    ;  uncertainty k = 0.591005
         7        12        13        14     9        0.000000        0.306573         3    ;  uncertainty k = 0.281148
         7        12        13        14     9      180.000000       -0.168225         4    ;  uncertainty k = 0.177075
         7        12        13        15     9        0.000000       -2.005942         1    ;  uncertainty k = 1.034447
         7        12        13        15     9      180.000000        0.341661         2    ;  uncertainty k = 0.591005
         7        12        13        15     9        0.000000        0.306573         3    ;  uncertainty k = 0.281148
         7        12        13        15     9      180.000000       -0.168225         4    ;  uncertainty k = 0.177075
         7        12        13        16     9        0.000000       -2.005942         1    ;  uncertainty k = 1.034447
         7        12        13        16     9      180.000000        0.341661         2    ;  uncertainty k = 0.591005
         7        12        13        16     9        0.000000        0.306573         3    ;  uncertainty k = 0.281148
         7        12        13        16     9      180.000000       -0.168225         4    ;  uncertainty k = 0.177075
         7        17        18        28     9        0.000000        0.330485         1    ;  uncertainty k = 1.098530
         7        17        18        28     9      180.000000        6.056096         2    ;  uncertainty k = 0.651255
         7        17        18        28     9        0.000000        0.984573         3    ;  uncertainty k = 0.303908
         7        17        18        28     9      180.000000        1.017362         4    ;  uncertainty k = 0.157548
         8         7         6        21     9        0.000000       -0.344895         1    ;  uncertainty k = 0.432581
         8         7         6        21     9      180.000000       -0.871576         2    ;  uncertainty k = 0.656834
         8         7         6        21     9        0.000000        0.509970         3    ;  uncertainty k = 0.179247
         8         7         6        21     9      180.000000       -0.159376         4    ;  uncertainty k = 0.153718
         8         7         6        22     9        0.000000       -0.344895         1    ;  uncertainty k = 0.432581
         8         7         6        22     9      180.000000       -0.871576         2    ;  uncertainty k = 0.656834
         8         7         6        22     9        0.000000        0.509970         3    ;  uncertainty k = 0.179247
         8         7         6        22     9      180.000000       -0.159376         4    ;  uncertainty k = 0.153718
         8         7        12        11     9        0.000000       -0.550876         1    ;  uncertainty k = 1.179569
         8         7        12        11     9      180.000000        0.622165         2    ;  uncertainty k = 0.370146
         8         7        12        11     9        0.000000        1.071715         3    ;  uncertainty k = 0.305704
         8         7        12        11     9      180.000000       -0.173973         4    ;  uncertainty k = 0.195396
         8         7        12        13     9        0.000000       -4.212888         1    ;  uncertainty k = 2.759184
         8         7        12        13     9      180.000000       -0.455627         2    ;  uncertainty k = 1.086444
         8         7        12        13     9        0.000000        0.946085         3    ;  uncertainty k = 0.361284
         8         7        12        13     9      180.000000       -0.122077         4    ;  uncertainty k = 0.254867
         8         7        12        27     9        0.000000       -0.801559         1    ;  uncertainty k = 0.812550
         8         7        12        27     9      180.000000       -0.312905         2    ;  uncertainty k = 0.561018
         8         7        12        27     9        0.000000        0.570623         3    ;  uncertainty k = 0.081320
         8         7        12        27     9      180.000000       -0.208392         4    ;  uncertainty k = 0.111171
         8         7        17        18     9        0.000000        1.190130         1    ;  uncertainty k = 1.551835
         8         7        17        18     9      180.000000        2.454891         2    ;  uncertainty k = 0.412896
         8         7        17        18     9        0.000000        0.234139         3    ;  uncertainty k = 0.595768
         8         7        17        18     9      180.000000        0.222047         4    ;  uncertainty k = 0.156392
         8         9        10        23     9        0.000000        5.639946         1    ;  uncertainty k = 1.763033
         8         9        10        23     9      180.000000       14.999895         2    ;  uncertainty k = 0.679303
         8         9        10        23     9        0.000000        1.413217         3    ;  uncertainty k = 0.713527
         8         9        10        23     9      180.000000       -0.820261         4    ;  uncertainty k = 0.324625
         8         9        10        24     9        0.000000        5.639946         1    ;  uncertainty k = 1.763033
         8         9        10        24     9      180.000000       14.999895         2    ;  uncertainty k = 0.679303
         8         9        10        24     9        0.000000        1.413217         3    ;  uncertainty k = 0.713527
         8         9        10        24     9      180.000000       -0.820261         4    ;  uncertainty k = 0.324625
         8         9        11        12     9        0.000000       -2.481943         1    ;  uncertainty k = 1.243761
         8         9        11        12     9      180.000000        5.891752         2    ;  uncertainty k = 1.882023
         8         9        11        12     9        0.000000       -0.060209         3    ;  uncertainty k = 0.474588
         8         9        11        12     9      180.000000        0.286459         4    ;  uncertainty k = 0.306847
         8         9        11        25     9        0.000000       -1.597549         1    ;  uncertainty k = 1.394932
         8         9        11        25     9      180.000000        1.929590         2    ;  uncertainty k = 0.313827
         8         9        11        25     9        0.000000        0.502848         3    ;  uncertainty k = 0.249569
         8         9        11        25     9      180.000000        0.173344         4    ;  uncertainty k = 0.134392
         8         9        11        26     9        0.000000       -1.597549         1    ;  uncertainty k = 1.394932
         8         9        11        26     9      180.000000        1.929590         2    ;  uncertainty k = 0.313827
         8         9        11        26     9        0.000000        0.502848         3    ;  uncertainty k = 0.249569
         8         9        11        26     9      180.000000        0.173344         4    ;  uncertainty k = 0.134392
         9         8         7        12     9        0.000000       -1.805167         1    ;  uncertainty k = 1.028273
         9         8         7        12     9      180.000000        1.285877         2    ;  uncertainty k = 0.661220
         9         8         7        12     9        0.000000       -0.085003         3    ;  uncertainty k = 0.385690
         9         8         7        12     9      180.000000        0.280412         4    ;  uncertainty k = 0.136437
         9         8         7        17     9        0.000000       -0.301314         1    ;  uncertainty k = 1.238101
         9         8         7        17     9      180.000000        1.458822         2    ;  uncertainty k = 0.455171
         9         8         7        17     9        0.000000        0.280991         3    ;  uncertainty k = 0.347852
         9         8         7        17     9      180.000000        0.437656         4    ;  uncertainty k = 0.250139
         9        11        12        13     9        0.000000       -1.191830         1    ;  uncertainty k = 2.042345
         9        11        12        13     9      180.000000       -0.287155         2    ;  uncertainty k = 0.974725
         9        11        12        13     9        0.000000        0.254867         3    ;  uncertainty k = 0.326406
         9        11        12        13     9      180.000000       -0.106166         4    ;  uncertainty k = 0.222732
         9        11        12        27     9        0.000000       -1.683010         1    ;  uncertainty k = 0.934216
         9        11        12        27     9      180.000000        0.460973         2    ;  uncertainty k = 0.159081
         9        11        12        27     9        0.000000        0.577028         3    ;  uncertainty k = 0.170174
         9        11        12        27     9      180.000000        0.048389         4    ;  uncertainty k = 0.102053
        10         9         8        44     9        0.000000        1.711393         1    ;  uncertainty k = 3.097538
        10         9         8        44     9      180.000000       11.290738         2    ;  uncertainty k = 0.716713
        10         9         8        44     9        0.000000        1.263776         3    ;  uncertainty k = 0.371254
        10         9         8        44     9      180.000000       -0.199973         4    ;  uncertainty k = 0.315665
        10         9        11        12     9        0.000000        0.711012         1    ;  uncertainty k = 2.288408
        10         9        11        12     9      180.000000        2.976948         2    ;  uncertainty k = 0.726887
        10         9        11        12     9        0.000000        0.485024         3    ;  uncertainty k = 0.461905
        10         9        11        12     9      180.000000        0.390813         4    ;  uncertainty k = 0.148044
        10         9        11        25     9        0.000000       -1.018381         1    ;  uncertainty k = 1.118717
        10         9        11        25     9      180.000000        1.855627         2    ;  uncertainty k = 0.519445
        10         9        11        25     9        0.000000        0.471353         3    ;  uncertainty k = 0.243351
        10         9        11        25     9      180.000000        0.175330         4    ;  uncertainty k = 0.069887
        10         9        11        26     9        0.000000       -1.018381         1    ;  uncertainty k = 1.118717
        10         9        11        26     9      180.000000        1.855627         2    ;  uncertainty k = 0.519445
        10         9        11        26     9        0.000000        0.471353         3    ;  uncertainty k = 0.243351
        10         9        11        26     9      180.000000        0.175330         4    ;  uncertainty k = 0.069887
        11         9         8        44     9        0.000000        0.209407         1    ;  uncertainty k = 2.454945
        11         9         8        44     9      180.000000       13.064939         2    ;  uncertainty k = 0.674453
        11         9         8        44     9        0.000000        1.488201         3    ;  uncertainty k = 0.334343
        11         9         8        44     9      180.000000       -0.337287         4    ;  uncertainty k = 0.304455
        11         9        10        23     9        0.000000        1.995219         1    ;  uncertainty k = 2.390794
        11         9        10        23     9      180.000000       10.777981         2    ;  uncertainty k = 0.517169
        11         9        10        23     9        0.000000        1.163167         3    ;  uncertainty k = 0.491973
        11         9        10        23     9      180.000000       -0.557923         4    ;  uncertainty k = 0.168475
        11         9        10        24     9        0.000000        1.995219         1    ;  uncertainty k = 2.390794
        11         9        10        24     9      180.000000       10.777981         2    ;  uncertainty k = 0.517169
        11         9        10        24     9        0.000000        1.163167         3    ;  uncertainty k = 0.491973
        11         9        10        24     9      180.000000       -0.557923         4    ;  uncertainty k = 0.168475
        11        12         7        17     9        0.000000       -0.605950         1    ;  uncertainty k = 0.853928
        11        12         7        17     9      180.000000        0.866925         2    ;  uncertainty k = 0.784603
        11        12         7        17     9        0.000000        0.519531         3    ;  uncertainty k = 0.216342
        11        12         7        17     9      180.000000       -0.093916         4    ;  uncertainty k = 0.064104
        11        12        13        14     9        0.000000       -0.728367         1    ;  uncertainty k = 0.384599
        11        12        13        14     9      180.000000        0.458213         2    ;  uncertainty k = 0.349865
        11        12        13        14     9        0.000000        0.346550         3    ;  uncertainty k = 0.205131
        11        12        13        14     9      180.000000       -0.252210         4    ;  uncertainty k = 0.090757
        11        12        13        15     9        0.000000       -0.728367         1    ;  uncertainty k = 0.384599
        11        12        13        15     9      180.000000        0.458213         2    ;  uncertainty k = 0.349865
        11        12        13        15     9        0.000000        0.346550         3    ;  uncertainty k = 0.205131
        11        12        13        15     9      180.000000       -0.252210         4    ;  uncertainty k = 0.090757
        11        12        13        16     9        0.000000       -0.728367         1    ;  uncertainty k = 0.384599
        11        12        13        16     9      180.000000        0.458213         2    ;  uncertainty k = 0.349865
        11        12        13        16     9        0.000000        0.346550         3    ;  uncertainty k = 0.205131
        11        12        13        16     9      180.000000       -0.252210         4    ;  uncertainty k = 0.090757
        12         7         6        21     9        0.000000       -0.138198         1    ;  uncertainty k = 0.304670
        12         7         6        21     9      180.000000       -0.978930         2    ;  uncertainty k = 0.334306
        12         7         6        21     9        0.000000       -0.066286         3    ;  uncertainty k = 0.110908
        12         7         6        21     9      180.000000       -0.158394         4    ;  uncertainty k = 0.112943
        12         7         6        22     9        0.000000       -0.138198         1    ;  uncertainty k = 0.304670
        12         7         6        22     9      180.000000       -0.978930         2    ;  uncertainty k = 0.334306
        12         7         6        22     9        0.000000       -0.066286         3    ;  uncertainty k = 0.110908
        12         7         6        22     9      180.000000       -0.158394         4    ;  uncertainty k = 0.112943
        12         7         8        44     9        0.000000        1.289548         1    ;  uncertainty k = 0.893061
        12         7         8        44     9      180.000000       -0.728208         2    ;  uncertainty k = 1.432712
        12         7         8        44     9        0.000000        0.531329         3    ;  uncertainty k = 0.283826
        12         7         8        44     9      180.000000        0.176152         4    ;  uncertainty k = 0.192879
        12         7        17        18     9        0.000000        0.455425         1    ;  uncertainty k = 0.632704
        12         7        17        18     9      180.000000        1.727124         2    ;  uncertainty k = 0.572050
        12         7        17        18     9        0.000000        0.259995         3    ;  uncertainty k = 0.414216
        12         7        17        18     9      180.000000        0.418304         4    ;  uncertainty k = 0.100701
        13        12         7        17     9        0.000000       -0.682746         1    ;  uncertainty k = 1.387778
        13        12         7        17     9      180.000000        0.137620         2    ;  uncertainty k = 0.599277
        13        12         7        17     9        0.000000        0.486183         3    ;  uncertainty k = 0.182798
        13        12         7        17     9      180.000000       -0.023587         4    ;  uncertainty k = 0.092374
        13        12        11        25     9        0.000000        0.576002         1    ;  uncertainty k = 0.389149
        13        12        11        25     9      180.000000       -0.755541         2    ;  uncertainty k = 0.252053
        13        12        11        25     9        0.000000        0.509245         3    ;  uncertainty k = 0.150473
        13        12        11        25     9      180.000000       -0.151936         4    ;  uncertainty k = 0.054750
        13        12        11        26     9        0.000000        0.576002         1    ;  uncertainty k = 0.389149
        13        12        11        26     9      180.000000       -0.755541         2    ;  uncertainty k = 0.252053
        13        12        11        26     9        0.000000        0.509245         3    ;  uncertainty k = 0.150473
        13        12        11        26     9      180.000000       -0.151936         4    ;  uncertainty k = 0.054750
        14        13        12        27     9        0.000000       -0.478553         1    ;  uncertainty k = 0.648782
        14        13        12        27     9      180.000000       -0.280066         2    ;  uncertainty k = 0.237277
        14        13        12        27     9        0.000000        0.468749         3    ;  uncertainty k = 0.182964
        14        13        12        27     9      180.000000       -0.084173         4    ;  uncertainty k = 0.105865
        15        13        12        27     9        0.000000       -0.478553         1    ;  uncertainty k = 0.648782
        15        13        12        27     9      180.000000       -0.280066         2    ;  uncertainty k = 0.237277
        15        13        12        27     9        0.000000        0.468749         3    ;  uncertainty k = 0.182964
        15        13        12        27     9      180.000000       -0.084173         4    ;  uncertainty k = 0.105865
        16        13        12        27     9        0.000000       -0.478553         1    ;  uncertainty k = 0.648782
        16        13        12        27     9      180.000000       -0.280066         2    ;  uncertainty k = 0.237277
        16        13        12        27     9        0.000000        0.468749         3    ;  uncertainty k = 0.182964
        16        13        12        27     9      180.000000       -0.084173         4    ;  uncertainty k = 0.105865
        17         4         3        20     9        0.000000        0.212446         1    ;  uncertainty k = 0.410462
        17         4         3        20     9      180.000000        5.992657         2    ;  uncertainty k = 0.906414
        17         4         3        20     9        0.000000        1.240565         3    ;  uncertainty k = 0.228595
        17         4         3        20     9      180.000000        1.307825         4    ;  uncertainty k = 0.096796
        17         7         6        21     9        0.000000       -0.127813         1    ;  uncertainty k = 0.288258
        17         7         6        21     9      180.000000       -0.423514         2    ;  uncertainty k = 0.388022
        17         7         6        21     9        0.000000        0.271145         3    ;  uncertainty k = 0.155091
        17         7         6        21     9      180.000000       -0.087033         4    ;  uncertainty k = 0.091940
        17         7         6        22     9        0.000000       -0.127813         1    ;  uncertainty k = 0.288258
        17         7         6        22     9      180.000000       -0.423514         2    ;  uncertainty k = 0.388022
        17         7         6        22     9        0.000000        0.271145         3    ;  uncertainty k = 0.155091
        17         7         6        22     9      180.000000       -0.087033         4    ;  uncertainty k = 0.091940
        17         7         8        44     9        0.000000        1.138538         1    ;  uncertainty k = 1.557059
        17         7         8        44     9      180.000000       -0.345043         2    ;  uncertainty k = 0.126566
        17         7         8        44     9        0.000000        0.593677         3    ;  uncertainty k = 0.383884
        17         7         8        44     9      180.000000        0.109214         4    ;  uncertainty k = 0.256612
        17         7        12        27     9        0.000000       -0.348826         1    ;  uncertainty k = 0.398985
        17         7        12        27     9      180.000000        0.326514         2    ;  uncertainty k = 0.396047
        17         7        12        27     9        0.000000        0.491707         3    ;  uncertainty k = 0.159582
        17         7        12        27     9      180.000000       -0.142314         4    ;  uncertainty k = 0.078340
        17        18         1        32     9        0.000000        0.333161         1    ;  uncertainty k = 0.282183
        17        18         1        32     9      180.000000        9.420346         2    ;  uncertainty k = 0.515970
        17        18         1        32     9        0.000000        1.419385         3    ;  uncertainty k = 0.343196
        17        18         1        32     9      180.000000        1.650453         4    ;  uncertainty k = 0.202995
        18         1         2        19     9        0.000000        0.117434         1    ;  uncertainty k = 0.163168
        18         1         2        19     9      180.000000        6.862780         2    ;  uncertainty k = 0.599690
        18         1         2        19     9        0.000000        1.315734         3    ;  uncertainty k = 0.191746
        18         1         2        19     9      180.000000        1.583134         4    ;  uncertainty k = 0.290950
        18         1        32        31     9        0.000000       -0.308456         1    ;  uncertainty k = 0.399437
        18         1        32        31     9      180.000000        4.155282         2    ;  uncertainty k = 0.307283
        18         1        32        31     9        0.000000        0.265774         3    ;  uncertainty k = 0.144890
        18         1        32        31     9      180.000000        0.021947         4    ;  uncertainty k = 0.078049
        18         1        32        33     9        0.000000       -0.396464         1    ;  uncertainty k = 0.410635
        18         1        32        33     9      180.000000        4.160157         2    ;  uncertainty k = 0.279176
        18         1        32        33     9        0.000000        0.314694         3    ;  uncertainty k = 0.112358
        18         1        32        33     9      180.000000        0.012894         4    ;  uncertainty k = 0.117650
        19         2         1        32     9        0.000000       -0.184592         1    ;  uncertainty k = 0.294259
        19         2         1        32     9      180.000000        7.265756         2    ;  uncertainty k = 0.328581
        19         2         1        32     9        0.000000        0.825320         3    ;  uncertainty k = 0.142789
        19         2         1        32     9      180.000000        1.185600         4    ;  uncertainty k = 0.195057
        19         2         3        20     9        0.000000       -0.006444         1    ;  uncertainty k = 0.443999
        19         2         3        20     9      180.000000        7.591511         2    ;  uncertainty k = 0.295201
        19         2         3        20     9        0.000000       -0.337193         3    ;  uncertainty k = 0.294035
        19         2         3        20     9      180.000000        0.154127         4    ;  uncertainty k = 0.120482
        25        11        12        27     9        0.000000        1.062908         1    ;  uncertainty k = 0.361776
        25        11        12        27     9      180.000000       -0.680179         2    ;  uncertainty k = 0.313426
        25        11        12        27     9        0.000000        0.665646         3    ;  uncertainty k = 0.117054
        25        11        12        27     9      180.000000        0.112142         4    ;  uncertainty k = 0.087385
        26        11        12        27     9        0.000000        1.062908         1    ;  uncertainty k = 0.361776
        26        11        12        27     9      180.000000       -0.680179         2    ;  uncertainty k = 0.313426
        26        11        12        27     9        0.000000        0.665646         3    ;  uncertainty k = 0.117054
        26        11        12        27     9      180.000000        0.112142         4    ;  uncertainty k = 0.087385
        28        18         1        32     9        0.000000       -0.154698         1    ;  uncertainty k = 0.289424
        28        18         1        32     9      180.000000        7.251084         2    ;  uncertainty k = 0.242540
        28        18         1        32     9        0.000000        0.833004         3    ;  uncertainty k = 0.159839
        28        18         1        32     9      180.000000        1.208394         4    ;  uncertainty k = 0.164115
        29        30        31        32     9        0.000000        0.059160         1    ;  uncertainty k = 0.429492
        29        30        31        32     9      180.000000        9.185409         2    ;  uncertainty k = 0.585769
        29        30        31        32     9        0.000000        0.141574         3    ;  uncertainty k = 0.296902
        29        30        31        32     9      180.000000        1.208547         4    ;  uncertainty k = 0.342157
        29        30        31        36     9        0.000000        0.239309         1    ;  uncertainty k = 0.368194
        29        30        31        36     9      180.000000        6.118742         2    ;  uncertainty k = 0.401192
        29        30        31        36     9        0.000000        1.430399         3    ;  uncertainty k = 0.297136
        29        30        31        36     9      180.000000        1.645595         4    ;  uncertainty k = 0.099523
        29        30        38        40     9        0.000000        0.568152         1    ;  uncertainty k = 0.482524
        29        30        38        40     9      180.000000        7.612185         2    ;  uncertainty k = 0.075130
        29        30        38        40     9        0.000000        0.653770         3    ;  uncertainty k = 0.066949
        29        30        38        40     9      180.000000        0.294942         4    ;  uncertainty k = 0.014491
        29        34        33        32     9        0.000000       -0.020641         1    ;  uncertainty k = 0.322853
        29        34        33        32     9      180.000000       14.367310         2    ;  uncertainty k = 0.245279
        29        34        33        32     9        0.000000       -0.961418         3    ;  uncertainty k = 0.463445
        29        34        33        32     9      180.000000        0.692336         4    ;  uncertainty k = 0.229518
        29        34        33        37     9        0.000000        0.132850         1    ;  uncertainty k = 0.109325
        29        34        33        37     9      180.000000        7.908251         2    ;  uncertainty k = 0.319750
        29        34        33        37     9        0.000000        1.447100         3    ;  uncertainty k = 0.256586
        29        34        33        37     9      180.000000        1.872594         4    ;  uncertainty k = 0.164449
        30        29        34        33     9        0.000000       -0.105260         1    ;  uncertainty k = 0.230817
        30        29        34        33     9      180.000000       14.371835         2    ;  uncertainty k = 0.277295
        30        29        34        33     9        0.000000       -0.966893         3    ;  uncertainty k = 0.500878
        30        29        34        33     9      180.000000        0.733369         4    ;  uncertainty k = 0.242202
        30        29        34        39     9        0.000000       -0.010916         1    ;  uncertainty k = 0.142054
        30        29        34        39     9      180.000000        7.873057         2    ;  uncertainty k = 0.366934
        30        29        34        39     9        0.000000        1.300375         3    ;  uncertainty k = 0.298619
        30        29        34        39     9      180.000000        1.723267         4    ;  uncertainty k = 0.126994
        30        31        32        33     9        0.000000       -0.051765         1    ;  uncertainty k = 0.176143
        30        31        32        33     9      180.000000       11.138646         2    ;  uncertainty k = 0.329201
        30        31        32        33     9        0.000000       -0.203225         3    ;  uncertainty k = 0.203762
        30        31        32        33     9      180.000000        0.980539         4    ;  uncertainty k = 0.257431
        30        38        40        41     9        0.000000        0.684640         1    ;  uncertainty k = 0.190983
        30        38        40        41     9      180.000000       -1.417662         2    ;  uncertainty k = 0.128379
        30        38        40        41     9        0.000000        0.937134         3    ;  uncertainty k = 0.037775
        30        38        40        41     9      180.000000        0.288298         4    ;  uncertainty k = 0.056740
        30        38        40        42     9        0.000000        0.684640         1    ;  uncertainty k = 0.190983
        30        38        40        42     9      180.000000       -1.417662         2    ;  uncertainty k = 0.128379
        30        38        40        42     9        0.000000        0.937134         3    ;  uncertainty k = 0.037775
        30        38        40        42     9      180.000000        0.288298         4    ;  uncertainty k = 0.056740
        30        38        40        43     9        0.000000        0.684640         1    ;  uncertainty k = 0.190983
        30        38        40        43     9      180.000000       -1.417662         2    ;  uncertainty k = 0.128379
        30        38        40        43     9        0.000000        0.937134         3    ;  uncertainty k = 0.037775
        30        38        40        43     9      180.000000        0.288298         4    ;  uncertainty k = 0.056740
        31        30        29        34     9        0.000000       -0.032020         1    ;  uncertainty k = 0.138255
        31        30        29        34     9      180.000000        9.230967         2    ;  uncertainty k = 0.551766
        31        30        29        34     9        0.000000       -0.012191         3    ;  uncertainty k = 0.382133
        31        30        29        34     9      180.000000        1.178077         4    ;  uncertainty k = 0.316518
        31        30        29        35     9        0.000000        0.227375         1    ;  uncertainty k = 0.299384
        31        30        29        35     9      180.000000        5.908729         2    ;  uncertainty k = 0.465130
        31        30        29        35     9        0.000000        1.440377         3    ;  uncertainty k = 0.264747
        31        30        29        35     9      180.000000        1.567645         4    ;  uncertainty k = 0.112718
        31        30        38        40     9        0.000000       -0.172478         1    ;  uncertainty k = 0.519760
        31        30        38        40     9      180.000000        7.459654         2    ;  uncertainty k = 0.072536
        31        30        38        40     9        0.000000        0.501630         3    ;  uncertainty k = 0.143845
        31        30        38        40     9      180.000000        0.301177         4    ;  uncertainty k = 0.056818
        31        32        33        34     9        0.000000       -0.050119         1    ;  uncertainty k = 0.058111
        31        32        33        34     9      180.000000       11.766493         2    ;  uncertainty k = 0.307238
        31        32        33        34     9        0.000000       -0.517194         3    ;  uncertainty k = 0.373113
        31        32        33        34     9      180.000000        0.815086         4    ;  uncertainty k = 0.290700
        31        32        33        37     9        0.000000        0.087677         1    ;  uncertainty k = 0.203422
        31        32        33        37     9      180.000000        6.959058         2    ;  uncertainty k = 0.592312
        31        32        33        37     9        0.000000        1.509680         3    ;  uncertainty k = 0.230310
        31        32        33        37     9      180.000000        1.648228         4    ;  uncertainty k = 0.232565
        32        31        30        38     9        0.000000        0.020618         1    ;  uncertainty k = 0.300734
        32        31        30        38     9      180.000000       10.883538         2    ;  uncertainty k = 0.522692
        32        31        30        38     9        0.000000        1.024726         3    ;  uncertainty k = 0.262731
        32        31        30        38     9      180.000000        1.536767         4    ;  uncertainty k = 0.135749
        32        33        34        39     9        0.000000        0.017570         1    ;  uncertainty k = 0.217109
        32        33        34        39     9      180.000000        7.603911         2    ;  uncertainty k = 0.325892
        32        33        34        39     9        0.000000        1.342265         3    ;  uncertainty k = 0.247985
        32        33        34        39     9      180.000000        1.823422         4    ;  uncertainty k = 0.199275
        33        32        31        36     9        0.000000        0.249540         1    ;  uncertainty k = 0.173307
        33        32        31        36     9      180.000000        7.024246         2    ;  uncertainty k = 0.455955
        33        32        31        36     9        0.000000        1.540187         3    ;  uncertainty k = 0.232181
        33        32        31        36     9      180.000000        1.644420         4    ;  uncertainty k = 0.160448
        33        34        29        35     9        0.000000        0.181689         1    ;  uncertainty k = 0.108784
        33        34        29        35     9      180.000000        7.652690         2    ;  uncertainty k = 0.332199
        33        34        29        35     9        0.000000        1.546615         3    ;  uncertainty k = 0.258199
        33        34        29        35     9      180.000000        1.845233         4    ;  uncertainty k = 0.135100
        34        29        30        38     9        0.000000        0.007272         1    ;  uncertainty k = 0.283892
        34        29        30        38     9      180.000000       10.411240         2    ;  uncertainty k = 0.546572
        34        29        30        38     9        0.000000        1.143368         3    ;  uncertainty k = 0.289913
        34        29        30        38     9      180.000000        1.595407         4    ;  uncertainty k = 0.132128
        35        29        30        38     9        0.000000       -0.136090         1    ;  uncertainty k = 0.155001
        35        29        30        38     9      180.000000        8.163097         2    ;  uncertainty k = 0.300943
        35        29        30        38     9        0.000000        0.673514         3    ;  uncertainty k = 0.139306
        35        29        30        38     9      180.000000        0.988684         4    ;  uncertainty k = 0.206235
        35        29        34        39     9        0.000000       -0.097483         1    ;  uncertainty k = 0.054157
        35        29        34        39     9      180.000000        7.528875         2    ;  uncertainty k = 0.414439
        35        29        34        39     9        0.000000       -0.411260         3    ;  uncertainty k = 0.249762
        35        29        34        39     9      180.000000        0.090035         4    ;  uncertainty k = 0.124252
        36        31        30        38     9        0.000000       -0.125526         1    ;  uncertainty k = 0.258646
        36        31        30        38     9      180.000000        8.255718         2    ;  uncertainty k = 0.252212
        36        31        30        38     9        0.000000        0.653260         3    ;  uncertainty k = 0.158852
        36        31        30        38     9      180.000000        1.084644         4    ;  uncertainty k = 0.170815
        37        33        34        39     9        0.000000       -0.076016         1    ;  uncertainty k = 0.200664
        37        33        34        39     9      180.000000        7.577022         2    ;  uncertainty k = 0.368755
        37        33        34        39     9        0.000000       -0.449110         3    ;  uncertainty k = 0.279560
        37        33        34        39     9      180.000000        0.126568         4    ;  uncertainty k = 0.122678

[ dihedrals ] ; impropers
;       ai        aj        ak        al funct           phase               k        pn
         1         2        18        32     4      180.000000       13.393549         2    ;  uncertainty k = 0.109940
         1        18        32         2     4      180.000000       13.393549         2    ;  uncertainty k = 0.109940
         1        32         2        18     4      180.000000       13.393549         2    ;  uncertainty k = 0.109940
         2         1         3        19     4      180.000000        4.593826         2    ;  uncertainty k = 0.096625
         2         3        19         1     4      180.000000        4.593826         2    ;  uncertainty k = 0.096625
         2        19         1         3     4      180.000000        4.593826         2    ;  uncertainty k = 0.096625
         3         2         4        20     4      180.000000        2.149282         2    ;  uncertainty k = 0.190108
         3         4        20         2     4      180.000000        2.149282         2    ;  uncertainty k = 0.190108
         3        20         2         4     4      180.000000        2.149282         2    ;  uncertainty k = 0.190108
         4         3         5        17     4      180.000000        9.221800         2    ;  uncertainty k = 0.335485
         4         5        17         3     4      180.000000        9.221800         2    ;  uncertainty k = 0.335485
         4        17         3         5     4      180.000000        9.221800         2    ;  uncertainty k = 0.335485
         9         8        10        11     4      180.000000       28.440322         2    ;  uncertainty k = 0.165657
         9        10        11         8     4      180.000000       28.440322         2    ;  uncertainty k = 0.165657
         9        11         8        10     4      180.000000       28.440322         2    ;  uncertainty k = 0.165657
        10         9        23        24     4      180.000000        0.283597         2    ;  uncertainty k = 0.634143
        10        23        24         9     4      180.000000        0.283597         2    ;  uncertainty k = 0.634143
        10        24         9        23     4      180.000000        0.283597         2    ;  uncertainty k = 0.634143
        17         4         7        18     4      180.000000        1.387617         2    ;  uncertainty k = 0.550312
        17         7        18         4     4      180.000000        1.387617         2    ;  uncertainty k = 0.550312
        17        18         4         7     4      180.000000        1.387617         2    ;  uncertainty k = 0.550312
        18         1        17        28     4      180.000000        5.728350         2    ;  uncertainty k = 0.235568
        18        17        28         1     4      180.000000        5.728350         2    ;  uncertainty k = 0.235568
        18        28         1        17     4      180.000000        5.728350         2    ;  uncertainty k = 0.235568
        29        30        34        35     4      180.000000        2.183159         2    ;  uncertainty k = 0.331350
        29        34        35        30     4      180.000000        2.183159         2    ;  uncertainty k = 0.331350
        29        35        30        34     4      180.000000        2.183159         2    ;  uncertainty k = 0.331350
        30        29        31        38     4      180.000000       19.906287         2    ;  uncertainty k = 0.072301
        30        31        38        29     4      180.000000       19.906287         2    ;  uncertainty k = 0.072301
        30        38        29        31     4      180.000000       19.906287         2    ;  uncertainty k = 0.072301
        31        30        32        36     4      180.000000        2.159673         2    ;  uncertainty k = 0.273393
        31        32        36        30     4      180.000000        2.159673         2    ;  uncertainty k = 0.273393
        31        36        30        32     4      180.000000        2.159673         2    ;  uncertainty k = 0.273393
        32         1        31        33     4      180.000000       15.196982         2    ;  uncertainty k = 0.069323
        32        31        33         1     4      180.000000       15.196982         2    ;  uncertainty k = 0.069323
        32        33         1        31     4      180.000000       15.196982         2    ;  uncertainty k = 0.069323
        33        32        34        37     4      180.000000        2.850186         2    ;  uncertainty k = 0.124427
        33        34        37        32     4      180.000000        2.850186         2    ;  uncertainty k = 0.124427
        33        37        32        34     4      180.000000        2.850186         2    ;  uncertainty k = 0.124427
        34        29        33        39     4      180.000000        4.422074         2    ;  uncertainty k = 0.132652
        34        33        39        29     4      180.000000        4.422074         2    ;  uncertainty k = 0.132652
        34        39        29        33     4      180.000000        4.422074         2    ;  uncertainty k = 0.132652

[ pairs ]
;       ai        aj funct
         1         4     1
         1         7     1
         1        20     1
         1        30     1
         1        34     1
         1        36     1
         1        37     1
         2         5     1
         2        17     1
         2        28     1
         2        31     1
         2        33     1
         3         6     1
         3         7     1
         3        18     1
         3        32     1
         4         8     1
         4        12     1
         4        19     1
         4        21     1
         4        22     1
         4        28     1
         5         8     1
         5        12     1
         5        18     1
         5        20     1
         6         9     1
         6        11     1
         6        13     1
         6        18     1
         6        27     1
         6        44     1
         7        10     1
         7        14     1
         7        15     1
         7        16     1
         7        25     1
         7        26     1
         7        28     1
         8        13     1
         8        18     1
         8        21     1
         8        22     1
         8        23     1
         8        24     1
         8        25     1
         8        26     1
         8        27     1
         9        13     1
         9        17     1
         9        27     1
        10        12     1
        10        25     1
        10        26     1
        10        44     1
        11        14     1
        11        15     1
        11        16     1
        11        17     1
        11        23     1
        11        24     1
        11        44     1
        12        18     1
        12        21     1
        12        22     1
        12        44     1
        13        17     1
        13        25     1
        13        26     1
        14        27     1
        15        27     1
        16        27     1
        17        20     1
        17        21     1
        17        22     1
        17        27     1
        17        32     1
        17        44     1
        18        19     1
        18        31     1
        18        33     1
        19        20     1
        19        32     1
        25        27     1
        26        27     1
        28        32     1
        29        32     1
        29        36     1
        29        37     1
        29        40     1
        30        33     1
        30        39     1
        30        41     1
        30        42     1
        30        43     1
        31        34     1
        31        35     1
        31        37     1
        31        40     1
        32        38     1
        32        39     1
        33        35     1
        33        36     1
        34        38     1
        35        38     1
        35        39     1
        36        38     1
        37        39     1
