; ITP file created by ByteFF-joint-25, 2025-07-14 11:28:14.976622

[ atomtypes ]
;name           bonded.type        at.num        mass        charge   ptype           sigma         epsilon
 n0bf                                   7      0.0000       0.00000       A     3.38457e-01     3.93065e-01    ;  uncertainty sigma = 0.000033, epsilon = 0.002906
 n1bf                                   7      0.0000       0.00000       A     3.38476e-01     3.93713e-01    ;  uncertainty sigma = 0.000022, epsilon = 0.001198
 c2bf                                   6      0.0000       0.00000       A     3.31540e-01     4.12843e-01    ;  uncertainty sigma = 0.000018, epsilon = 0.001341
 c3bf                                   6      0.0000       0.00000       A     3.31532e-01     4.12868e-01    ;  uncertainty sigma = 0.000013, epsilon = 0.000681
 n4bf                                   7      0.0000       0.00000       A     3.38467e-01     3.94052e-01    ;  uncertainty sigma = 0.000030, epsilon = 0.001987
 c5bf                                   6      0.0000       0.00000       A     3.31538e-01     4.13311e-01    ;  uncertainty sigma = 0.000020, epsilon = 0.001585
 c6bf                                   6      0.0000       0.00000       A     3.31537e-01     4.13495e-01    ;  uncertainty sigma = 0.000004, epsilon = 0.000558
 c7bf                                   6      0.0000       0.00000       A     3.31522e-01     4.13205e-01    ;  uncertainty sigma = 0.000006, epsilon = 0.000569
 c8bf                                   6      0.0000       0.00000       A     3.31519e-01     4.13735e-01    ;  uncertainty sigma = 0.000006, epsilon = 0.000926
 c9bf                                   6      0.0000       0.00000       A     3.31536e-01     4.13425e-01    ;  uncertainty sigma = 0.000021, epsilon = 0.000777
 c10bf                                  6      0.0000       0.00000       A     3.31519e-01     4.13735e-01    ;  uncertainty sigma = 0.000006, epsilon = 0.000926
 c11bf                                  6      0.0000       0.00000       A     3.31522e-01     4.13205e-01    ;  uncertainty sigma = 0.000006, epsilon = 0.000569
 c12bf                                  6      0.0000       0.00000       A     3.31518e-01     4.13340e-01    ;  uncertainty sigma = 0.000003, epsilon = 0.000580
 c13bf                                  6      0.0000       0.00000       A     3.31519e-01     4.13380e-01    ;  uncertainty sigma = 0.000002, epsilon = 0.000627
 c14bf                                  6      0.0000       0.00000       A     3.31517e-01     4.13568e-01    ;  uncertainty sigma = 0.000002, epsilon = 0.000944
 c15bf                                  6      0.0000       0.00000       A     3.31548e-01     4.13550e-01    ;  uncertainty sigma = 0.000019, epsilon = 0.000920
 c16bf                                  6      0.0000       0.00000       A     3.31517e-01     4.13568e-01    ;  uncertainty sigma = 0.000002, epsilon = 0.000944
 c17bf                                  6      0.0000       0.00000       A     3.31519e-01     4.13380e-01    ;  uncertainty sigma = 0.000002, epsilon = 0.000627
 n18bf                                  7      0.0000       0.00000       A     3.36800e-01     4.68954e-01    ;  uncertainty sigma = 0.000066, epsilon = 0.001925
 h19bf                                  1      0.0000       0.00000       A     2.62560e-01     6.71320e-02    ;  uncertainty sigma = 0.000013, epsilon = 0.000659
 h20bf                                  1      0.0000       0.00000       A     2.62560e-01     6.71320e-02    ;  uncertainty sigma = 0.000013, epsilon = 0.000659
 h21bf                                  1      0.0000       0.00000       A     2.62552e-01     6.70645e-02    ;  uncertainty sigma = 0.000011, epsilon = 0.000453
 h22bf                                  1      0.0000       0.00000       A     2.62559e-01     6.70250e-02    ;  uncertainty sigma = 0.000010, epsilon = 0.000440
 h23bf                                  1      0.0000       0.00000       A     2.62560e-01     6.70283e-02    ;  uncertainty sigma = 0.000012, epsilon = 0.000523
 h24bf                                  1      0.0000       0.00000       A     2.62560e-01     6.70283e-02    ;  uncertainty sigma = 0.000012, epsilon = 0.000523
 h25bf                                  1      0.0000       0.00000       A     2.62559e-01     6.70250e-02    ;  uncertainty sigma = 0.000010, epsilon = 0.000440
 h26bf                                  1      0.0000       0.00000       A     1.10728e-01     4.07631e-02    ;  uncertainty sigma = 0.000034, epsilon = 0.001087
 h27bf                                  1      0.0000       0.00000       A     1.10728e-01     4.07631e-02    ;  uncertainty sigma = 0.000034, epsilon = 0.001087
 cl28bf                                17      0.0000       0.00000       A     3.46597e-01     1.10401e+00    ;  uncertainty sigma = 0.000014, epsilon = 0.001740
 cl29bf                                17      0.0000       0.00000       A     3.46597e-01     1.10401e+00    ;  uncertainty sigma = 0.000014, epsilon = 0.001740
 h30bf                                  1      0.0000       0.00000       A     2.62569e-01     6.72558e-02    ;  uncertainty sigma = 0.000008, epsilon = 0.000613

[ moleculetype ]
;name             nrexcl
 MOL                   3

[ atoms ]
;       nr            type      resi   res      atom      cgnr      charge          mass ; qtot
         1            n0bf         1   UNL        n0         1    -0.40685       14.0070 ; qtot   -0.407
         2            n1bf         1   UNL        n1         2    -0.25042       14.0070 ; qtot   -0.657
         3            c2bf         1   UNL        c2         3     0.25267       12.0110 ; qtot   -0.405
         4            c3bf         1   UNL        c3         4     0.47240       12.0110 ; qtot    0.068
         5            n4bf         1   UNL        n4         5    -0.73822       14.0070 ; qtot   -0.670
         6            c5bf         1   UNL        c5         6     0.82167       12.0110 ; qtot    0.151
         7            c6bf         1   UNL        c6         7    -0.10093       12.0110 ; qtot    0.050
         8            c7bf         1   UNL        c7         8     0.03553       12.0110 ; qtot    0.086
         9            c8bf         1   UNL        c8         9    -0.08835       12.0110 ; qtot   -0.003
        10            c9bf         1   UNL        c9        10    -0.12454       12.0110 ; qtot   -0.127
        11           c10bf         1   UNL       c10        11    -0.08835       12.0110 ; qtot   -0.215
        12           c11bf         1   UNL       c11        12     0.03553       12.0110 ; qtot   -0.180
        13           c12bf         1   UNL       c12        13    -0.11402       12.0110 ; qtot   -0.294
        14           c13bf         1   UNL       c13        14    -0.13628       12.0110 ; qtot   -0.430
        15           c14bf         1   UNL       c14        15    -0.09093       12.0110 ; qtot   -0.521
        16           c15bf         1   UNL       c15        16    -0.17251       12.0110 ; qtot   -0.694
        17           c16bf         1   UNL       c16        17    -0.09093       12.0110 ; qtot   -0.785
        18           c17bf         1   UNL       c17        18    -0.13628       12.0110 ; qtot   -0.921
        19           n18bf         1   UNL       n18        19    -0.92625       14.0070 ; qtot   -1.847
        20           h19bf         1   UNL       h19        20     0.16620        1.0080 ; qtot   -1.681
        21           h20bf         1   UNL       h20        21     0.16620        1.0080 ; qtot   -1.515
        22           h21bf         1   UNL       h21        22     0.13373        1.0080 ; qtot   -1.381
        23           h22bf         1   UNL       h22        23     0.13437        1.0080 ; qtot   -1.247
        24           h23bf         1   UNL       h23        24     0.14424        1.0080 ; qtot   -1.102
        25           h24bf         1   UNL       h24        25     0.14424        1.0080 ; qtot   -0.958
        26           h25bf         1   UNL       h25        26     0.13437        1.0080 ; qtot   -0.824
        27           h26bf         1   UNL       h26        27     0.43092        1.0080 ; qtot   -0.393
        28           h27bf         1   UNL       h27        28     0.43092        1.0080 ; qtot    0.038
        29          cl28bf         1   UNL      cl28        29    -0.10286       35.4530 ; qtot   -0.065
        30          cl29bf         1   UNL      cl29        30    -0.10286       35.4530 ; qtot   -0.168
        31           h30bf         1   UNL       h30        31     0.16759        1.0080 ; qtot   -0.000

[ bonds ]
;       ai        aj funct               r               k
         1         2     1        0.130778   361370.603955    ;  uncertainty r = 0.000176, k = 32.459970
         1         6     1        0.135400   366916.906592    ;  uncertainty r = 0.000241, k = 17.361955
         2         3     1        0.133391   331616.577246    ;  uncertainty r = 0.000407, k = 15.217831
         3         4     1        0.140446   326378.150000    ;  uncertainty r = 0.000185, k = 17.669515
         3        10     1        0.147956   272247.650000    ;  uncertainty r = 0.000111, k = 13.442467
         4         5     1        0.133035   420127.381152    ;  uncertainty r = 0.000119, k = 20.872352
         4        16     1        0.147775   265849.735840    ;  uncertainty r = 0.000153, k = 2.016089
         5         6     1        0.136102   532915.906348    ;  uncertainty r = 0.000140, k = 13.557526
         6        19     1        0.140058   625071.519727    ;  uncertainty r = 0.000422, k = 22.781256
         7         8     1        0.139408   362731.553125    ;  uncertainty r = 0.000022, k = 3.601519
         7        12     1        0.139408   362731.553125    ;  uncertainty r = 0.000022, k = 3.601519
         7        31     1        0.108642   337225.547949    ;  uncertainty r = 0.000011, k = 0.523468
         8         9     1        0.139266   354774.853809    ;  uncertainty r = 0.000035, k = 3.211341
         8        29     1        0.175384   198122.946826    ;  uncertainty r = 0.000045, k = 1.555620
         9        10     1        0.139677   351799.703955    ;  uncertainty r = 0.000043, k = 5.662378
         9        20     1        0.108623   333883.200000    ;  uncertainty r = 0.000020, k = 0.656559
        10        11     1        0.139677   351799.703955    ;  uncertainty r = 0.000043, k = 5.662378
        11        12     1        0.139266   354774.853809    ;  uncertainty r = 0.000035, k = 3.211341
        11        21     1        0.108623   333883.200000    ;  uncertainty r = 0.000020, k = 0.656559
        12        30     1        0.175384   198122.946826    ;  uncertainty r = 0.000045, k = 1.555620
        13        14     1        0.139638   371681.952441    ;  uncertainty r = 0.000015, k = 0.978306
        13        18     1        0.139638   371681.952441    ;  uncertainty r = 0.000015, k = 0.978306
        13        22     1        0.108841   334518.920801    ;  uncertainty r = 0.000012, k = 0.635598
        14        15     1        0.139410   364403.723047    ;  uncertainty r = 0.000027, k = 1.125537
        14        23     1        0.108844   333597.720654    ;  uncertainty r = 0.000013, k = 0.737651
        15        16     1        0.140052   345029.586426    ;  uncertainty r = 0.000032, k = 1.520525
        15        24     1        0.108717   333226.053564    ;  uncertainty r = 0.000015, k = 0.733478
        16        17     1        0.140052   345029.586426    ;  uncertainty r = 0.000032, k = 1.520525
        17        18     1        0.139410   364403.723047    ;  uncertainty r = 0.000027, k = 1.125537
        17        25     1        0.108717   333226.053564    ;  uncertainty r = 0.000015, k = 0.733478
        18        26     1        0.108844   333597.720654    ;  uncertainty r = 0.000013, k = 0.737651
        19        27     1        0.102196   439793.713379    ;  uncertainty r = 0.000076, k = 4.088413
        19        28     1        0.102196   439793.713379    ;  uncertainty r = 0.000076, k = 4.088413

[ angles ]
;       ai        aj        ak funct           theta             cth
         1         2         3     1      119.692215      626.949123    ;  uncertainty theta = 0.005347, k = 0.076995
         1         6         5     1      125.473976      667.166559    ;  uncertainty theta = 0.004399, k = 0.260032
         1         6        19     1      122.667969      687.926313    ;  uncertainty theta = 0.008559, k = 0.200162
         2         1         6     1      112.117577      575.313599    ;  uncertainty theta = 0.004635, k = 0.210273
         2         3         4     1      122.508377      527.510939    ;  uncertainty theta = 0.006688, k = 0.154850
         2         3        10     1      116.331017      445.266571    ;  uncertainty theta = 0.007226, k = 0.201615
         3         4         5     1      120.142494      519.230882    ;  uncertainty theta = 0.006631, k = 0.321641
         3         4        16     1      120.905434      335.996472    ;  uncertainty theta = 0.005372, k = 0.294794
         3        10         9     1      119.801781      372.374212    ;  uncertainty theta = 0.006015, k = 0.151003
         3        10        11     1      119.801781      372.374212    ;  uncertainty theta = 0.006015, k = 0.151003
         4         3        10     1      121.051781      352.978076    ;  uncertainty theta = 0.005503, k = 0.285488
         4         5         6     1      117.333641      426.968275    ;  uncertainty theta = 0.017496, k = 0.318744
         4        16        15     1      118.619736      365.704334    ;  uncertainty theta = 0.003070, k = 0.150298
         4        16        17     1      118.619736      365.704334    ;  uncertainty theta = 0.003070, k = 0.150298
         5         4        16     1      120.498230      469.984514    ;  uncertainty theta = 0.005482, k = 0.142607
         5         6        19     1      125.763504      798.173718    ;  uncertainty theta = 0.006180, k = 0.064188
         6        19        27     1      118.262405      443.776577    ;  uncertainty theta = 0.004875, k = 0.045402
         6        19        28     1      118.262405      443.776577    ;  uncertainty theta = 0.004875, k = 0.045402
         7         8         9     1      121.879929      362.582934    ;  uncertainty theta = 0.001571, k = 0.133520
         7         8        29     1      119.901756      444.771407    ;  uncertainty theta = 0.001612, k = 0.056198
         7        12        11     1      121.879929      362.582934    ;  uncertainty theta = 0.001571, k = 0.133520
         7        12        30     1      119.901756      444.771407    ;  uncertainty theta = 0.001612, k = 0.056198
         8         7        12     1      116.670639      497.292143    ;  uncertainty theta = 0.001370, k = 0.037945
         8         7        31     1      121.773788      283.790577    ;  uncertainty theta = 0.002005, k = 0.031722
         8         9        10     1      119.128052      518.871064    ;  uncertainty theta = 0.003303, k = 0.049289
         8         9        20     1      121.128395      292.918210    ;  uncertainty theta = 0.001673, k = 0.059802
         9         8        29     1      120.172302      435.521961    ;  uncertainty theta = 0.001521, k = 0.048249
         9        10        11     1      122.065201      427.372272    ;  uncertainty theta = 0.005619, k = 0.083416
        10         9        20     1      119.629211      268.908858    ;  uncertainty theta = 0.002243, k = 0.046653
        10        11        12     1      119.128052      518.871064    ;  uncertainty theta = 0.003303, k = 0.049289
        10        11        21     1      119.629211      268.908858    ;  uncertainty theta = 0.002243, k = 0.046653
        11        12        30     1      120.172302      435.521961    ;  uncertainty theta = 0.001521, k = 0.048249
        12         7        31     1      121.773788      283.790545    ;  uncertainty theta = 0.002005, k = 0.031722
        12        11        21     1      121.128395      292.918242    ;  uncertainty theta = 0.001673, k = 0.059802
        13        14        15     1      119.529297      515.813762    ;  uncertainty theta = 0.001865, k = 0.035586
        13        14        23     1      120.660217      288.604066    ;  uncertainty theta = 0.001135, k = 0.015010
        13        18        17     1      119.529297      515.813762    ;  uncertainty theta = 0.001865, k = 0.035586
        13        18        26     1      120.660217      288.604066    ;  uncertainty theta = 0.001135, k = 0.015010
        14        13        18     1      118.344101      527.921193    ;  uncertainty theta = 0.001138, k = 0.026327
        14        13        22     1      120.585655      288.470922    ;  uncertainty theta = 0.001777, k = 0.013074
        14        15        16     1      120.766884      528.404514    ;  uncertainty theta = 0.002344, k = 0.034155
        14        15        24     1      120.422874      292.742706    ;  uncertainty theta = 0.001561, k = 0.018301
        15        14        23     1      120.046219      284.619543    ;  uncertainty theta = 0.001720, k = 0.015559
        15        16        17     1      121.273514      438.081450    ;  uncertainty theta = 0.004734, k = 0.088958
        16        15        24     1      118.758041      275.494336    ;  uncertainty theta = 0.002279, k = 0.045416
        16        17        18     1      120.766884      528.404514    ;  uncertainty theta = 0.002344, k = 0.034155
        16        17        25     1      118.758041      275.494336    ;  uncertainty theta = 0.002279, k = 0.045416
        17        18        26     1      120.046219      284.619543    ;  uncertainty theta = 0.001720, k = 0.015559
        18        13        22     1      120.585655      288.470954    ;  uncertainty theta = 0.001777, k = 0.013074
        18        17        25     1      120.422874      292.742738    ;  uncertainty theta = 0.001561, k = 0.018301
        27        19        28     1      107.926712      266.053522    ;  uncertainty theta = 0.004368, k = 0.064560

[ dihedrals ] ; propers for gromacs 4.5 or higher, use funct 9
;       ai        aj        ak        al funct           phase               k        pn
         1         2         3         4     9        0.000000        1.821409         1    ;  uncertainty k = 1.462023
         1         2         3         4     9      180.000000       12.132194         2    ;  uncertainty k = 0.322458
         1         2         3         4     9        0.000000        2.143318         3    ;  uncertainty k = 0.322225
         1         2         3         4     9      180.000000        1.362291         4    ;  uncertainty k = 0.142762
         1         2         3        10     9        0.000000        0.850087         1    ;  uncertainty k = 0.694436
         1         2         3        10     9      180.000000       17.994545         2    ;  uncertainty k = 0.274268
         1         2         3        10     9        0.000000        2.951588         3    ;  uncertainty k = 0.500737
         1         2         3        10     9      180.000000        1.565436         4    ;  uncertainty k = 0.417907
         1         6         5         4     9        0.000000       -0.159502         1    ;  uncertainty k = 2.061285
         1         6         5         4     9      180.000000        3.831664         2    ;  uncertainty k = 1.625385
         1         6         5         4     9        0.000000        1.173384         3    ;  uncertainty k = 0.518495
         1         6         5         4     9      180.000000        0.562840         4    ;  uncertainty k = 0.479066
         1         6        19        27     9        0.000000       13.129111         1    ;  uncertainty k = 0.629667
         1         6        19        27     9      180.000000        9.756533         2    ;  uncertainty k = 0.245450
         1         6        19        27     9        0.000000        0.714123         3    ;  uncertainty k = 0.172606
         1         6        19        27     9      180.000000       -0.412217         4    ;  uncertainty k = 0.285718
         1         6        19        28     9        0.000000       13.129111         1    ;  uncertainty k = 0.629667
         1         6        19        28     9      180.000000        9.756533         2    ;  uncertainty k = 0.245450
         1         6        19        28     9        0.000000        0.714123         3    ;  uncertainty k = 0.172606
         1         6        19        28     9      180.000000       -0.412217         4    ;  uncertainty k = 0.285718
         2         1         6         5     9        0.000000        1.968898         1    ;  uncertainty k = 1.303642
         2         1         6         5     9      180.000000        5.539831         2    ;  uncertainty k = 1.934359
         2         1         6         5     9        0.000000        1.215088         3    ;  uncertainty k = 0.650296
         2         1         6         5     9      180.000000        1.068040         4    ;  uncertainty k = 0.490493
         2         1         6        19     9        0.000000        2.793109         1    ;  uncertainty k = 1.767061
         2         1         6        19     9      180.000000       10.325178         2    ;  uncertainty k = 0.754001
         2         1         6        19     9        0.000000        2.692809         3    ;  uncertainty k = 0.395811
         2         1         6        19     9      180.000000        0.982486         4    ;  uncertainty k = 0.243420
         2         3         4         5     9        0.000000       -0.774546         1    ;  uncertainty k = 0.641153
         2         3         4         5     9      180.000000        3.439866         2    ;  uncertainty k = 1.140727
         2         3         4         5     9        0.000000       -0.396321         3    ;  uncertainty k = 1.050228
         2         3         4         5     9      180.000000        0.544099         4    ;  uncertainty k = 0.603005
         2         3         4        16     9        0.000000       -1.450278         1    ;  uncertainty k = 1.182181
         2         3         4        16     9      180.000000        2.374453         2    ;  uncertainty k = 0.822226
         2         3         4        16     9        0.000000        0.053561         3    ;  uncertainty k = 0.845094
         2         3         4        16     9      180.000000        0.816734         4    ;  uncertainty k = 0.490314
         2         3        10         9     9        0.000000       -0.096293         1    ;  uncertainty k = 0.727019
         2         3        10         9     9      180.000000        4.752601         2    ;  uncertainty k = 0.169665
         2         3        10         9     9        0.000000        0.400834         3    ;  uncertainty k = 0.169846
         2         3        10         9     9      180.000000        0.119948         4    ;  uncertainty k = 0.051488
         2         3        10        11     9        0.000000       -0.096293         1    ;  uncertainty k = 0.727019
         2         3        10        11     9      180.000000        4.752601         2    ;  uncertainty k = 0.169665
         2         3        10        11     9        0.000000        0.400834         3    ;  uncertainty k = 0.169846
         2         3        10        11     9      180.000000        0.119948         4    ;  uncertainty k = 0.051488
         3         2         1         6     9        0.000000       -3.160621         1    ;  uncertainty k = 3.482064
         3         2         1         6     9      180.000000       31.132789         2    ;  uncertainty k = 0.556007
         3         2         1         6     9        0.000000       -0.039465         3    ;  uncertainty k = 1.270015
         3         2         1         6     9      180.000000       -0.537096         4    ;  uncertainty k = 1.483652
         3         4         5         6     9        0.000000        0.268117         1    ;  uncertainty k = 0.967798
         3         4         5         6     9      180.000000       13.748241         2    ;  uncertainty k = 0.561349
         3         4         5         6     9        0.000000        0.436670         3    ;  uncertainty k = 0.880620
         3         4         5         6     9      180.000000        1.362311         4    ;  uncertainty k = 0.482470
         3         4        16        15     9        0.000000       -0.251443         1    ;  uncertainty k = 0.903249
         3         4        16        15     9      180.000000        3.517052         2    ;  uncertainty k = 0.411238
         3         4        16        15     9        0.000000        0.518422         3    ;  uncertainty k = 0.172626
         3         4        16        15     9      180.000000        0.005477         4    ;  uncertainty k = 0.086602
         3         4        16        17     9        0.000000       -0.251443         1    ;  uncertainty k = 0.903249
         3         4        16        17     9      180.000000        3.517052         2    ;  uncertainty k = 0.411238
         3         4        16        17     9        0.000000        0.518422         3    ;  uncertainty k = 0.172626
         3         4        16        17     9      180.000000        0.005477         4    ;  uncertainty k = 0.086602
         3        10         9         8     9        0.000000        0.185133         1    ;  uncertainty k = 0.231771
         3        10         9         8     9      180.000000        8.864156         2    ;  uncertainty k = 0.425878
         3        10         9         8     9        0.000000        1.207246         3    ;  uncertainty k = 0.211609
         3        10         9         8     9      180.000000        1.815303         4    ;  uncertainty k = 0.230875
         3        10         9        20     9        0.000000       -0.111349         1    ;  uncertainty k = 0.251518
         3        10         9        20     9      180.000000        7.391157         2    ;  uncertainty k = 0.353824
         3        10         9        20     9        0.000000        0.776230         3    ;  uncertainty k = 0.180152
         3        10         9        20     9      180.000000        1.248544         4    ;  uncertainty k = 0.137618
         3        10        11        12     9        0.000000        0.185133         1    ;  uncertainty k = 0.231771
         3        10        11        12     9      180.000000        8.864156         2    ;  uncertainty k = 0.425878
         3        10        11        12     9        0.000000        1.207246         3    ;  uncertainty k = 0.211609
         3        10        11        12     9      180.000000        1.815303         4    ;  uncertainty k = 0.230875
         3        10        11        21     9        0.000000       -0.111349         1    ;  uncertainty k = 0.251518
         3        10        11        21     9      180.000000        7.391157         2    ;  uncertainty k = 0.353824
         3        10        11        21     9        0.000000        0.776230         3    ;  uncertainty k = 0.180152
         3        10        11        21     9      180.000000        1.248544         4    ;  uncertainty k = 0.137618
         4         3        10         9     9        0.000000        0.642463         1    ;  uncertainty k = 0.827801
         4         3        10         9     9      180.000000        2.541971         2    ;  uncertainty k = 0.413587
         4         3        10         9     9        0.000000        0.665088         3    ;  uncertainty k = 0.214719
         4         3        10         9     9      180.000000        0.031955         4    ;  uncertainty k = 0.097354
         4         3        10        11     9        0.000000        0.642463         1    ;  uncertainty k = 0.827801
         4         3        10        11     9      180.000000        2.541971         2    ;  uncertainty k = 0.413587
         4         3        10        11     9        0.000000        0.665088         3    ;  uncertainty k = 0.214719
         4         3        10        11     9      180.000000        0.031955         4    ;  uncertainty k = 0.097354
         4         5         6        19     9        0.000000        0.323492         1    ;  uncertainty k = 0.573575
         4         5         6        19     9      180.000000        8.427377         2    ;  uncertainty k = 0.712989
         4         5         6        19     9        0.000000        2.103340         3    ;  uncertainty k = 0.347201
         4         5         6        19     9      180.000000        0.966007         4    ;  uncertainty k = 0.424542
         4        16        15        14     9        0.000000        0.244623         1    ;  uncertainty k = 0.364587
         4        16        15        14     9      180.000000        8.777576         2    ;  uncertainty k = 0.506605
         4        16        15        14     9        0.000000        1.204611         3    ;  uncertainty k = 0.317859
         4        16        15        14     9      180.000000        1.930500         4    ;  uncertainty k = 0.212294
         4        16        15        24     9        0.000000       -0.281068         1    ;  uncertainty k = 0.166996
         4        16        15        24     9      180.000000        7.429076         2    ;  uncertainty k = 0.523888
         4        16        15        24     9        0.000000        0.740308         3    ;  uncertainty k = 0.138975
         4        16        15        24     9      180.000000        1.219405         4    ;  uncertainty k = 0.164843
         4        16        17        18     9        0.000000        0.244623         1    ;  uncertainty k = 0.364587
         4        16        17        18     9      180.000000        8.777576         2    ;  uncertainty k = 0.506605
         4        16        17        18     9        0.000000        1.204611         3    ;  uncertainty k = 0.317859
         4        16        17        18     9      180.000000        1.930500         4    ;  uncertainty k = 0.212294
         4        16        17        25     9        0.000000       -0.281068         1    ;  uncertainty k = 0.166996
         4        16        17        25     9      180.000000        7.429076         2    ;  uncertainty k = 0.523888
         4        16        17        25     9        0.000000        0.740308         3    ;  uncertainty k = 0.138975
         4        16        17        25     9      180.000000        1.219405         4    ;  uncertainty k = 0.164843
         5         4         3        10     9        0.000000       -0.044748         1    ;  uncertainty k = 0.680801
         5         4         3        10     9      180.000000        3.706998         2    ;  uncertainty k = 1.008314
         5         4         3        10     9        0.000000        0.173035         3    ;  uncertainty k = 0.529630
         5         4         3        10     9      180.000000        0.704821         4    ;  uncertainty k = 0.635351
         5         4        16        15     9        0.000000        0.577089         1    ;  uncertainty k = 0.771269
         5         4        16        15     9      180.000000        5.298508         2    ;  uncertainty k = 0.334426
         5         4        16        15     9        0.000000        0.480066         3    ;  uncertainty k = 0.134057
         5         4        16        15     9      180.000000        0.149158         4    ;  uncertainty k = 0.112879
         5         4        16        17     9        0.000000        0.577089         1    ;  uncertainty k = 0.771269
         5         4        16        17     9      180.000000        5.298508         2    ;  uncertainty k = 0.334426
         5         4        16        17     9        0.000000        0.480066         3    ;  uncertainty k = 0.134057
         5         4        16        17     9      180.000000        0.149158         4    ;  uncertainty k = 0.112879
         5         6        19        27     9        0.000000       20.010442         1    ;  uncertainty k = 0.259650
         5         6        19        27     9      180.000000       10.182111         2    ;  uncertainty k = 0.370307
         5         6        19        27     9        0.000000        0.832804         3    ;  uncertainty k = 0.221692
         5         6        19        27     9      180.000000       -0.316472         4    ;  uncertainty k = 0.214044
         5         6        19        28     9        0.000000       20.010442         1    ;  uncertainty k = 0.259650
         5         6        19        28     9      180.000000       10.182111         2    ;  uncertainty k = 0.370307
         5         6        19        28     9        0.000000        0.832804         3    ;  uncertainty k = 0.221692
         5         6        19        28     9      180.000000       -0.316472         4    ;  uncertainty k = 0.214044
         6         5         4        16     9        0.000000        0.671482         1    ;  uncertainty k = 0.595294
         6         5         4        16     9      180.000000       15.998898         2    ;  uncertainty k = 0.727265
         6         5         4        16     9        0.000000        2.088123         3    ;  uncertainty k = 0.689736
         6         5         4        16     9      180.000000        1.669828         4    ;  uncertainty k = 0.442946
         7         8         9        10     9        0.000000       -0.145981         1    ;  uncertainty k = 0.162946
         7         8         9        10     9      180.000000        9.495294         2    ;  uncertainty k = 0.551649
         7         8         9        10     9        0.000000       -0.002602         3    ;  uncertainty k = 0.422680
         7         8         9        10     9      180.000000        1.170895         4    ;  uncertainty k = 0.385188
         7         8         9        20     9        0.000000       -0.089129         1    ;  uncertainty k = 0.318458
         7         8         9        20     9      180.000000        6.218526         2    ;  uncertainty k = 0.619784
         7         8         9        20     9        0.000000        1.392135         3    ;  uncertainty k = 0.300169
         7         8         9        20     9      180.000000        1.632778         4    ;  uncertainty k = 0.127300
         7        12        11        10     9        0.000000       -0.145981         1    ;  uncertainty k = 0.162946
         7        12        11        10     9      180.000000        9.495294         2    ;  uncertainty k = 0.551649
         7        12        11        10     9        0.000000       -0.002602         3    ;  uncertainty k = 0.422680
         7        12        11        10     9      180.000000        1.170895         4    ;  uncertainty k = 0.385188
         7        12        11        21     9        0.000000       -0.089129         1    ;  uncertainty k = 0.318458
         7        12        11        21     9      180.000000        6.218526         2    ;  uncertainty k = 0.619784
         7        12        11        21     9        0.000000        1.392135         3    ;  uncertainty k = 0.300169
         7        12        11        21     9      180.000000        1.632778         4    ;  uncertainty k = 0.127300
         8         7        12        11     9        0.000000       -0.033753         1    ;  uncertainty k = 0.221654
         8         7        12        11     9      180.000000        9.847708         2    ;  uncertainty k = 0.347530
         8         7        12        11     9        0.000000       -0.224031         3    ;  uncertainty k = 0.567160
         8         7        12        11     9      180.000000        1.138820         4    ;  uncertainty k = 0.309000
         8         7        12        30     9        0.000000       -0.018068         1    ;  uncertainty k = 0.228810
         8         7        12        30     9      180.000000        9.729829         2    ;  uncertainty k = 0.648756
         8         7        12        30     9        0.000000        1.448134         3    ;  uncertainty k = 0.437970
         8         7        12        30     9      180.000000        1.666153         4    ;  uncertainty k = 0.188384
         8         9        10        11     9        0.000000       -0.134601         1    ;  uncertainty k = 0.148960
         8         9        10        11     9      180.000000       11.536698         2    ;  uncertainty k = 0.271851
         8         9        10        11     9        0.000000       -0.580075         3    ;  uncertainty k = 0.414398
         8         9        10        11     9      180.000000        0.979735         4    ;  uncertainty k = 0.262288
         9         8         7        12     9        0.000000       -0.033753         1    ;  uncertainty k = 0.221654
         9         8         7        12     9      180.000000        9.847708         2    ;  uncertainty k = 0.347530
         9         8         7        12     9        0.000000       -0.224031         3    ;  uncertainty k = 0.567160
         9         8         7        12     9      180.000000        1.138820         4    ;  uncertainty k = 0.309000
         9         8         7        31     9        0.000000        0.032394         1    ;  uncertainty k = 0.155402
         9         8         7        31     9      180.000000        6.159328         2    ;  uncertainty k = 0.516714
         9         8         7        31     9        0.000000        1.420311         3    ;  uncertainty k = 0.332706
         9         8         7        31     9      180.000000        1.532943         4    ;  uncertainty k = 0.160503
         9        10        11        12     9        0.000000       -0.134601         1    ;  uncertainty k = 0.148960
         9        10        11        12     9      180.000000       11.536698         2    ;  uncertainty k = 0.271851
         9        10        11        12     9        0.000000       -0.580075         3    ;  uncertainty k = 0.414398
         9        10        11        12     9      180.000000        0.979735         4    ;  uncertainty k = 0.262288
         9        10        11        21     9        0.000000        0.206095         1    ;  uncertainty k = 0.135568
         9        10        11        21     9      180.000000        7.149470         2    ;  uncertainty k = 0.580117
         9        10        11        21     9        0.000000        1.384253         3    ;  uncertainty k = 0.172724
         9        10        11        21     9      180.000000        1.648148         4    ;  uncertainty k = 0.271775
        10         3         4        16     9        0.000000       -0.359323         1    ;  uncertainty k = 1.000690
        10         3         4        16     9      180.000000        3.509557         2    ;  uncertainty k = 0.594936
        10         3         4        16     9        0.000000        0.789018         3    ;  uncertainty k = 0.412143
        10         3         4        16     9      180.000000        0.397636         4    ;  uncertainty k = 0.252679
        10         9         8        29     9        0.000000        0.041965         1    ;  uncertainty k = 0.226698
        10         9         8        29     9      180.000000        9.201328         2    ;  uncertainty k = 0.465109
        10         9         8        29     9        0.000000        1.448815         3    ;  uncertainty k = 0.286256
        10         9         8        29     9      180.000000        1.731423         4    ;  uncertainty k = 0.049640
        10        11        12        30     9        0.000000        0.041965         1    ;  uncertainty k = 0.226698
        10        11        12        30     9      180.000000        9.201328         2    ;  uncertainty k = 0.465109
        10        11        12        30     9        0.000000        1.448815         3    ;  uncertainty k = 0.286256
        10        11        12        30     9      180.000000        1.731423         4    ;  uncertainty k = 0.049640
        11        10         9        20     9        0.000000        0.206095         1    ;  uncertainty k = 0.135568
        11        10         9        20     9      180.000000        7.149470         2    ;  uncertainty k = 0.580117
        11        10         9        20     9        0.000000        1.384253         3    ;  uncertainty k = 0.172724
        11        10         9        20     9      180.000000        1.648148         4    ;  uncertainty k = 0.271775
        11        12         7        31     9        0.000000        0.032394         1    ;  uncertainty k = 0.155402
        11        12         7        31     9      180.000000        6.159328         2    ;  uncertainty k = 0.516714
        11        12         7        31     9        0.000000        1.420311         3    ;  uncertainty k = 0.332706
        11        12         7        31     9      180.000000        1.532943         4    ;  uncertainty k = 0.160503
        12         7         8        29     9        0.000000       -0.018068         1    ;  uncertainty k = 0.228810
        12         7         8        29     9      180.000000        9.729829         2    ;  uncertainty k = 0.648756
        12         7         8        29     9        0.000000        1.448134         3    ;  uncertainty k = 0.437970
        12         7         8        29     9      180.000000        1.666153         4    ;  uncertainty k = 0.188384
        13        14        15        16     9        0.000000       -0.085156         1    ;  uncertainty k = 0.101326
        13        14        15        16     9      180.000000       13.800477         2    ;  uncertainty k = 0.268312
        13        14        15        16     9        0.000000       -0.771380         3    ;  uncertainty k = 0.430279
        13        14        15        16     9      180.000000        0.763186         4    ;  uncertainty k = 0.221620
        13        14        15        24     9        0.000000        0.040792         1    ;  uncertainty k = 0.098340
        13        14        15        24     9      180.000000        7.829050         2    ;  uncertainty k = 0.220837
        13        14        15        24     9        0.000000        1.377807         3    ;  uncertainty k = 0.305455
        13        14        15        24     9      180.000000        1.862040         4    ;  uncertainty k = 0.175515
        13        18        17        16     9        0.000000       -0.085156         1    ;  uncertainty k = 0.101326
        13        18        17        16     9      180.000000       13.800477         2    ;  uncertainty k = 0.268312
        13        18        17        16     9        0.000000       -0.771380         3    ;  uncertainty k = 0.430279
        13        18        17        16     9      180.000000        0.763186         4    ;  uncertainty k = 0.221620
        13        18        17        25     9        0.000000        0.040792         1    ;  uncertainty k = 0.098340
        13        18        17        25     9      180.000000        7.829050         2    ;  uncertainty k = 0.220837
        13        18        17        25     9        0.000000        1.377807         3    ;  uncertainty k = 0.305455
        13        18        17        25     9      180.000000        1.862040         4    ;  uncertainty k = 0.175515
        14        13        18        17     9        0.000000       -0.039609         1    ;  uncertainty k = 0.058508
        14        13        18        17     9      180.000000       14.728850         2    ;  uncertainty k = 0.270498
        14        13        18        17     9        0.000000       -1.116008         3    ;  uncertainty k = 0.461534
        14        13        18        17     9      180.000000        0.570638         4    ;  uncertainty k = 0.262850
        14        13        18        26     9        0.000000        0.060280         1    ;  uncertainty k = 0.046484
        14        13        18        26     9      180.000000        7.580498         2    ;  uncertainty k = 0.301291
        14        13        18        26     9        0.000000        1.432917         3    ;  uncertainty k = 0.310397
        14        13        18        26     9      180.000000        1.808653         4    ;  uncertainty k = 0.112983
        14        15        16        17     9        0.000000       -0.228846         1    ;  uncertainty k = 0.099621
        14        15        16        17     9      180.000000       11.519585         2    ;  uncertainty k = 0.245642
        14        15        16        17     9        0.000000       -0.708965         3    ;  uncertainty k = 0.222667
        14        15        16        17     9      180.000000        0.889608         4    ;  uncertainty k = 0.283730
        15        14        13        18     9        0.000000       -0.039609         1    ;  uncertainty k = 0.058508
        15        14        13        18     9      180.000000       14.728850         2    ;  uncertainty k = 0.270498
        15        14        13        18     9        0.000000       -1.116008         3    ;  uncertainty k = 0.461534
        15        14        13        18     9      180.000000        0.570638         4    ;  uncertainty k = 0.262850
        15        14        13        22     9        0.000000        0.018696         1    ;  uncertainty k = 0.067612
        15        14        13        22     9      180.000000        7.446532         2    ;  uncertainty k = 0.246906
        15        14        13        22     9        0.000000        1.463058         3    ;  uncertainty k = 0.239087
        15        14        13        22     9      180.000000        1.786839         4    ;  uncertainty k = 0.161485
        15        16        17        18     9        0.000000       -0.228846         1    ;  uncertainty k = 0.099621
        15        16        17        18     9      180.000000       11.519585         2    ;  uncertainty k = 0.245642
        15        16        17        18     9        0.000000       -0.708965         3    ;  uncertainty k = 0.222667
        15        16        17        18     9      180.000000        0.889608         4    ;  uncertainty k = 0.283730
        15        16        17        25     9        0.000000        0.168842         1    ;  uncertainty k = 0.107557
        15        16        17        25     9      180.000000        7.056492         2    ;  uncertainty k = 0.442030
        15        16        17        25     9        0.000000        1.360330         3    ;  uncertainty k = 0.161756
        15        16        17        25     9      180.000000        1.681350         4    ;  uncertainty k = 0.250468
        16        15        14        23     9        0.000000        0.000276         1    ;  uncertainty k = 0.169363
        16        15        14        23     9      180.000000        7.621252         2    ;  uncertainty k = 0.320005
        16        15        14        23     9        0.000000        1.446360         3    ;  uncertainty k = 0.172877
        16        15        14        23     9      180.000000        1.823296         4    ;  uncertainty k = 0.150540
        16        17        18        26     9        0.000000        0.000276         1    ;  uncertainty k = 0.169363
        16        17        18        26     9      180.000000        7.621252         2    ;  uncertainty k = 0.320005
        16        17        18        26     9        0.000000        1.446360         3    ;  uncertainty k = 0.172877
        16        17        18        26     9      180.000000        1.823296         4    ;  uncertainty k = 0.150540
        17        16        15        24     9        0.000000        0.168842         1    ;  uncertainty k = 0.107557
        17        16        15        24     9      180.000000        7.056492         2    ;  uncertainty k = 0.442030
        17        16        15        24     9        0.000000        1.360330         3    ;  uncertainty k = 0.161756
        17        16        15        24     9      180.000000        1.681350         4    ;  uncertainty k = 0.250468
        17        18        13        22     9        0.000000        0.018696         1    ;  uncertainty k = 0.067612
        17        18        13        22     9      180.000000        7.446532         2    ;  uncertainty k = 0.246906
        17        18        13        22     9        0.000000        1.463058         3    ;  uncertainty k = 0.239087
        17        18        13        22     9      180.000000        1.786839         4    ;  uncertainty k = 0.161485
        18        13        14        23     9        0.000000        0.060280         1    ;  uncertainty k = 0.046484
        18        13        14        23     9      180.000000        7.580498         2    ;  uncertainty k = 0.301291
        18        13        14        23     9        0.000000        1.432917         3    ;  uncertainty k = 0.310397
        18        13        14        23     9      180.000000        1.808653         4    ;  uncertainty k = 0.112983
        20         9         8        29     9        0.000000       -0.262266         1    ;  uncertainty k = 0.423725
        20         9         8        29     9      180.000000        7.528432         2    ;  uncertainty k = 0.343795
        20         9         8        29     9        0.000000        0.582330         3    ;  uncertainty k = 0.285003
        20         9         8        29     9      180.000000        1.037004         4    ;  uncertainty k = 0.132155
        21        11        12        30     9        0.000000       -0.262266         1    ;  uncertainty k = 0.423725
        21        11        12        30     9      180.000000        7.528432         2    ;  uncertainty k = 0.343795
        21        11        12        30     9        0.000000        0.582330         3    ;  uncertainty k = 0.285003
        21        11        12        30     9      180.000000        1.037004         4    ;  uncertainty k = 0.132155
        22        13        14        23     9        0.000000       -0.086959         1    ;  uncertainty k = 0.086880
        22        13        14        23     9      180.000000        7.713489         2    ;  uncertainty k = 0.410363
        22        13        14        23     9        0.000000       -0.420918         3    ;  uncertainty k = 0.300483
        22        13        14        23     9      180.000000        0.039571         4    ;  uncertainty k = 0.147961
        22        13        18        26     9        0.000000       -0.086959         1    ;  uncertainty k = 0.086880
        22        13        18        26     9      180.000000        7.713489         2    ;  uncertainty k = 0.410363
        22        13        18        26     9        0.000000       -0.420918         3    ;  uncertainty k = 0.300483
        22        13        18        26     9      180.000000        0.039571         4    ;  uncertainty k = 0.147961
        23        14        15        24     9        0.000000       -0.159865         1    ;  uncertainty k = 0.133584
        23        14        15        24     9      180.000000        7.859188         2    ;  uncertainty k = 0.325421
        23        14        15        24     9        0.000000       -0.450050         3    ;  uncertainty k = 0.281622
        23        14        15        24     9      180.000000        0.154829         4    ;  uncertainty k = 0.122641
        25        17        18        26     9        0.000000       -0.159865         1    ;  uncertainty k = 0.133584
        25        17        18        26     9      180.000000        7.859188         2    ;  uncertainty k = 0.325421
        25        17        18        26     9        0.000000       -0.450050         3    ;  uncertainty k = 0.281622
        25        17        18        26     9      180.000000        0.154829         4    ;  uncertainty k = 0.122641
        29         8         7        31     9        0.000000       -0.176497         1    ;  uncertainty k = 0.224228
        29         8         7        31     9      180.000000        7.374752         2    ;  uncertainty k = 0.314456
        29         8         7        31     9        0.000000        0.585395         3    ;  uncertainty k = 0.380666
        29         8         7        31     9      180.000000        0.976202         4    ;  uncertainty k = 0.122428
        30        12         7        31     9        0.000000       -0.176497         1    ;  uncertainty k = 0.224228
        30        12         7        31     9      180.000000        7.374752         2    ;  uncertainty k = 0.314456
        30        12         7        31     9        0.000000        0.585395         3    ;  uncertainty k = 0.380666
        30        12         7        31     9      180.000000        0.976202         4    ;  uncertainty k = 0.122428

[ dihedrals ] ; impropers
;       ai        aj        ak        al funct           phase               k        pn
         3         2         4        10     4      180.000000       22.069783         2    ;  uncertainty k = 0.150504
         3         4        10         2     4      180.000000       22.069783         2    ;  uncertainty k = 0.150504
         3        10         2         4     4      180.000000       22.069783         2    ;  uncertainty k = 0.150504
         4         3         5        16     4      180.000000       29.627660         2    ;  uncertainty k = 0.039431
         4         5        16         3     4      180.000000       29.627660         2    ;  uncertainty k = 0.039431
         4        16         3         5     4      180.000000       29.627660         2    ;  uncertainty k = 0.039431
         6         1         5        19     4      180.000000       43.323642         2    ;  uncertainty k = 0.063442
         6         5        19         1     4      180.000000       43.323642         2    ;  uncertainty k = 0.063442
         6        19         1         5     4      180.000000       43.323642         2    ;  uncertainty k = 0.063442
         7         8        12        31     4      180.000000        3.370915         2    ;  uncertainty k = 0.250397
         7        12        31         8     4      180.000000        3.370915         2    ;  uncertainty k = 0.250397
         7        31         8        12     4      180.000000        3.370915         2    ;  uncertainty k = 0.250397
         8         7         9        29     4      180.000000       13.851728         2    ;  uncertainty k = 0.054106
         8         9        29         7     4      180.000000       13.851728         2    ;  uncertainty k = 0.054106
         8        29         7         9     4      180.000000       13.851728         2    ;  uncertainty k = 0.054106
         9         8        10        20     4      180.000000        3.962583         2    ;  uncertainty k = 0.180531
         9        10        20         8     4      180.000000        3.962583         2    ;  uncertainty k = 0.180531
         9        20         8        10     4      180.000000        3.962583         2    ;  uncertainty k = 0.180531
        10         3         9        11     4      180.000000       11.886607         2    ;  uncertainty k = 0.067373
        10         9        11         3     4      180.000000       11.886607         2    ;  uncertainty k = 0.067373
        10        11         3         9     4      180.000000       11.886607         2    ;  uncertainty k = 0.067373
        11        10        12        21     4      180.000000        3.962583         2    ;  uncertainty k = 0.180531
        11        12        21        10     4      180.000000        3.962583         2    ;  uncertainty k = 0.180531
        11        21        10        12     4      180.000000        3.962583         2    ;  uncertainty k = 0.180531
        12         7        11        30     4      180.000000       13.851728         2    ;  uncertainty k = 0.054106
        12        11        30         7     4      180.000000       13.851728         2    ;  uncertainty k = 0.054106
        12        30         7        11     4      180.000000       13.851728         2    ;  uncertainty k = 0.054106
        13        14        18        22     4      180.000000        4.673371         2    ;  uncertainty k = 0.190293
        13        18        22        14     4      180.000000        4.673371         2    ;  uncertainty k = 0.190293
        13        22        14        18     4      180.000000        4.673371         2    ;  uncertainty k = 0.190293
        14        13        15        23     4      180.000000        4.310919         2    ;  uncertainty k = 0.072052
        14        15        23        13     4      180.000000        4.310919         2    ;  uncertainty k = 0.072052
        14        23        13        15     4      180.000000        4.310919         2    ;  uncertainty k = 0.072052
        15        14        16        24     4      180.000000        4.275767         2    ;  uncertainty k = 0.092511
        15        16        24        14     4      180.000000        4.275767         2    ;  uncertainty k = 0.092511
        15        24        14        16     4      180.000000        4.275767         2    ;  uncertainty k = 0.092511
        16         4        15        17     4      180.000000       10.064639         2    ;  uncertainty k = 0.105291
        16        15        17         4     4      180.000000       10.064639         2    ;  uncertainty k = 0.105291
        16        17         4        15     4      180.000000       10.064639         2    ;  uncertainty k = 0.105291
        17        16        18        25     4      180.000000        4.275767         2    ;  uncertainty k = 0.092511
        17        18        25        16     4      180.000000        4.275767         2    ;  uncertainty k = 0.092511
        17        25        16        18     4      180.000000        4.275767         2    ;  uncertainty k = 0.092511
        18        13        17        26     4      180.000000        4.310919         2    ;  uncertainty k = 0.072052
        18        17        26        13     4      180.000000        4.310919         2    ;  uncertainty k = 0.072052
        18        26        13        17     4      180.000000        4.310919         2    ;  uncertainty k = 0.072052
        19         6        27        28     4      180.000000        0.390383         2    ;  uncertainty k = 0.522838
        19        27        28         6     4      180.000000        0.390383         2    ;  uncertainty k = 0.522838
        19        28         6        27     4      180.000000        0.390383         2    ;  uncertainty k = 0.522838

[ pairs ]
;       ai        aj funct
         1         4     1
         1        10     1
         1        27     1
         1        28     1
         2         5     1
         2         9     1
         2        11     1
         2        16     1
         2        19     1
         3         6     1
         3         8     1
         3        12     1
         3        15     1
         3        17     1
         3        20     1
         3        21     1
         4         9     1
         4        11     1
         4        14     1
         4        18     1
         4        19     1
         4        24     1
         4        25     1
         5        10     1
         5        15     1
         5        17     1
         5        27     1
         5        28     1
         6        16     1
         7        10     1
         7        20     1
         7        21     1
         8        11     1
         8        30     1
         9        12     1
         9        21     1
         9        31     1
        10        16     1
        10        29     1
        10        30     1
        11        20     1
        11        31     1
        12        29     1
        13        16     1
        13        24     1
        13        25     1
        14        17     1
        14        26     1
        15        18     1
        15        22     1
        15        25     1
        16        23     1
        16        26     1
        17        22     1
        17        24     1
        18        23     1
        20        29     1
        21        30     1
        22        23     1
        22        26     1
        23        24     1
        25        26     1
        29        31     1
        30        31     1
