; ITP file created by ByteFF-joint-25, 2025-07-14 11:28:10.648570

[ atomtypes ]
;name           bonded.type        at.num        mass        charge   ptype           sigma         epsilon
 n0bf                                   7      0.0000       0.00000       A     3.38457e-01     3.93065e-01    ;  uncertainty sigma = 0.000033, epsilon = 0.002906
 n1bf                                   7      0.0000       0.00000       A     3.38476e-01     3.93713e-01    ;  uncertainty sigma = 0.000022, epsilon = 0.001198
 c2bf                                   6      0.0000       0.00000       A     3.31535e-01     4.12788e-01    ;  uncertainty sigma = 0.000020, epsilon = 0.001375
 c3bf                                   6      0.0000       0.00000       A     3.31532e-01     4.12868e-01    ;  uncertainty sigma = 0.000013, epsilon = 0.000681
 n4bf                                   7      0.0000       0.00000       A     3.38467e-01     3.94052e-01    ;  uncertainty sigma = 0.000030, epsilon = 0.001987
 c5bf                                   6      0.0000       0.00000       A     3.31538e-01     4.13311e-01    ;  uncertainty sigma = 0.000020, epsilon = 0.001585
 c6bf                                   6      0.0000       0.00000       A     3.31530e-01     4.13338e-01    ;  uncertainty sigma = 0.000013, epsilon = 0.000356
 c7bf                                   6      0.0000       0.00000       A     3.31531e-01     4.13562e-01    ;  uncertainty sigma = 0.000007, epsilon = 0.000479
 c8bf                                   6      0.0000       0.00000       A     3.31526e-01     4.13762e-01    ;  uncertainty sigma = 0.000007, epsilon = 0.000886
 c9bf                                   6      0.0000       0.00000       A     3.31555e-01     4.13243e-01    ;  uncertainty sigma = 0.000017, epsilon = 0.000958
 c10bf                                  6      0.0000       0.00000       A     3.31532e-01     4.13729e-01    ;  uncertainty sigma = 0.000006, epsilon = 0.000890
 c11bf                                  6      0.0000       0.00000       A     3.31541e-01     4.13429e-01    ;  uncertainty sigma = 0.000009, epsilon = 0.000508
 c12bf                                  6      0.0000       0.00000       A     3.31518e-01     4.13340e-01    ;  uncertainty sigma = 0.000003, epsilon = 0.000580
 c13bf                                  6      0.0000       0.00000       A     3.31519e-01     4.13380e-01    ;  uncertainty sigma = 0.000002, epsilon = 0.000627
 c14bf                                  6      0.0000       0.00000       A     3.31517e-01     4.13568e-01    ;  uncertainty sigma = 0.000002, epsilon = 0.000944
 c15bf                                  6      0.0000       0.00000       A     3.31548e-01     4.13550e-01    ;  uncertainty sigma = 0.000019, epsilon = 0.000920
 c16bf                                  6      0.0000       0.00000       A     3.31517e-01     4.13568e-01    ;  uncertainty sigma = 0.000002, epsilon = 0.000944
 c17bf                                  6      0.0000       0.00000       A     3.31519e-01     4.13380e-01    ;  uncertainty sigma = 0.000002, epsilon = 0.000627
 n18bf                                  7      0.0000       0.00000       A     3.36801e-01     4.68954e-01    ;  uncertainty sigma = 0.000066, epsilon = 0.001925
 cl19bf                                17      0.0000       0.00000       A     3.46628e-01     1.10388e+00    ;  uncertainty sigma = 0.000013, epsilon = 0.001149
 o20bf                                  8      0.0000       0.00000       A     3.24358e-01     3.89124e-01    ;  uncertainty sigma = 0.000022, epsilon = 0.001624
 h21bf                                  1      0.0000       0.00000       A     2.62554e-01     6.68996e-02    ;  uncertainty sigma = 0.000008, epsilon = 0.000321
 h22bf                                  1      0.0000       0.00000       A     2.62565e-01     6.70567e-02    ;  uncertainty sigma = 0.000012, epsilon = 0.000585
 h23bf                                  1      0.0000       0.00000       A     2.62567e-01     6.71888e-02    ;  uncertainty sigma = 0.000016, epsilon = 0.000630
 h24bf                                  1      0.0000       0.00000       A     2.62552e-01     6.70645e-02    ;  uncertainty sigma = 0.000011, epsilon = 0.000453
 h25bf                                  1      0.0000       0.00000       A     2.62559e-01     6.70250e-02    ;  uncertainty sigma = 0.000010, epsilon = 0.000440
 h26bf                                  1      0.0000       0.00000       A     2.62560e-01     6.70283e-02    ;  uncertainty sigma = 0.000012, epsilon = 0.000523
 h27bf                                  1      0.0000       0.00000       A     2.62560e-01     6.70283e-02    ;  uncertainty sigma = 0.000012, epsilon = 0.000523
 h28bf                                  1      0.0000       0.00000       A     2.62559e-01     6.70250e-02    ;  uncertainty sigma = 0.000010, epsilon = 0.000440
 h29bf                                  1      0.0000       0.00000       A     1.10728e-01     4.07631e-02    ;  uncertainty sigma = 0.000034, epsilon = 0.001087
 h30bf                                  1      0.0000       0.00000       A     1.10728e-01     4.07631e-02    ;  uncertainty sigma = 0.000034, epsilon = 0.001087
 h31bf                                  1      0.0000       0.00000       A     5.37833e-02     1.95276e-02    ;  uncertainty sigma = 0.000082, epsilon = 0.001028

[ moleculetype ]
;name             nrexcl
 MOL                   3

[ atoms ]
;       nr            type      resi   res      atom      cgnr      charge          mass ; qtot
         1            n0bf         1   UNL        n0         1    -0.40685       14.0070 ; qtot   -0.407
         2            n1bf         1   UNL        n1         2    -0.25305       14.0070 ; qtot   -0.660
         3            c2bf         1   UNL        c2         3     0.26219       12.0110 ; qtot   -0.398
         4            c3bf         1   UNL        c3         4     0.46935       12.0110 ; qtot    0.072
         5            n4bf         1   UNL        n4         5    -0.73822       14.0070 ; qtot   -0.667
         6            c5bf         1   UNL        c5         6     0.82167       12.0110 ; qtot    0.155
         7            c6bf         1   UNL        c6         7     0.15986       12.0110 ; qtot    0.315
         8            c7bf         1   UNL        c7         8    -0.18173       12.0110 ; qtot    0.133
         9            c8bf         1   UNL        c8         9    -0.05868       12.0110 ; qtot    0.075
        10            c9bf         1   UNL        c9        10    -0.16895       12.0110 ; qtot   -0.094
        11           c10bf         1   UNL       c10        11    -0.04757       12.0110 ; qtot   -0.142
        12           c11bf         1   UNL       c11        12    -0.04912       12.0110 ; qtot   -0.191
        13           c12bf         1   UNL       c12        13    -0.11402       12.0110 ; qtot   -0.305
        14           c13bf         1   UNL       c13        14    -0.13628       12.0110 ; qtot   -0.441
        15           c14bf         1   UNL       c14        15    -0.09093       12.0110 ; qtot   -0.532
        16           c15bf         1   UNL       c15        16    -0.17251       12.0110 ; qtot   -0.705
        17           c16bf         1   UNL       c16        17    -0.09093       12.0110 ; qtot   -0.796
        18           c17bf         1   UNL       c17        18    -0.13628       12.0110 ; qtot   -0.932
        19           n18bf         1   UNL       n18        19    -0.92625       14.0070 ; qtot   -1.858
        20          cl19bf         1   UNL      cl19        20    -0.11060       35.4530 ; qtot   -1.969
        21           o20bf         1   UNL       o20        21    -0.48378       15.9990 ; qtot   -2.453
        22           h21bf         1   UNL       h21        22     0.14923        1.0080 ; qtot   -2.303
        23           h22bf         1   UNL       h22        23     0.15291        1.0080 ; qtot   -2.151
        24           h23bf         1   UNL       h23        24     0.16406        1.0080 ; qtot   -1.986
        25           h24bf         1   UNL       h24        25     0.13373        1.0080 ; qtot   -1.853
        26           h25bf         1   UNL       h25        26     0.13437        1.0080 ; qtot   -1.718
        27           h26bf         1   UNL       h26        27     0.14424        1.0080 ; qtot   -1.574
        28           h27bf         1   UNL       h27        28     0.14424        1.0080 ; qtot   -1.430
        29           h28bf         1   UNL       h28        29     0.13437        1.0080 ; qtot   -1.296
        30           h29bf         1   UNL       h29        30     0.43092        1.0080 ; qtot   -0.865
        31           h30bf         1   UNL       h30        31     0.43092        1.0080 ; qtot   -0.434
        32           h31bf         1   UNL       h31        32     0.43369        1.0080 ; qtot    0.000

[ bonds ]
;       ai        aj funct               r               k
         1         2     1        0.130778   361370.603955    ;  uncertainty r = 0.000176, k = 32.459970
         1         6     1        0.135400   366916.906592    ;  uncertainty r = 0.000241, k = 17.361955
         2         3     1        0.133392   331046.461279    ;  uncertainty r = 0.000387, k = 17.171859
         3         4     1        0.140518   326949.951416    ;  uncertainty r = 0.000176, k = 19.675333
         3        10     1        0.147823   272225.100732    ;  uncertainty r = 0.000090, k = 10.589668
         4         5     1        0.133035   420127.381152    ;  uncertainty r = 0.000119, k = 20.872352
         4        16     1        0.147775   265849.735840    ;  uncertainty r = 0.000153, k = 2.016089
         5         6     1        0.136102   532915.906348    ;  uncertainty r = 0.000140, k = 13.557526
         6        19     1        0.140058   625071.519727    ;  uncertainty r = 0.000422, k = 22.781256
         7         8     1        0.139742   372476.514062    ;  uncertainty r = 0.000074, k = 2.903285
         7        12     1        0.140110   351626.638965    ;  uncertainty r = 0.000072, k = 4.297780
         7        21     1        0.136993   342740.669775    ;  uncertainty r = 0.000037, k = 6.579902
         8         9     1        0.138781   367864.231201    ;  uncertainty r = 0.000013, k = 5.019434
         8        22     1        0.108867   337269.931445    ;  uncertainty r = 0.000030, k = 1.116039
         9        10     1        0.140057   346968.823437    ;  uncertainty r = 0.000042, k = 2.862655
         9        23     1        0.108619   333221.839941    ;  uncertainty r = 0.000017, k = 0.722972
        10        11     1        0.139888   350678.037500    ;  uncertainty r = 0.000043, k = 2.364635
        11        12     1        0.138845   356475.037939    ;  uncertainty r = 0.000043, k = 5.222943
        11        24     1        0.108582   333777.118848    ;  uncertainty r = 0.000013, k = 1.060862
        12        20     1        0.175552   191109.345728    ;  uncertainty r = 0.000081, k = 6.966706
        13        14     1        0.139638   371681.952441    ;  uncertainty r = 0.000015, k = 0.978306
        13        18     1        0.139638   371681.952441    ;  uncertainty r = 0.000015, k = 0.978306
        13        25     1        0.108841   334518.920801    ;  uncertainty r = 0.000012, k = 0.635598
        14        15     1        0.139410   364403.723047    ;  uncertainty r = 0.000027, k = 1.125537
        14        26     1        0.108844   333597.720654    ;  uncertainty r = 0.000013, k = 0.737651
        15        16     1        0.140052   345029.586426    ;  uncertainty r = 0.000032, k = 1.520525
        15        27     1        0.108717   333226.053564    ;  uncertainty r = 0.000015, k = 0.733478
        16        17     1        0.140052   345029.586426    ;  uncertainty r = 0.000032, k = 1.520525
        17        18     1        0.139410   364403.723047    ;  uncertainty r = 0.000027, k = 1.125537
        17        28     1        0.108717   333226.053564    ;  uncertainty r = 0.000015, k = 0.733478
        18        29     1        0.108844   333597.720654    ;  uncertainty r = 0.000013, k = 0.737651
        19        30     1        0.102196   439793.713379    ;  uncertainty r = 0.000076, k = 4.088413
        19        31     1        0.102196   439793.713379    ;  uncertainty r = 0.000076, k = 4.088413
        21        32     1        0.097410   471486.032227    ;  uncertainty r = 0.000023, k = 2.537646

[ angles ]
;       ai        aj        ak funct           theta             cth
         1         2         3     1      119.670692      630.162521    ;  uncertainty theta = 0.004994, k = 0.081906
         1         6         5     1      125.473976      667.166559    ;  uncertainty theta = 0.004399, k = 0.260032
         1         6        19     1      122.667969      687.926313    ;  uncertainty theta = 0.008559, k = 0.200162
         2         1         6     1      112.117577      575.313599    ;  uncertainty theta = 0.004635, k = 0.210273
         2         3         4     1      122.438087      527.918766    ;  uncertainty theta = 0.006833, k = 0.155496
         2         3        10     1      116.563148      445.755703    ;  uncertainty theta = 0.006484, k = 0.193640
         3         4         5     1      120.197853      520.144121    ;  uncertainty theta = 0.007111, k = 0.328475
         3         4        16     1      120.966980      335.211462    ;  uncertainty theta = 0.005415, k = 0.303688
         3        10         9     1      120.669235      370.045675    ;  uncertainty theta = 0.003725, k = 0.074203
         3        10        11     1      119.869362      366.010301    ;  uncertainty theta = 0.004445, k = 0.135938
         4         3        10     1      121.153458      351.905964    ;  uncertainty theta = 0.005035, k = 0.313742
         4         5         6     1      117.333641      426.968275    ;  uncertainty theta = 0.017496, k = 0.318744
         4        16        15     1      118.619736      365.704334    ;  uncertainty theta = 0.003070, k = 0.150298
         4        16        17     1      118.619736      365.704334    ;  uncertainty theta = 0.003070, k = 0.150298
         5         4        16     1      120.498230      469.984514    ;  uncertainty theta = 0.005482, k = 0.142607
         5         6        19     1      125.763504      798.173718    ;  uncertainty theta = 0.006180, k = 0.064188
         6        19        30     1      118.262405      443.776577    ;  uncertainty theta = 0.004875, k = 0.045402
         6        19        31     1      118.262405      443.776577    ;  uncertainty theta = 0.004875, k = 0.045402
         7         8         9     1      119.142944      522.012576    ;  uncertainty theta = 0.002558, k = 0.048425
         7         8        22     1      119.231430      295.070892    ;  uncertainty theta = 0.000985, k = 0.098981
         7        12        11     1      121.507774      385.171177    ;  uncertainty theta = 0.003648, k = 0.158076
         7        12        20     1      118.282959      409.167569    ;  uncertainty theta = 0.002736, k = 0.168145
         7        21        32     1      109.896629      461.662225    ;  uncertainty theta = 0.003326, k = 0.106587
         8         7        12     1      117.464539      351.657999    ;  uncertainty theta = 0.008478, k = 0.241966
         8         7        21     1      121.195518      458.779628    ;  uncertainty theta = 0.002269, k = 0.375310
         8         9        10     1      120.855736      527.211676    ;  uncertainty theta = 0.001522, k = 0.076815
         8         9        23     1      119.815567      287.776089    ;  uncertainty theta = 0.001830, k = 0.025305
         9         8        22     1      121.204063      283.166322    ;  uncertainty theta = 0.000969, k = 0.039146
         9        10        11     1      121.105209      440.079793    ;  uncertainty theta = 0.004881, k = 0.094009
        10         9        23     1      118.782364      274.883137    ;  uncertainty theta = 0.001925, k = 0.062132
        10        11        12     1      121.269775      505.015938    ;  uncertainty theta = 0.002782, k = 0.077452
        10        11        24     1      119.457130      269.772459    ;  uncertainty theta = 0.002922, k = 0.062762
        11        12        20     1      120.970009      451.821245    ;  uncertainty theta = 0.002360, k = 0.121644
        12         7        21     1      124.378922      612.577221    ;  uncertainty theta = 0.004222, k = 0.274211
        12        11        24     1      119.758621      284.162237    ;  uncertainty theta = 0.001497, k = 0.081446
        13        14        15     1      119.529297      515.813762    ;  uncertainty theta = 0.001865, k = 0.035586
        13        14        26     1      120.660217      288.604066    ;  uncertainty theta = 0.001135, k = 0.015010
        13        18        17     1      119.529297      515.813762    ;  uncertainty theta = 0.001865, k = 0.035586
        13        18        29     1      120.660217      288.604066    ;  uncertainty theta = 0.001135, k = 0.015010
        14        13        18     1      118.344101      527.921193    ;  uncertainty theta = 0.001138, k = 0.026327
        14        13        25     1      120.585655      288.470922    ;  uncertainty theta = 0.001777, k = 0.013074
        14        15        16     1      120.766884      528.404514    ;  uncertainty theta = 0.002344, k = 0.034155
        14        15        27     1      120.422874      292.742706    ;  uncertainty theta = 0.001561, k = 0.018301
        15        14        26     1      120.046219      284.619543    ;  uncertainty theta = 0.001720, k = 0.015559
        15        16        17     1      121.273514      438.081450    ;  uncertainty theta = 0.004734, k = 0.088958
        16        15        27     1      118.758041      275.494336    ;  uncertainty theta = 0.002279, k = 0.045416
        16        17        18     1      120.766884      528.404514    ;  uncertainty theta = 0.002344, k = 0.034155
        16        17        28     1      118.758041      275.494336    ;  uncertainty theta = 0.002279, k = 0.045416
        17        18        29     1      120.046219      284.619543    ;  uncertainty theta = 0.001720, k = 0.015559
        18        13        25     1      120.585655      288.470922    ;  uncertainty theta = 0.001777, k = 0.013074
        18        17        28     1      120.422874      292.742706    ;  uncertainty theta = 0.001561, k = 0.018301
        30        19        31     1      107.926712      266.053474    ;  uncertainty theta = 0.004368, k = 0.064560

[ dihedrals ] ; propers for gromacs 4.5 or higher, use funct 9
;       ai        aj        ak        al funct           phase               k        pn
         1         2         3         4     9        0.000000        1.831311         1    ;  uncertainty k = 1.464094
         1         2         3         4     9      180.000000       12.064561         2    ;  uncertainty k = 0.336074
         1         2         3         4     9        0.000000        2.153982         3    ;  uncertainty k = 0.315632
         1         2         3         4     9      180.000000        1.363726         4    ;  uncertainty k = 0.144623
         1         2         3        10     9        0.000000        0.715640         1    ;  uncertainty k = 0.651487
         1         2         3        10     9      180.000000       18.009516         2    ;  uncertainty k = 0.295345
         1         2         3        10     9        0.000000        2.926179         3    ;  uncertainty k = 0.550161
         1         2         3        10     9      180.000000        1.552472         4    ;  uncertainty k = 0.458879
         1         6         5         4     9        0.000000       -0.159502         1    ;  uncertainty k = 2.061285
         1         6         5         4     9      180.000000        3.831664         2    ;  uncertainty k = 1.625385
         1         6         5         4     9        0.000000        1.173384         3    ;  uncertainty k = 0.518495
         1         6         5         4     9      180.000000        0.562840         4    ;  uncertainty k = 0.479066
         1         6        19        30     9        0.000000       13.129111         1    ;  uncertainty k = 0.629667
         1         6        19        30     9      180.000000        9.756533         2    ;  uncertainty k = 0.245450
         1         6        19        30     9        0.000000        0.714123         3    ;  uncertainty k = 0.172606
         1         6        19        30     9      180.000000       -0.412217         4    ;  uncertainty k = 0.285718
         1         6        19        31     9        0.000000       13.129111         1    ;  uncertainty k = 0.629667
         1         6        19        31     9      180.000000        9.756533         2    ;  uncertainty k = 0.245450
         1         6        19        31     9        0.000000        0.714123         3    ;  uncertainty k = 0.172606
         1         6        19        31     9      180.000000       -0.412217         4    ;  uncertainty k = 0.285718
         2         1         6         5     9        0.000000        1.968898         1    ;  uncertainty k = 1.303642
         2         1         6         5     9      180.000000        5.539831         2    ;  uncertainty k = 1.934359
         2         1         6         5     9        0.000000        1.215088         3    ;  uncertainty k = 0.650296
         2         1         6         5     9      180.000000        1.068040         4    ;  uncertainty k = 0.490493
         2         1         6        19     9        0.000000        2.793109         1    ;  uncertainty k = 1.767061
         2         1         6        19     9      180.000000       10.325178         2    ;  uncertainty k = 0.754001
         2         1         6        19     9        0.000000        2.692809         3    ;  uncertainty k = 0.395811
         2         1         6        19     9      180.000000        0.982486         4    ;  uncertainty k = 0.243420
         2         3         4         5     9        0.000000       -0.810610         1    ;  uncertainty k = 0.576507
         2         3         4         5     9      180.000000        3.398163         2    ;  uncertainty k = 1.138156
         2         3         4         5     9        0.000000       -0.370052         3    ;  uncertainty k = 1.053421
         2         3         4         5     9      180.000000        0.534132         4    ;  uncertainty k = 0.594437
         2         3         4        16     9        0.000000       -1.443252         1    ;  uncertainty k = 1.202131
         2         3         4        16     9      180.000000        2.351433         2    ;  uncertainty k = 0.812863
         2         3         4        16     9        0.000000        0.051122         3    ;  uncertainty k = 0.843321
         2         3         4        16     9      180.000000        0.816632         4    ;  uncertainty k = 0.493631
         2         3        10         9     9        0.000000        0.025701         1    ;  uncertainty k = 0.926891
         2         3        10         9     9      180.000000        4.930048         2    ;  uncertainty k = 0.089220
         2         3        10         9     9        0.000000        0.412072         3    ;  uncertainty k = 0.156143
         2         3        10         9     9      180.000000        0.139367         4    ;  uncertainty k = 0.067062
         2         3        10        11     9        0.000000       -0.042502         1    ;  uncertainty k = 0.955732
         2         3        10        11     9      180.000000        4.953418         2    ;  uncertainty k = 0.119666
         2         3        10        11     9        0.000000        0.428076         3    ;  uncertainty k = 0.181658
         2         3        10        11     9      180.000000        0.141820         4    ;  uncertainty k = 0.083313
         3         2         1         6     9        0.000000       -3.142821         1    ;  uncertainty k = 3.545774
         3         2         1         6     9      180.000000       31.031604         2    ;  uncertainty k = 0.566959
         3         2         1         6     9        0.000000       -0.054412         3    ;  uncertainty k = 1.274938
         3         2         1         6     9      180.000000       -0.523914         4    ;  uncertainty k = 1.473190
         3         4         5         6     9        0.000000        0.246461         1    ;  uncertainty k = 0.967695
         3         4         5         6     9      180.000000       13.685249         2    ;  uncertainty k = 0.557892
         3         4         5         6     9        0.000000        0.443295         3    ;  uncertainty k = 0.882038
         3         4         5         6     9      180.000000        1.351125         4    ;  uncertainty k = 0.487190
         3         4        16        15     9        0.000000       -0.238962         1    ;  uncertainty k = 0.863926
         3         4        16        15     9      180.000000        3.474352         2    ;  uncertainty k = 0.435657
         3         4        16        15     9        0.000000        0.525936         3    ;  uncertainty k = 0.184165
         3         4        16        15     9      180.000000        0.007086         4    ;  uncertainty k = 0.080251
         3         4        16        17     9        0.000000       -0.238962         1    ;  uncertainty k = 0.863926
         3         4        16        17     9      180.000000        3.474352         2    ;  uncertainty k = 0.435657
         3         4        16        17     9        0.000000        0.525936         3    ;  uncertainty k = 0.184165
         3         4        16        17     9      180.000000        0.007086         4    ;  uncertainty k = 0.080251
         3        10         9         8     9        0.000000       -0.041939         1    ;  uncertainty k = 0.289255
         3        10         9         8     9      180.000000        8.619726         2    ;  uncertainty k = 0.342178
         3        10         9         8     9        0.000000        1.089574         3    ;  uncertainty k = 0.205064
         3        10         9         8     9      180.000000        1.851797         4    ;  uncertainty k = 0.129256
         3        10         9        23     9        0.000000       -0.218264         1    ;  uncertainty k = 0.241630
         3        10         9        23     9      180.000000        7.362471         2    ;  uncertainty k = 0.342701
         3        10         9        23     9        0.000000        0.798882         3    ;  uncertainty k = 0.171131
         3        10         9        23     9      180.000000        1.185784         4    ;  uncertainty k = 0.206548
         3        10        11        12     9        0.000000        0.135552         1    ;  uncertainty k = 0.196136
         3        10        11        12     9      180.000000        8.757579         2    ;  uncertainty k = 0.246228
         3        10        11        12     9        0.000000        1.154461         3    ;  uncertainty k = 0.160708
         3        10        11        12     9      180.000000        1.781080         4    ;  uncertainty k = 0.112197
         3        10        11        24     9        0.000000       -0.212008         1    ;  uncertainty k = 0.258846
         3        10        11        24     9      180.000000        7.311145         2    ;  uncertainty k = 0.323749
         3        10        11        24     9        0.000000        0.784527         3    ;  uncertainty k = 0.186255
         3        10        11        24     9      180.000000        1.210167         4    ;  uncertainty k = 0.189645
         4         3        10         9     9        0.000000        0.711471         1    ;  uncertainty k = 0.798722
         4         3        10         9     9      180.000000        2.645957         2    ;  uncertainty k = 0.557028
         4         3        10         9     9        0.000000        0.747248         3    ;  uncertainty k = 0.292222
         4         3        10         9     9      180.000000       -0.001789         4    ;  uncertainty k = 0.116813
         4         3        10        11     9        0.000000        0.513240         1    ;  uncertainty k = 0.681916
         4         3        10        11     9      180.000000        2.597858         2    ;  uncertainty k = 0.640713
         4         3        10        11     9        0.000000        0.698796         3    ;  uncertainty k = 0.274860
         4         3        10        11     9      180.000000        0.028275         4    ;  uncertainty k = 0.120559
         4         5         6        19     9        0.000000        0.323492         1    ;  uncertainty k = 0.573575
         4         5         6        19     9      180.000000        8.427377         2    ;  uncertainty k = 0.712989
         4         5         6        19     9        0.000000        2.103340         3    ;  uncertainty k = 0.347201
         4         5         6        19     9      180.000000        0.966007         4    ;  uncertainty k = 0.424542
         4        16        15        14     9        0.000000        0.244623         1    ;  uncertainty k = 0.364587
         4        16        15        14     9      180.000000        8.777576         2    ;  uncertainty k = 0.506605
         4        16        15        14     9        0.000000        1.204611         3    ;  uncertainty k = 0.317859
         4        16        15        14     9      180.000000        1.930500         4    ;  uncertainty k = 0.212294
         4        16        15        27     9        0.000000       -0.281068         1    ;  uncertainty k = 0.166996
         4        16        15        27     9      180.000000        7.429076         2    ;  uncertainty k = 0.523888
         4        16        15        27     9        0.000000        0.740308         3    ;  uncertainty k = 0.138975
         4        16        15        27     9      180.000000        1.219405         4    ;  uncertainty k = 0.164843
         4        16        17        18     9        0.000000        0.244623         1    ;  uncertainty k = 0.364587
         4        16        17        18     9      180.000000        8.777576         2    ;  uncertainty k = 0.506605
         4        16        17        18     9        0.000000        1.204611         3    ;  uncertainty k = 0.317859
         4        16        17        18     9      180.000000        1.930500         4    ;  uncertainty k = 0.212294
         4        16        17        28     9        0.000000       -0.281068         1    ;  uncertainty k = 0.166996
         4        16        17        28     9      180.000000        7.429076         2    ;  uncertainty k = 0.523888
         4        16        17        28     9        0.000000        0.740308         3    ;  uncertainty k = 0.138975
         4        16        17        28     9      180.000000        1.219405         4    ;  uncertainty k = 0.164843
         5         4         3        10     9        0.000000       -0.092114         1    ;  uncertainty k = 0.539472
         5         4         3        10     9      180.000000        3.664082         2    ;  uncertainty k = 1.079767
         5         4         3        10     9        0.000000        0.173633         3    ;  uncertainty k = 0.597169
         5         4         3        10     9      180.000000        0.717530         4    ;  uncertainty k = 0.647837
         5         4        16        15     9        0.000000        0.577089         1    ;  uncertainty k = 0.771269
         5         4        16        15     9      180.000000        5.298508         2    ;  uncertainty k = 0.334426
         5         4        16        15     9        0.000000        0.480066         3    ;  uncertainty k = 0.134057
         5         4        16        15     9      180.000000        0.149158         4    ;  uncertainty k = 0.112879
         5         4        16        17     9        0.000000        0.577089         1    ;  uncertainty k = 0.771269
         5         4        16        17     9      180.000000        5.298508         2    ;  uncertainty k = 0.334426
         5         4        16        17     9        0.000000        0.480066         3    ;  uncertainty k = 0.134057
         5         4        16        17     9      180.000000        0.149158         4    ;  uncertainty k = 0.112879
         5         6        19        30     9        0.000000       20.010442         1    ;  uncertainty k = 0.259650
         5         6        19        30     9      180.000000       10.182111         2    ;  uncertainty k = 0.370307
         5         6        19        30     9        0.000000        0.832804         3    ;  uncertainty k = 0.221692
         5         6        19        30     9      180.000000       -0.316472         4    ;  uncertainty k = 0.214044
         5         6        19        31     9        0.000000       20.010442         1    ;  uncertainty k = 0.259650
         5         6        19        31     9      180.000000       10.182111         2    ;  uncertainty k = 0.370307
         5         6        19        31     9        0.000000        0.832804         3    ;  uncertainty k = 0.221692
         5         6        19        31     9      180.000000       -0.316472         4    ;  uncertainty k = 0.214044
         6         5         4        16     9        0.000000        0.671482         1    ;  uncertainty k = 0.595294
         6         5         4        16     9      180.000000       15.998898         2    ;  uncertainty k = 0.727265
         6         5         4        16     9        0.000000        2.088123         3    ;  uncertainty k = 0.689736
         6         5         4        16     9      180.000000        1.669828         4    ;  uncertainty k = 0.442946
         7         8         9        10     9        0.000000       -0.201154         1    ;  uncertainty k = 0.216350
         7         8         9        10     9      180.000000       14.226671         2    ;  uncertainty k = 0.239525
         7         8         9        10     9        0.000000       -0.917341         3    ;  uncertainty k = 0.606558
         7         8         9        10     9      180.000000        0.908380         4    ;  uncertainty k = 0.307246
         7         8         9        23     9        0.000000        0.039336         1    ;  uncertainty k = 0.231174
         7         8         9        23     9      180.000000        8.265092         2    ;  uncertainty k = 0.356846
         7         8         9        23     9        0.000000        1.232437         3    ;  uncertainty k = 0.345895
         7         8         9        23     9      180.000000        1.765222         4    ;  uncertainty k = 0.116702
         7        12        11        10     9        0.000000       -0.294602         1    ;  uncertainty k = 0.492262
         7        12        11        10     9      180.000000       10.127762         2    ;  uncertainty k = 0.646182
         7        12        11        10     9        0.000000        0.301057         3    ;  uncertainty k = 0.452161
         7        12        11        10     9      180.000000        1.296230         4    ;  uncertainty k = 0.346759
         7        12        11        24     9        0.000000       -0.034413         1    ;  uncertainty k = 0.203135
         7        12        11        24     9      180.000000        6.582410         2    ;  uncertainty k = 0.753498
         7        12        11        24     9        0.000000        1.326137         3    ;  uncertainty k = 0.234939
         7        12        11        24     9      180.000000        1.616690         4    ;  uncertainty k = 0.101810
         8         7        12        11     9        0.000000       -0.158932         1    ;  uncertainty k = 0.741352
         8         7        12        11     9      180.000000        5.259578         2    ;  uncertainty k = 1.233316
         8         7        12        11     9        0.000000        0.422176         3    ;  uncertainty k = 0.320214
         8         7        12        11     9      180.000000        1.272563         4    ;  uncertainty k = 0.416417
         8         7        12        20     9        0.000000        0.334049         1    ;  uncertainty k = 0.355187
         8         7        12        20     9      180.000000        6.510076         2    ;  uncertainty k = 0.545158
         8         7        12        20     9        0.000000        1.397758         3    ;  uncertainty k = 0.249592
         8         7        12        20     9      180.000000        1.551691         4    ;  uncertainty k = 0.148804
         8         7        21        32     9        0.000000        6.876190         1    ;  uncertainty k = 0.467994
         8         7        21        32     9      180.000000        5.512093         2    ;  uncertainty k = 0.177764
         8         7        21        32     9        0.000000        0.631771         3    ;  uncertainty k = 0.138678
         8         7        21        32     9      180.000000        0.196137         4    ;  uncertainty k = 0.085055
         8         9        10        11     9        0.000000       -0.231433         1    ;  uncertainty k = 0.168278
         8         9        10        11     9      180.000000       11.609438         2    ;  uncertainty k = 0.272188
         8         9        10        11     9        0.000000       -0.762545         3    ;  uncertainty k = 0.251533
         8         9        10        11     9      180.000000        0.916859         4    ;  uncertainty k = 0.227571
         9         8         7        12     9        0.000000        0.061517         1    ;  uncertainty k = 0.260500
         9         8         7        12     9      180.000000        7.744215         2    ;  uncertainty k = 0.611881
         9         8         7        12     9        0.000000        0.335078         3    ;  uncertainty k = 0.298483
         9         8         7        12     9      180.000000        1.397183         4    ;  uncertainty k = 0.321173
         9         8         7        21     9        0.000000        0.026428         1    ;  uncertainty k = 0.356327
         9         8         7        21     9      180.000000       10.833802         2    ;  uncertainty k = 0.386250
         9         8         7        21     9        0.000000        1.068698         3    ;  uncertainty k = 0.230494
         9         8         7        21     9      180.000000        1.492979         4    ;  uncertainty k = 0.110474
         9        10        11        12     9        0.000000        0.020438         1    ;  uncertainty k = 0.075641
         9        10        11        12     9      180.000000       11.373358         2    ;  uncertainty k = 0.299986
         9        10        11        12     9        0.000000       -0.654848         3    ;  uncertainty k = 0.386230
         9        10        11        12     9      180.000000        1.026237         4    ;  uncertainty k = 0.324357
         9        10        11        24     9        0.000000        0.133998         1    ;  uncertainty k = 0.095121
         9        10        11        24     9      180.000000        7.004084         2    ;  uncertainty k = 0.434573
         9        10        11        24     9        0.000000        1.326982         3    ;  uncertainty k = 0.182075
         9        10        11        24     9      180.000000        1.604453         4    ;  uncertainty k = 0.248015
        10         3         4        16     9        0.000000       -0.407175         1    ;  uncertainty k = 1.013248
        10         3         4        16     9      180.000000        3.496798         2    ;  uncertainty k = 0.750192
        10         3         4        16     9        0.000000        0.794008         3    ;  uncertainty k = 0.464393
        10         3         4        16     9      180.000000        0.392575         4    ;  uncertainty k = 0.236877
        10         9         8        22     9        0.000000        0.126262         1    ;  uncertainty k = 0.156542
        10         9         8        22     9      180.000000        8.288629         2    ;  uncertainty k = 0.242657
        10         9         8        22     9        0.000000        1.431355         3    ;  uncertainty k = 0.203037
        10         9         8        22     9      180.000000        1.913334         4    ;  uncertainty k = 0.130191
        10        11        12        20     9        0.000000        0.141209         1    ;  uncertainty k = 0.204851
        10        11        12        20     9      180.000000        9.731128         2    ;  uncertainty k = 0.478273
        10        11        12        20     9        0.000000        1.534450         3    ;  uncertainty k = 0.185633
        10        11        12        20     9      180.000000        1.777776         4    ;  uncertainty k = 0.078318
        11        10         9        23     9        0.000000        0.087837         1    ;  uncertainty k = 0.076145
        11        10         9        23     9      180.000000        6.987093         2    ;  uncertainty k = 0.527204
        11        10         9        23     9        0.000000        1.338987         3    ;  uncertainty k = 0.206017
        11        10         9        23     9      180.000000        1.605401         4    ;  uncertainty k = 0.255095
        11        12         7        21     9        0.000000       -0.041159         1    ;  uncertainty k = 0.125733
        11        12         7        21     9      180.000000        8.452537         2    ;  uncertainty k = 0.252055
        11        12         7        21     9        0.000000        1.036001         3    ;  uncertainty k = 0.158057
        11        12         7        21     9      180.000000        1.375656         4    ;  uncertainty k = 0.132347
        12         7         8        22     9        0.000000       -0.011131         1    ;  uncertainty k = 0.238266
        12         7         8        22     9      180.000000        5.481785         2    ;  uncertainty k = 0.688236
        12         7         8        22     9        0.000000        1.270254         3    ;  uncertainty k = 0.250505
        12         7         8        22     9      180.000000        1.439709         4    ;  uncertainty k = 0.191265
        12         7        21        32     9        0.000000        9.891497         1    ;  uncertainty k = 0.606084
        12         7        21        32     9      180.000000        4.695838         2    ;  uncertainty k = 0.517737
        12         7        21        32     9        0.000000        0.960358         3    ;  uncertainty k = 0.276406
        12         7        21        32     9      180.000000        0.209231         4    ;  uncertainty k = 0.152260
        13        14        15        16     9        0.000000       -0.085156         1    ;  uncertainty k = 0.101326
        13        14        15        16     9      180.000000       13.800477         2    ;  uncertainty k = 0.268312
        13        14        15        16     9        0.000000       -0.771380         3    ;  uncertainty k = 0.430279
        13        14        15        16     9      180.000000        0.763186         4    ;  uncertainty k = 0.221620
        13        14        15        27     9        0.000000        0.040792         1    ;  uncertainty k = 0.098340
        13        14        15        27     9      180.000000        7.829050         2    ;  uncertainty k = 0.220837
        13        14        15        27     9        0.000000        1.377807         3    ;  uncertainty k = 0.305455
        13        14        15        27     9      180.000000        1.862040         4    ;  uncertainty k = 0.175515
        13        18        17        16     9        0.000000       -0.085156         1    ;  uncertainty k = 0.101326
        13        18        17        16     9      180.000000       13.800477         2    ;  uncertainty k = 0.268312
        13        18        17        16     9        0.000000       -0.771380         3    ;  uncertainty k = 0.430279
        13        18        17        16     9      180.000000        0.763186         4    ;  uncertainty k = 0.221620
        13        18        17        28     9        0.000000        0.040792         1    ;  uncertainty k = 0.098340
        13        18        17        28     9      180.000000        7.829050         2    ;  uncertainty k = 0.220837
        13        18        17        28     9        0.000000        1.377807         3    ;  uncertainty k = 0.305455
        13        18        17        28     9      180.000000        1.862040         4    ;  uncertainty k = 0.175515
        14        13        18        17     9        0.000000       -0.039609         1    ;  uncertainty k = 0.058508
        14        13        18        17     9      180.000000       14.728850         2    ;  uncertainty k = 0.270498
        14        13        18        17     9        0.000000       -1.116008         3    ;  uncertainty k = 0.461534
        14        13        18        17     9      180.000000        0.570638         4    ;  uncertainty k = 0.262850
        14        13        18        29     9        0.000000        0.060280         1    ;  uncertainty k = 0.046484
        14        13        18        29     9      180.000000        7.580498         2    ;  uncertainty k = 0.301291
        14        13        18        29     9        0.000000        1.432917         3    ;  uncertainty k = 0.310397
        14        13        18        29     9      180.000000        1.808653         4    ;  uncertainty k = 0.112983
        14        15        16        17     9        0.000000       -0.228846         1    ;  uncertainty k = 0.099621
        14        15        16        17     9      180.000000       11.519585         2    ;  uncertainty k = 0.245642
        14        15        16        17     9        0.000000       -0.708965         3    ;  uncertainty k = 0.222667
        14        15        16        17     9      180.000000        0.889608         4    ;  uncertainty k = 0.283730
        15        14        13        18     9        0.000000       -0.039609         1    ;  uncertainty k = 0.058508
        15        14        13        18     9      180.000000       14.728850         2    ;  uncertainty k = 0.270498
        15        14        13        18     9        0.000000       -1.116008         3    ;  uncertainty k = 0.461534
        15        14        13        18     9      180.000000        0.570638         4    ;  uncertainty k = 0.262850
        15        14        13        25     9        0.000000        0.018696         1    ;  uncertainty k = 0.067612
        15        14        13        25     9      180.000000        7.446532         2    ;  uncertainty k = 0.246906
        15        14        13        25     9        0.000000        1.463058         3    ;  uncertainty k = 0.239087
        15        14        13        25     9      180.000000        1.786839         4    ;  uncertainty k = 0.161485
        15        16        17        18     9        0.000000       -0.228846         1    ;  uncertainty k = 0.099621
        15        16        17        18     9      180.000000       11.519585         2    ;  uncertainty k = 0.245642
        15        16        17        18     9        0.000000       -0.708965         3    ;  uncertainty k = 0.222667
        15        16        17        18     9      180.000000        0.889608         4    ;  uncertainty k = 0.283730
        15        16        17        28     9        0.000000        0.168842         1    ;  uncertainty k = 0.107557
        15        16        17        28     9      180.000000        7.056492         2    ;  uncertainty k = 0.442030
        15        16        17        28     9        0.000000        1.360330         3    ;  uncertainty k = 0.161756
        15        16        17        28     9      180.000000        1.681350         4    ;  uncertainty k = 0.250468
        16        15        14        26     9        0.000000        0.000276         1    ;  uncertainty k = 0.169363
        16        15        14        26     9      180.000000        7.621252         2    ;  uncertainty k = 0.320005
        16        15        14        26     9        0.000000        1.446360         3    ;  uncertainty k = 0.172877
        16        15        14        26     9      180.000000        1.823296         4    ;  uncertainty k = 0.150540
        16        17        18        29     9        0.000000        0.000276         1    ;  uncertainty k = 0.169363
        16        17        18        29     9      180.000000        7.621252         2    ;  uncertainty k = 0.320005
        16        17        18        29     9        0.000000        1.446360         3    ;  uncertainty k = 0.172877
        16        17        18        29     9      180.000000        1.823296         4    ;  uncertainty k = 0.150540
        17        16        15        27     9        0.000000        0.168842         1    ;  uncertainty k = 0.107557
        17        16        15        27     9      180.000000        7.056492         2    ;  uncertainty k = 0.442030
        17        16        15        27     9        0.000000        1.360330         3    ;  uncertainty k = 0.161756
        17        16        15        27     9      180.000000        1.681350         4    ;  uncertainty k = 0.250468
        17        18        13        25     9        0.000000        0.018696         1    ;  uncertainty k = 0.067612
        17        18        13        25     9      180.000000        7.446532         2    ;  uncertainty k = 0.246906
        17        18        13        25     9        0.000000        1.463058         3    ;  uncertainty k = 0.239087
        17        18        13        25     9      180.000000        1.786839         4    ;  uncertainty k = 0.161485
        18        13        14        26     9        0.000000        0.060280         1    ;  uncertainty k = 0.046484
        18        13        14        26     9      180.000000        7.580498         2    ;  uncertainty k = 0.301291
        18        13        14        26     9        0.000000        1.432917         3    ;  uncertainty k = 0.310397
        18        13        14        26     9      180.000000        1.808653         4    ;  uncertainty k = 0.112983
        20        12         7        21     9        0.000000       -0.034484         1    ;  uncertainty k = 0.628753
        20        12         7        21     9      180.000000        9.341156         2    ;  uncertainty k = 0.293353
        20        12         7        21     9        0.000000        0.980956         3    ;  uncertainty k = 0.284638
        20        12         7        21     9      180.000000        1.220952         4    ;  uncertainty k = 0.211038
        20        12        11        24     9        0.000000       -0.161695         1    ;  uncertainty k = 0.475764
        20        12        11        24     9      180.000000        7.873965         2    ;  uncertainty k = 0.451384
        20        12        11        24     9        0.000000        0.677389         3    ;  uncertainty k = 0.257358
        20        12        11        24     9      180.000000        1.119673         4    ;  uncertainty k = 0.217756
        21         7         8        22     9        0.000000       -0.108789         1    ;  uncertainty k = 0.250320
        21         7         8        22     9      180.000000        8.260897         2    ;  uncertainty k = 0.437130
        21         7         8        22     9        0.000000        0.827957         3    ;  uncertainty k = 0.213811
        21         7         8        22     9      180.000000        1.125063         4    ;  uncertainty k = 0.329405
        22         8         9        23     9        0.000000        0.100509         1    ;  uncertainty k = 0.240480
        22         8         9        23     9      180.000000        7.909243         2    ;  uncertainty k = 0.511686
        22         8         9        23     9        0.000000       -0.346632         3    ;  uncertainty k = 0.257314
        22         8         9        23     9      180.000000        0.260671         4    ;  uncertainty k = 0.131308
        25        13        14        26     9        0.000000       -0.086959         1    ;  uncertainty k = 0.086880
        25        13        14        26     9      180.000000        7.713489         2    ;  uncertainty k = 0.410363
        25        13        14        26     9        0.000000       -0.420918         3    ;  uncertainty k = 0.300483
        25        13        14        26     9      180.000000        0.039571         4    ;  uncertainty k = 0.147961
        25        13        18        29     9        0.000000       -0.086959         1    ;  uncertainty k = 0.086880
        25        13        18        29     9      180.000000        7.713489         2    ;  uncertainty k = 0.410363
        25        13        18        29     9        0.000000       -0.420918         3    ;  uncertainty k = 0.300483
        25        13        18        29     9      180.000000        0.039571         4    ;  uncertainty k = 0.147961
        26        14        15        27     9        0.000000       -0.159865         1    ;  uncertainty k = 0.133584
        26        14        15        27     9      180.000000        7.859188         2    ;  uncertainty k = 0.325421
        26        14        15        27     9        0.000000       -0.450050         3    ;  uncertainty k = 0.281622
        26        14        15        27     9      180.000000        0.154829         4    ;  uncertainty k = 0.122641
        28        17        18        29     9        0.000000       -0.159865         1    ;  uncertainty k = 0.133584
        28        17        18        29     9      180.000000        7.859188         2    ;  uncertainty k = 0.325421
        28        17        18        29     9        0.000000       -0.450050         3    ;  uncertainty k = 0.281622
        28        17        18        29     9      180.000000        0.154829         4    ;  uncertainty k = 0.122641

[ dihedrals ] ; impropers
;       ai        aj        ak        al funct           phase               k        pn
         3         2         4        10     4      180.000000       22.507967         2    ;  uncertainty k = 0.152953
         3         4        10         2     4      180.000000       22.507967         2    ;  uncertainty k = 0.152953
         3        10         2         4     4      180.000000       22.507967         2    ;  uncertainty k = 0.152953
         4         3         5        16     4      180.000000       29.582233         2    ;  uncertainty k = 0.036972
         4         5        16         3     4      180.000000       29.582233         2    ;  uncertainty k = 0.036972
         4        16         3         5     4      180.000000       29.582233         2    ;  uncertainty k = 0.036972
         6         1         5        19     4      180.000000       43.323642         2    ;  uncertainty k = 0.063442
         6         5        19         1     4      180.000000       43.323642         2    ;  uncertainty k = 0.063442
         6        19         1         5     4      180.000000       43.323642         2    ;  uncertainty k = 0.063442
         7         8        12        21     4      180.000000       18.415246         2    ;  uncertainty k = 0.063686
         7        12        21         8     4      180.000000       18.415246         2    ;  uncertainty k = 0.063686
         7        21         8        12     4      180.000000       18.415246         2    ;  uncertainty k = 0.063686
         8         7         9        22     4      180.000000        2.136822         2    ;  uncertainty k = 0.234357
         8         9        22         7     4      180.000000        2.136822         2    ;  uncertainty k = 0.234357
         8        22         7         9     4      180.000000        2.136822         2    ;  uncertainty k = 0.234357
         9         8        10        23     4      180.000000        4.629152         2    ;  uncertainty k = 0.109398
         9        10        23         8     4      180.000000        4.629152         2    ;  uncertainty k = 0.109398
         9        23         8        10     4      180.000000        4.629152         2    ;  uncertainty k = 0.109398
        10         3         9        11     4      180.000000        9.765720         2    ;  uncertainty k = 0.159010
        10         9        11         3     4      180.000000        9.765720         2    ;  uncertainty k = 0.159010
        10        11         3         9     4      180.000000        9.765720         2    ;  uncertainty k = 0.159010
        11        10        12        24     4      180.000000        4.384285         2    ;  uncertainty k = 0.225077
        11        12        24        10     4      180.000000        4.384285         2    ;  uncertainty k = 0.225077
        11        24        10        12     4      180.000000        4.384285         2    ;  uncertainty k = 0.225077
        12         7        11        20     4      180.000000        8.764021         2    ;  uncertainty k = 0.197578
        12        11        20         7     4      180.000000        8.764021         2    ;  uncertainty k = 0.197578
        12        20         7        11     4      180.000000        8.764021         2    ;  uncertainty k = 0.197578
        13        14        18        25     4      180.000000        4.673371         2    ;  uncertainty k = 0.190293
        13        18        25        14     4      180.000000        4.673371         2    ;  uncertainty k = 0.190293
        13        25        14        18     4      180.000000        4.673371         2    ;  uncertainty k = 0.190293
        14        13        15        26     4      180.000000        4.310919         2    ;  uncertainty k = 0.072052
        14        15        26        13     4      180.000000        4.310919         2    ;  uncertainty k = 0.072052
        14        26        13        15     4      180.000000        4.310919         2    ;  uncertainty k = 0.072052
        15        14        16        27     4      180.000000        4.275767         2    ;  uncertainty k = 0.092511
        15        16        27        14     4      180.000000        4.275767         2    ;  uncertainty k = 0.092511
        15        27        14        16     4      180.000000        4.275767         2    ;  uncertainty k = 0.092511
        16         4        15        17     4      180.000000       10.064639         2    ;  uncertainty k = 0.105291
        16        15        17         4     4      180.000000       10.064639         2    ;  uncertainty k = 0.105291
        16        17         4        15     4      180.000000       10.064639         2    ;  uncertainty k = 0.105291
        17        16        18        28     4      180.000000        4.275767         2    ;  uncertainty k = 0.092511
        17        18        28        16     4      180.000000        4.275767         2    ;  uncertainty k = 0.092511
        17        28        16        18     4      180.000000        4.275767         2    ;  uncertainty k = 0.092511
        18        13        17        29     4      180.000000        4.310919         2    ;  uncertainty k = 0.072052
        18        17        29        13     4      180.000000        4.310919         2    ;  uncertainty k = 0.072052
        18        29        13        17     4      180.000000        4.310919         2    ;  uncertainty k = 0.072052
        19         6        30        31     4      180.000000        0.390383         2    ;  uncertainty k = 0.522838
        19        30        31         6     4      180.000000        0.390383         2    ;  uncertainty k = 0.522838
        19        31         6        30     4      180.000000        0.390383         2    ;  uncertainty k = 0.522838

[ pairs ]
;       ai        aj funct
         1         4     1
         1        10     1
         1        30     1
         1        31     1
         2         5     1
         2         9     1
         2        11     1
         2        16     1
         2        19     1
         3         6     1
         3         8     1
         3        12     1
         3        15     1
         3        17     1
         3        23     1
         3        24     1
         4         9     1
         4        11     1
         4        14     1
         4        18     1
         4        19     1
         4        27     1
         4        28     1
         5        10     1
         5        15     1
         5        17     1
         5        30     1
         5        31     1
         6        16     1
         7        10     1
         7        23     1
         7        24     1
         8        11     1
         8        20     1
         8        32     1
         9        12     1
         9        21     1
         9        24     1
        10        16     1
        10        20     1
        10        22     1
        11        21     1
        11        23     1
        12        22     1
        12        32     1
        13        16     1
        13        27     1
        13        28     1
        14        17     1
        14        29     1
        15        18     1
        15        25     1
        15        28     1
        16        26     1
        16        29     1
        17        25     1
        17        27     1
        18        26     1
        20        21     1
        20        24     1
        21        22     1
        22        23     1
        25        26     1
        25        29     1
        26        27     1
        28        29     1
