; ITP file created by ByteFF-joint-25, 2025-07-14 11:28:17.963873

[ atomtypes ]
;name           bonded.type        at.num        mass        charge   ptype           sigma         epsilon
 n0bf                                   7      0.0000       0.00000       A     3.38457e-01     3.93065e-01    ;  uncertainty sigma = 0.000033, epsilon = 0.002906
 n1bf                                   7      0.0000       0.00000       A     3.38476e-01     3.93713e-01    ;  uncertainty sigma = 0.000022, epsilon = 0.001198
 c2bf                                   6      0.0000       0.00000       A     3.31535e-01     4.12788e-01    ;  uncertainty sigma = 0.000020, epsilon = 0.001375
 c3bf                                   6      0.0000       0.00000       A     3.31532e-01     4.12868e-01    ;  uncertainty sigma = 0.000013, epsilon = 0.000681
 n4bf                                   7      0.0000       0.00000       A     3.38467e-01     3.94052e-01    ;  uncertainty sigma = 0.000030, epsilon = 0.001987
 c5bf                                   6      0.0000       0.00000       A     3.31538e-01     4.13311e-01    ;  uncertainty sigma = 0.000020, epsilon = 0.001585
 c6bf                                   6      0.0000       0.00000       A     3.31555e-01     4.14228e-01    ;  uncertainty sigma = 0.000018, epsilon = 0.000866
 c7bf                                   6      0.0000       0.00000       A     3.31521e-01     4.12909e-01    ;  uncertainty sigma = 0.000017, epsilon = 0.002426
 c8bf                                   6      0.0000       0.00000       A     3.31536e-01     4.13220e-01    ;  uncertainty sigma = 0.000009, epsilon = 0.002062
 c9bf                                   6      0.0000       0.00000       A     3.31442e-01     4.10103e-01    ;  uncertainty sigma = 0.000136, epsilon = 0.002077
 c10bf                                  6      0.0000       0.00000       A     3.31554e-01     4.12703e-01    ;  uncertainty sigma = 0.000014, epsilon = 0.001188
 c11bf                                  6      0.0000       0.00000       A     3.31546e-01     4.14490e-01    ;  uncertainty sigma = 0.000035, epsilon = 0.001306
 c12bf                                  6      0.0000       0.00000       A     3.31518e-01     4.13340e-01    ;  uncertainty sigma = 0.000003, epsilon = 0.000580
 c13bf                                  6      0.0000       0.00000       A     3.31519e-01     4.13380e-01    ;  uncertainty sigma = 0.000002, epsilon = 0.000627
 c14bf                                  6      0.0000       0.00000       A     3.31517e-01     4.13568e-01    ;  uncertainty sigma = 0.000002, epsilon = 0.000944
 c15bf                                  6      0.0000       0.00000       A     3.31548e-01     4.13550e-01    ;  uncertainty sigma = 0.000019, epsilon = 0.000920
 c16bf                                  6      0.0000       0.00000       A     3.31517e-01     4.13568e-01    ;  uncertainty sigma = 0.000002, epsilon = 0.000944
 c17bf                                  6      0.0000       0.00000       A     3.31519e-01     4.13380e-01    ;  uncertainty sigma = 0.000002, epsilon = 0.000627
 n18bf                                  7      0.0000       0.00000       A     3.36800e-01     4.68954e-01    ;  uncertainty sigma = 0.000066, epsilon = 0.001925
 cl19bf                                17      0.0000       0.00000       A     3.46500e-01     1.10333e+00    ;  uncertainty sigma = 0.000048, epsilon = 0.002472
 o20bf                                  8      0.0000       0.00000       A     3.04896e-01     6.11048e-01    ;  uncertainty sigma = 0.000028, epsilon = 0.002687
 h21bf                                  1      0.0000       0.00000       A     2.62481e-01     6.75872e-02    ;  uncertainty sigma = 0.000037, epsilon = 0.000708
 h22bf                                  1      0.0000       0.00000       A     2.62585e-01     6.79538e-02    ;  uncertainty sigma = 0.000069, epsilon = 0.001581
 h23bf                                  1      0.0000       0.00000       A     2.62592e-01     6.72095e-02    ;  uncertainty sigma = 0.000025, epsilon = 0.001180
 h24bf                                  1      0.0000       0.00000       A     2.62552e-01     6.70645e-02    ;  uncertainty sigma = 0.000011, epsilon = 0.000453
 h25bf                                  1      0.0000       0.00000       A     2.62559e-01     6.70250e-02    ;  uncertainty sigma = 0.000010, epsilon = 0.000440
 h26bf                                  1      0.0000       0.00000       A     2.62560e-01     6.70283e-02    ;  uncertainty sigma = 0.000012, epsilon = 0.000523
 h27bf                                  1      0.0000       0.00000       A     2.62560e-01     6.70283e-02    ;  uncertainty sigma = 0.000012, epsilon = 0.000523
 h28bf                                  1      0.0000       0.00000       A     2.62559e-01     6.70249e-02    ;  uncertainty sigma = 0.000010, epsilon = 0.000440
 h29bf                                  1      0.0000       0.00000       A     1.10728e-01     4.07630e-02    ;  uncertainty sigma = 0.000034, epsilon = 0.001087
 h30bf                                  1      0.0000       0.00000       A     1.10728e-01     4.07630e-02    ;  uncertainty sigma = 0.000034, epsilon = 0.001087

[ moleculetype ]
;name             nrexcl
 MOL                   3

[ atoms ]
;       nr            type      resi   res      atom      cgnr      charge          mass ; qtot
         1            n0bf         1   UNL        n0         1    -0.40685       14.0070 ; qtot   -0.407
         2            n1bf         1   UNL        n1         2    -0.25305       14.0070 ; qtot   -0.660
         3            c2bf         1   UNL        c2         3     0.27417       12.0110 ; qtot   -0.386
         4            c3bf         1   UNL        c3         4     0.46935       12.0110 ; qtot    0.084
         5            n4bf         1   UNL        n4         5    -0.73822       14.0070 ; qtot   -0.655
         6            c5bf         1   UNL        c5         6     0.82167       12.0110 ; qtot    0.167
         7            c6bf         1   UNL        c6         7     0.55572       12.0110 ; qtot    0.723
         8            c7bf         1   UNL        c7         8    -0.34678       12.0110 ; qtot    0.376
         9            c8bf         1   UNL        c8         9    -0.03489       12.0110 ; qtot    0.341
        10            c9bf         1   UNL        c9        10    -0.34107       12.0110 ; qtot    0.000
        11           c10bf         1   UNL       c10        11    -0.02270       12.0110 ; qtot   -0.023
        12           c11bf         1   UNL       c11        12    -0.16654       12.0110 ; qtot   -0.189
        13           c12bf         1   UNL       c12        13    -0.11402       12.0110 ; qtot   -0.303
        14           c13bf         1   UNL       c13        14    -0.13628       12.0110 ; qtot   -0.439
        15           c14bf         1   UNL       c14        15    -0.09093       12.0110 ; qtot   -0.530
        16           c15bf         1   UNL       c15        16    -0.17251       12.0110 ; qtot   -0.703
        17           c16bf         1   UNL       c16        17    -0.09093       12.0110 ; qtot   -0.794
        18           c17bf         1   UNL       c17        18    -0.13628       12.0110 ; qtot   -0.930
        19           n18bf         1   UNL       n18        19    -0.92625       14.0070 ; qtot   -1.856
        20          cl19bf         1   UNL      cl19        20    -0.22673       35.4530 ; qtot   -2.083
        21           o20bf         1   UNL       o20        21    -0.75533       15.9990 ; qtot   -2.838
        22           h21bf         1   UNL       h21        22     0.09173        1.0080 ; qtot   -2.747
        23           h22bf         1   UNL       h22        23     0.08575        1.0080 ; qtot   -2.661
        24           h23bf         1   UNL       h23        24     0.10818        1.0080 ; qtot   -2.553
        25           h24bf         1   UNL       h24        25     0.13373        1.0080 ; qtot   -2.419
        26           h25bf         1   UNL       h25        26     0.13437        1.0080 ; qtot   -2.285
        27           h26bf         1   UNL       h26        27     0.14424        1.0080 ; qtot   -2.140
        28           h27bf         1   UNL       h27        28     0.14424        1.0080 ; qtot   -1.996
        29           h28bf         1   UNL       h28        29     0.13437        1.0080 ; qtot   -1.862
        30           h29bf         1   UNL       h29        30     0.43092        1.0080 ; qtot   -1.431
        31           h30bf         1   UNL       h30        31     0.43092        1.0080 ; qtot   -1.000

[ bonds ]
;       ai        aj funct               r               k
         1         2     1        0.130778   361370.603955    ;  uncertainty r = 0.000176, k = 32.459970
         1         6     1        0.135400   366916.906592    ;  uncertainty r = 0.000241, k = 17.361955
         2         3     1        0.133392   331046.461279    ;  uncertainty r = 0.000387, k = 17.171859
         3         4     1        0.140518   326949.951416    ;  uncertainty r = 0.000176, k = 19.675333
         3        10     1        0.145042   270413.166211    ;  uncertainty r = 0.000278, k = 25.649536
         4         5     1        0.133035   420127.381152    ;  uncertainty r = 0.000119, k = 20.872352
         4        16     1        0.147775   265849.735840    ;  uncertainty r = 0.000153, k = 2.016089
         5         6     1        0.136102   532915.906348    ;  uncertainty r = 0.000140, k = 13.557526
         6        19     1        0.140058   625071.519727    ;  uncertainty r = 0.000422, k = 22.781256
         7         8     1        0.145255   385632.568848    ;  uncertainty r = 0.000099, k = 14.778488
         7        12     1        0.145594   283179.958838    ;  uncertainty r = 0.000167, k = 20.396882
         7        21     1        0.126610   521238.041602    ;  uncertainty r = 0.000041, k = 8.915490
         8         9     1        0.137745   373777.834082    ;  uncertainty r = 0.000237, k = 16.394935
         8        22     1        0.108837   335503.452979    ;  uncertainty r = 0.000058, k = 9.036662
         9        10     1        0.142062   341720.972998    ;  uncertainty r = 0.000140, k = 30.240766
         9        23     1        0.108824   330498.613672    ;  uncertainty r = 0.000069, k = 2.625970
        10        11     1        0.141740   337105.574609    ;  uncertainty r = 0.000130, k = 26.434050
        11        12     1        0.137659   354787.520215    ;  uncertainty r = 0.000192, k = 17.823947
        11        24     1        0.108678   331237.070264    ;  uncertainty r = 0.000070, k = 4.121268
        12        20     1        0.178138   168961.917334    ;  uncertainty r = 0.000080, k = 41.162267
        13        14     1        0.139638   371681.952441    ;  uncertainty r = 0.000015, k = 0.978306
        13        18     1        0.139638   371681.952441    ;  uncertainty r = 0.000015, k = 0.978306
        13        25     1        0.108841   334518.920801    ;  uncertainty r = 0.000012, k = 0.635598
        14        15     1        0.139410   364403.723047    ;  uncertainty r = 0.000027, k = 1.125537
        14        26     1        0.108844   333597.720654    ;  uncertainty r = 0.000013, k = 0.737651
        15        16     1        0.140052   345029.586426    ;  uncertainty r = 0.000032, k = 1.520525
        15        27     1        0.108717   333226.053564    ;  uncertainty r = 0.000015, k = 0.733478
        16        17     1        0.140052   345029.586426    ;  uncertainty r = 0.000032, k = 1.520525
        17        18     1        0.139410   364403.723047    ;  uncertainty r = 0.000027, k = 1.125537
        17        28     1        0.108717   333226.053564    ;  uncertainty r = 0.000015, k = 0.733478
        18        29     1        0.108844   333597.720654    ;  uncertainty r = 0.000013, k = 0.737651
        19        30     1        0.102196   439793.713379    ;  uncertainty r = 0.000076, k = 4.088413
        19        31     1        0.102196   439793.713379    ;  uncertainty r = 0.000076, k = 4.088413

[ angles ]
;       ai        aj        ak funct           theta             cth
         1         2         3     1      119.670692      630.162521    ;  uncertainty theta = 0.004994, k = 0.081906
         1         6         5     1      125.473976      667.166559    ;  uncertainty theta = 0.004399, k = 0.260032
         1         6        19     1      122.667969      687.926313    ;  uncertainty theta = 0.008559, k = 0.200162
         2         1         6     1      112.117577      575.313599    ;  uncertainty theta = 0.004635, k = 0.210273
         2         3         4     1      122.438087      527.918766    ;  uncertainty theta = 0.006833, k = 0.155496
         2         3        10     1      120.076683      453.040387    ;  uncertainty theta = 0.010883, k = 0.232393
         3         4         5     1      120.197853      520.144121    ;  uncertainty theta = 0.007111, k = 0.328475
         3         4        16     1      120.966980      335.211462    ;  uncertainty theta = 0.005415, k = 0.303688
         3        10         9     1      120.413879      366.116344    ;  uncertainty theta = 0.007754, k = 0.175222
         3        10        11     1      119.814537      358.144775    ;  uncertainty theta = 0.008961, k = 0.139422
         4         3        10     1      122.788437      341.435430    ;  uncertainty theta = 0.005969, k = 0.310752
         4         5         6     1      117.333641      426.968275    ;  uncertainty theta = 0.017496, k = 0.318744
         4        16        15     1      118.619736      365.704334    ;  uncertainty theta = 0.003070, k = 0.150298
         4        16        17     1      118.619736      365.704334    ;  uncertainty theta = 0.003070, k = 0.150298
         5         4        16     1      120.498230      469.984514    ;  uncertainty theta = 0.005482, k = 0.142607
         5         6        19     1      125.763504      798.173718    ;  uncertainty theta = 0.006180, k = 0.064188
         6        19        30     1      118.262405      443.776577    ;  uncertainty theta = 0.004875, k = 0.045402
         6        19        31     1      118.262405      443.776577    ;  uncertainty theta = 0.004875, k = 0.045402
         7         8         9     1      122.432480      475.946184    ;  uncertainty theta = 0.002796, k = 0.113526
         7         8        22     1      117.815834      298.475628    ;  uncertainty theta = 0.007143, k = 0.169952
         7        12        11     1      124.277916      402.362919    ;  uncertainty theta = 0.010003, k = 0.200525
         7        12        20     1      115.363052      378.184894    ;  uncertainty theta = 0.004879, k = 0.333080
         8         7        12     1      110.550026      336.656734    ;  uncertainty theta = 0.011679, k = 0.406975
         8         7        21     1      124.841942      571.847191    ;  uncertainty theta = 0.006607, k = 0.188990
         8         9        10     1      123.231247      513.342057    ;  uncertainty theta = 0.006100, k = 0.239825
         8         9        23     1      120.587326      299.357041    ;  uncertainty theta = 0.005137, k = 0.151901
         9         8        22     1      120.852951      282.623690    ;  uncertainty theta = 0.005576, k = 0.134097
         9        10        11     1      122.058105      443.017837    ;  uncertainty theta = 0.007472, k = 0.261488
        10         9        23     1      117.633530      274.356339    ;  uncertainty theta = 0.005304, k = 0.187289
        10        11        12     1      123.025406      473.497750    ;  uncertainty theta = 0.003680, k = 0.444494
        10        11        24     1      118.783447      266.971198    ;  uncertainty theta = 0.006256, k = 0.200263
        11        12        20     1      120.068031      407.305084    ;  uncertainty theta = 0.007530, k = 0.164141
        12         7        21     1      123.912354      507.761049    ;  uncertainty theta = 0.009767, k = 0.158127
        12        11        24     1      119.753174      288.156944    ;  uncertainty theta = 0.006148, k = 0.459629
        13        14        15     1      119.529297      515.813762    ;  uncertainty theta = 0.001865, k = 0.035586
        13        14        26     1      120.660217      288.604066    ;  uncertainty theta = 0.001135, k = 0.015010
        13        18        17     1      119.529297      515.813762    ;  uncertainty theta = 0.001865, k = 0.035586
        13        18        29     1      120.660217      288.604066    ;  uncertainty theta = 0.001135, k = 0.015010
        14        13        18     1      118.344101      527.921193    ;  uncertainty theta = 0.001138, k = 0.026327
        14        13        25     1      120.585655      288.470922    ;  uncertainty theta = 0.001777, k = 0.013074
        14        15        16     1      120.766884      528.404514    ;  uncertainty theta = 0.002344, k = 0.034155
        14        15        27     1      120.422874      292.742706    ;  uncertainty theta = 0.001561, k = 0.018301
        15        14        26     1      120.046219      284.619543    ;  uncertainty theta = 0.001720, k = 0.015559
        15        16        17     1      121.273514      438.081450    ;  uncertainty theta = 0.004734, k = 0.088958
        16        15        27     1      118.758041      275.494336    ;  uncertainty theta = 0.002279, k = 0.045416
        16        17        18     1      120.766884      528.404514    ;  uncertainty theta = 0.002344, k = 0.034155
        16        17        28     1      118.758041      275.494336    ;  uncertainty theta = 0.002279, k = 0.045416
        17        18        29     1      120.046219      284.619543    ;  uncertainty theta = 0.001720, k = 0.015559
        18        13        25     1      120.585655      288.470954    ;  uncertainty theta = 0.001777, k = 0.013074
        18        17        28     1      120.422874      292.742738    ;  uncertainty theta = 0.001561, k = 0.018301
        30        19        31     1      107.926712      266.053522    ;  uncertainty theta = 0.004368, k = 0.064560

[ dihedrals ] ; propers for gromacs 4.5 or higher, use funct 9
;       ai        aj        ak        al funct           phase               k        pn
         1         2         3         4     9        0.000000        1.831311         1    ;  uncertainty k = 1.464094
         1         2         3         4     9      180.000000       12.064561         2    ;  uncertainty k = 0.336074
         1         2         3         4     9        0.000000        2.153982         3    ;  uncertainty k = 0.315632
         1         2         3         4     9      180.000000        1.363726         4    ;  uncertainty k = 0.144623
         1         2         3        10     9        0.000000        1.501652         1    ;  uncertainty k = 1.139768
         1         2         3        10     9      180.000000       18.871212         2    ;  uncertainty k = 0.558439
         1         2         3        10     9        0.000000        2.905333         3    ;  uncertainty k = 0.441137
         1         2         3        10     9      180.000000        1.363067         4    ;  uncertainty k = 0.611113
         1         6         5         4     9        0.000000       -0.159502         1    ;  uncertainty k = 2.061285
         1         6         5         4     9      180.000000        3.831664         2    ;  uncertainty k = 1.625385
         1         6         5         4     9        0.000000        1.173384         3    ;  uncertainty k = 0.518495
         1         6         5         4     9      180.000000        0.562840         4    ;  uncertainty k = 0.479066
         1         6        19        30     9        0.000000       13.129111         1    ;  uncertainty k = 0.629667
         1         6        19        30     9      180.000000        9.756533         2    ;  uncertainty k = 0.245450
         1         6        19        30     9        0.000000        0.714123         3    ;  uncertainty k = 0.172606
         1         6        19        30     9      180.000000       -0.412217         4    ;  uncertainty k = 0.285718
         1         6        19        31     9        0.000000       13.129111         1    ;  uncertainty k = 0.629667
         1         6        19        31     9      180.000000        9.756533         2    ;  uncertainty k = 0.245450
         1         6        19        31     9        0.000000        0.714123         3    ;  uncertainty k = 0.172606
         1         6        19        31     9      180.000000       -0.412217         4    ;  uncertainty k = 0.285718
         2         1         6         5     9        0.000000        1.968898         1    ;  uncertainty k = 1.303642
         2         1         6         5     9      180.000000        5.539831         2    ;  uncertainty k = 1.934359
         2         1         6         5     9        0.000000        1.215088         3    ;  uncertainty k = 0.650296
         2         1         6         5     9      180.000000        1.068040         4    ;  uncertainty k = 0.490493
         2         1         6        19     9        0.000000        2.793109         1    ;  uncertainty k = 1.767061
         2         1         6        19     9      180.000000       10.325178         2    ;  uncertainty k = 0.754001
         2         1         6        19     9        0.000000        2.692809         3    ;  uncertainty k = 0.395811
         2         1         6        19     9      180.000000        0.982486         4    ;  uncertainty k = 0.243420
         2         3         4         5     9        0.000000       -0.810610         1    ;  uncertainty k = 0.576507
         2         3         4         5     9      180.000000        3.398163         2    ;  uncertainty k = 1.138156
         2         3         4         5     9        0.000000       -0.370052         3    ;  uncertainty k = 1.053421
         2         3         4         5     9      180.000000        0.534132         4    ;  uncertainty k = 0.594437
         2         3         4        16     9        0.000000       -1.443252         1    ;  uncertainty k = 1.202131
         2         3         4        16     9      180.000000        2.351433         2    ;  uncertainty k = 0.812863
         2         3         4        16     9        0.000000        0.051122         3    ;  uncertainty k = 0.843321
         2         3         4        16     9      180.000000        0.816632         4    ;  uncertainty k = 0.493631
         2         3        10         9     9        0.000000       -1.115000         1    ;  uncertainty k = 2.181008
         2         3        10         9     9      180.000000        8.522342         2    ;  uncertainty k = 0.585138
         2         3        10         9     9        0.000000        0.452273         3    ;  uncertainty k = 0.601715
         2         3        10         9     9      180.000000        0.042758         4    ;  uncertainty k = 0.412430
         2         3        10        11     9        0.000000       -1.411425         1    ;  uncertainty k = 2.345057
         2         3        10        11     9      180.000000        8.786865         2    ;  uncertainty k = 0.750307
         2         3        10        11     9        0.000000        0.482029         3    ;  uncertainty k = 0.607135
         2         3        10        11     9      180.000000        0.096883         4    ;  uncertainty k = 0.335306
         3         2         1         6     9        0.000000       -3.142821         1    ;  uncertainty k = 3.545774
         3         2         1         6     9      180.000000       31.031604         2    ;  uncertainty k = 0.566959
         3         2         1         6     9        0.000000       -0.054412         3    ;  uncertainty k = 1.274938
         3         2         1         6     9      180.000000       -0.523914         4    ;  uncertainty k = 1.473190
         3         4         5         6     9        0.000000        0.246461         1    ;  uncertainty k = 0.967695
         3         4         5         6     9      180.000000       13.685249         2    ;  uncertainty k = 0.557892
         3         4         5         6     9        0.000000        0.443295         3    ;  uncertainty k = 0.882038
         3         4         5         6     9      180.000000        1.351125         4    ;  uncertainty k = 0.487190
         3         4        16        15     9        0.000000       -0.238962         1    ;  uncertainty k = 0.863926
         3         4        16        15     9      180.000000        3.474352         2    ;  uncertainty k = 0.435657
         3         4        16        15     9        0.000000        0.525936         3    ;  uncertainty k = 0.184165
         3         4        16        15     9      180.000000        0.007086         4    ;  uncertainty k = 0.080251
         3         4        16        17     9        0.000000       -0.238962         1    ;  uncertainty k = 0.863926
         3         4        16        17     9      180.000000        3.474352         2    ;  uncertainty k = 0.435657
         3         4        16        17     9        0.000000        0.525936         3    ;  uncertainty k = 0.184165
         3         4        16        17     9      180.000000        0.007086         4    ;  uncertainty k = 0.080251
         3        10         9         8     9        0.000000       -0.247853         1    ;  uncertainty k = 0.210932
         3        10         9         8     9      180.000000        8.851467         2    ;  uncertainty k = 0.471401
         3        10         9         8     9        0.000000        0.812093         3    ;  uncertainty k = 0.150888
         3        10         9         8     9      180.000000        1.225691         4    ;  uncertainty k = 0.408415
         3        10         9        23     9        0.000000       -0.386440         1    ;  uncertainty k = 0.386714
         3        10         9        23     9      180.000000        7.264955         2    ;  uncertainty k = 0.585800
         3        10         9        23     9        0.000000        0.854007         3    ;  uncertainty k = 0.175463
         3        10         9        23     9      180.000000        0.557374         4    ;  uncertainty k = 0.260437
         3        10        11        12     9        0.000000        0.409045         1    ;  uncertainty k = 0.562897
         3        10        11        12     9      180.000000        9.339777         2    ;  uncertainty k = 0.415547
         3        10        11        12     9        0.000000        0.984224         3    ;  uncertainty k = 0.244507
         3        10        11        12     9      180.000000        1.229676         4    ;  uncertainty k = 0.380660
         3        10        11        24     9        0.000000       -0.384770         1    ;  uncertainty k = 0.698625
         3        10        11        24     9      180.000000        7.431376         2    ;  uncertainty k = 0.473933
         3        10        11        24     9        0.000000        0.866223         3    ;  uncertainty k = 0.118758
         3        10        11        24     9      180.000000        0.564092         4    ;  uncertainty k = 0.371680
         4         3        10         9     9        0.000000        0.700757         1    ;  uncertainty k = 1.641934
         4         3        10         9     9      180.000000        7.282395         2    ;  uncertainty k = 0.686587
         4         3        10         9     9        0.000000        1.207039         3    ;  uncertainty k = 0.326812
         4         3        10         9     9      180.000000       -0.018408         4    ;  uncertainty k = 0.134866
         4         3        10        11     9        0.000000        0.370705         1    ;  uncertainty k = 1.549990
         4         3        10        11     9      180.000000        7.843515         2    ;  uncertainty k = 0.648907
         4         3        10        11     9        0.000000        1.191093         3    ;  uncertainty k = 0.264500
         4         3        10        11     9      180.000000       -0.071176         4    ;  uncertainty k = 0.163762
         4         5         6        19     9        0.000000        0.323492         1    ;  uncertainty k = 0.573575
         4         5         6        19     9      180.000000        8.427377         2    ;  uncertainty k = 0.712989
         4         5         6        19     9        0.000000        2.103340         3    ;  uncertainty k = 0.347201
         4         5         6        19     9      180.000000        0.966007         4    ;  uncertainty k = 0.424542
         4        16        15        14     9        0.000000        0.244623         1    ;  uncertainty k = 0.364587
         4        16        15        14     9      180.000000        8.777576         2    ;  uncertainty k = 0.506605
         4        16        15        14     9        0.000000        1.204611         3    ;  uncertainty k = 0.317859
         4        16        15        14     9      180.000000        1.930500         4    ;  uncertainty k = 0.212294
         4        16        15        27     9        0.000000       -0.281068         1    ;  uncertainty k = 0.166996
         4        16        15        27     9      180.000000        7.429076         2    ;  uncertainty k = 0.523888
         4        16        15        27     9        0.000000        0.740308         3    ;  uncertainty k = 0.138975
         4        16        15        27     9      180.000000        1.219405         4    ;  uncertainty k = 0.164843
         4        16        17        18     9        0.000000        0.244623         1    ;  uncertainty k = 0.364587
         4        16        17        18     9      180.000000        8.777576         2    ;  uncertainty k = 0.506605
         4        16        17        18     9        0.000000        1.204611         3    ;  uncertainty k = 0.317859
         4        16        17        18     9      180.000000        1.930500         4    ;  uncertainty k = 0.212294
         4        16        17        28     9        0.000000       -0.281068         1    ;  uncertainty k = 0.166996
         4        16        17        28     9      180.000000        7.429076         2    ;  uncertainty k = 0.523888
         4        16        17        28     9        0.000000        0.740308         3    ;  uncertainty k = 0.138975
         4        16        17        28     9      180.000000        1.219405         4    ;  uncertainty k = 0.164843
         5         4         3        10     9        0.000000       -1.169577         1    ;  uncertainty k = 1.011548
         5         4         3        10     9      180.000000        4.201889         2    ;  uncertainty k = 1.816392
         5         4         3        10     9        0.000000        0.161075         3    ;  uncertainty k = 0.912692
         5         4         3        10     9      180.000000        0.496297         4    ;  uncertainty k = 0.591898
         5         4        16        15     9        0.000000        0.577089         1    ;  uncertainty k = 0.771269
         5         4        16        15     9      180.000000        5.298508         2    ;  uncertainty k = 0.334426
         5         4        16        15     9        0.000000        0.480066         3    ;  uncertainty k = 0.134057
         5         4        16        15     9      180.000000        0.149158         4    ;  uncertainty k = 0.112879
         5         4        16        17     9        0.000000        0.577089         1    ;  uncertainty k = 0.771269
         5         4        16        17     9      180.000000        5.298508         2    ;  uncertainty k = 0.334426
         5         4        16        17     9        0.000000        0.480066         3    ;  uncertainty k = 0.134057
         5         4        16        17     9      180.000000        0.149158         4    ;  uncertainty k = 0.112879
         5         6        19        30     9        0.000000       20.010442         1    ;  uncertainty k = 0.259650
         5         6        19        30     9      180.000000       10.182111         2    ;  uncertainty k = 0.370307
         5         6        19        30     9        0.000000        0.832804         3    ;  uncertainty k = 0.221692
         5         6        19        30     9      180.000000       -0.316472         4    ;  uncertainty k = 0.214044
         5         6        19        31     9        0.000000       20.010442         1    ;  uncertainty k = 0.259650
         5         6        19        31     9      180.000000       10.182111         2    ;  uncertainty k = 0.370307
         5         6        19        31     9        0.000000        0.832804         3    ;  uncertainty k = 0.221692
         5         6        19        31     9      180.000000       -0.316472         4    ;  uncertainty k = 0.214044
         6         5         4        16     9        0.000000        0.671482         1    ;  uncertainty k = 0.595294
         6         5         4        16     9      180.000000       15.998898         2    ;  uncertainty k = 0.727265
         6         5         4        16     9        0.000000        2.088123         3    ;  uncertainty k = 0.689736
         6         5         4        16     9      180.000000        1.669828         4    ;  uncertainty k = 0.442946
         7         8         9        10     9        0.000000       -0.193679         1    ;  uncertainty k = 0.693151
         7         8         9        10     9      180.000000       14.901412         2    ;  uncertainty k = 0.632909
         7         8         9        10     9        0.000000       -0.252778         3    ;  uncertainty k = 0.828020
         7         8         9        10     9      180.000000        1.082057         4    ;  uncertainty k = 0.547172
         7         8         9        23     9        0.000000        0.083952         1    ;  uncertainty k = 0.572271
         7         8         9        23     9      180.000000       11.066684         2    ;  uncertainty k = 0.344432
         7         8         9        23     9        0.000000        1.170393         3    ;  uncertainty k = 0.347946
         7         8         9        23     9      180.000000        1.218029         4    ;  uncertainty k = 0.372341
         7        12        11        10     9        0.000000       -0.183170         1    ;  uncertainty k = 0.482050
         7        12        11        10     9      180.000000       12.786715         2    ;  uncertainty k = 0.456564
         7        12        11        10     9        0.000000        0.438928         3    ;  uncertainty k = 0.607092
         7        12        11        10     9      180.000000        0.997776         4    ;  uncertainty k = 0.280856
         7        12        11        24     9        0.000000        0.147738         1    ;  uncertainty k = 0.375366
         7        12        11        24     9      180.000000        9.267537         2    ;  uncertainty k = 0.512077
         7        12        11        24     9        0.000000        1.262792         3    ;  uncertainty k = 0.333211
         7        12        11        24     9      180.000000        1.179338         4    ;  uncertainty k = 0.164917
         8         7        12        11     9        0.000000        0.191835         1    ;  uncertainty k = 1.847843
         8         7        12        11     9      180.000000        2.403736         2    ;  uncertainty k = 0.856473
         8         7        12        11     9        0.000000        0.579236         3    ;  uncertainty k = 0.691487
         8         7        12        11     9      180.000000        0.524593         4    ;  uncertainty k = 0.301613
         8         7        12        20     9        0.000000        1.054891         1    ;  uncertainty k = 0.894395
         8         7        12        20     9      180.000000        4.753151         2    ;  uncertainty k = 0.830365
         8         7        12        20     9        0.000000        1.121937         3    ;  uncertainty k = 0.316434
         8         7        12        20     9      180.000000        0.695690         4    ;  uncertainty k = 0.256672
         8         9        10        11     9        0.000000       -0.473893         1    ;  uncertainty k = 0.157727
         8         9        10        11     9      180.000000       10.775285         2    ;  uncertainty k = 0.237289
         8         9        10        11     9        0.000000       -0.536091         3    ;  uncertainty k = 0.422875
         8         9        10        11     9      180.000000        1.043702         4    ;  uncertainty k = 0.206347
         9         8         7        12     9        0.000000        0.228141         1    ;  uncertainty k = 0.903140
         9         8         7        12     9      180.000000        3.974753         2    ;  uncertainty k = 1.327691
         9         8         7        12     9        0.000000        0.699755         3    ;  uncertainty k = 0.541729
         9         8         7        12     9      180.000000        0.473102         4    ;  uncertainty k = 0.234822
         9         8         7        21     9        0.000000        0.842355         1    ;  uncertainty k = 1.596184
         9         8         7        21     9      180.000000        5.912429         2    ;  uncertainty k = 0.956953
         9         8         7        21     9        0.000000        0.554768         3    ;  uncertainty k = 0.346535
         9         8         7        21     9      180.000000        0.520989         4    ;  uncertainty k = 0.339290
         9        10        11        12     9        0.000000       -0.359084         1    ;  uncertainty k = 0.252277
         9        10        11        12     9      180.000000       11.333218         2    ;  uncertainty k = 0.547593
         9        10        11        12     9        0.000000       -0.821362         3    ;  uncertainty k = 0.625443
         9        10        11        12     9      180.000000        0.931604         4    ;  uncertainty k = 0.153108
         9        10        11        24     9        0.000000       -0.045204         1    ;  uncertainty k = 0.420769
         9        10        11        24     9      180.000000        8.312907         2    ;  uncertainty k = 0.279924
         9        10        11        24     9        0.000000        0.914186         3    ;  uncertainty k = 0.239629
         9        10        11        24     9      180.000000        1.028602         4    ;  uncertainty k = 0.188991
        10         3         4        16     9        0.000000       -0.112962         1    ;  uncertainty k = 1.132754
        10         3         4        16     9      180.000000        3.745142         2    ;  uncertainty k = 1.423083
        10         3         4        16     9        0.000000        0.656199         3    ;  uncertainty k = 0.646828
        10         3         4        16     9      180.000000        0.581906         4    ;  uncertainty k = 0.402812
        10         9         8        22     9        0.000000        0.530365         1    ;  uncertainty k = 0.763422
        10         9         8        22     9      180.000000       11.754155         2    ;  uncertainty k = 0.606869
        10         9         8        22     9        0.000000        1.254901         3    ;  uncertainty k = 0.347274
        10         9         8        22     9      180.000000        1.453417         4    ;  uncertainty k = 0.298961
        10        11        12        20     9        0.000000        0.295615         1    ;  uncertainty k = 0.640091
        10        11        12        20     9      180.000000       13.436340         2    ;  uncertainty k = 0.902470
        10        11        12        20     9        0.000000        1.696726         3    ;  uncertainty k = 0.390525
        10        11        12        20     9      180.000000        1.342459         4    ;  uncertainty k = 0.514089
        11        10         9        23     9        0.000000       -0.280843         1    ;  uncertainty k = 0.357016
        11        10         9        23     9      180.000000        8.369849         2    ;  uncertainty k = 0.411121
        11        10         9        23     9        0.000000        0.933015         3    ;  uncertainty k = 0.298838
        11        10         9        23     9      180.000000        0.968313         4    ;  uncertainty k = 0.199629
        11        12         7        21     9        0.000000        0.870436         1    ;  uncertainty k = 1.242197
        11        12         7        21     9      180.000000        4.557442         2    ;  uncertainty k = 0.559806
        11        12         7        21     9        0.000000        0.242972         3    ;  uncertainty k = 0.309031
        11        12         7        21     9      180.000000        0.547206         4    ;  uncertainty k = 0.313260
        12         7         8        22     9        0.000000        1.167746         1    ;  uncertainty k = 0.816394
        12         7         8        22     9      180.000000        4.669981         2    ;  uncertainty k = 0.887824
        12         7         8        22     9        0.000000        0.940451         3    ;  uncertainty k = 0.424010
        12         7         8        22     9      180.000000        0.607219         4    ;  uncertainty k = 0.205096
        13        14        15        16     9        0.000000       -0.085156         1    ;  uncertainty k = 0.101326
        13        14        15        16     9      180.000000       13.800477         2    ;  uncertainty k = 0.268312
        13        14        15        16     9        0.000000       -0.771380         3    ;  uncertainty k = 0.430279
        13        14        15        16     9      180.000000        0.763186         4    ;  uncertainty k = 0.221620
        13        14        15        27     9        0.000000        0.040792         1    ;  uncertainty k = 0.098340
        13        14        15        27     9      180.000000        7.829050         2    ;  uncertainty k = 0.220837
        13        14        15        27     9        0.000000        1.377807         3    ;  uncertainty k = 0.305455
        13        14        15        27     9      180.000000        1.862040         4    ;  uncertainty k = 0.175515
        13        18        17        16     9        0.000000       -0.085156         1    ;  uncertainty k = 0.101326
        13        18        17        16     9      180.000000       13.800477         2    ;  uncertainty k = 0.268312
        13        18        17        16     9        0.000000       -0.771380         3    ;  uncertainty k = 0.430279
        13        18        17        16     9      180.000000        0.763186         4    ;  uncertainty k = 0.221620
        13        18        17        28     9        0.000000        0.040792         1    ;  uncertainty k = 0.098340
        13        18        17        28     9      180.000000        7.829050         2    ;  uncertainty k = 0.220837
        13        18        17        28     9        0.000000        1.377807         3    ;  uncertainty k = 0.305455
        13        18        17        28     9      180.000000        1.862040         4    ;  uncertainty k = 0.175515
        14        13        18        17     9        0.000000       -0.039609         1    ;  uncertainty k = 0.058508
        14        13        18        17     9      180.000000       14.728850         2    ;  uncertainty k = 0.270498
        14        13        18        17     9        0.000000       -1.116008         3    ;  uncertainty k = 0.461534
        14        13        18        17     9      180.000000        0.570638         4    ;  uncertainty k = 0.262850
        14        13        18        29     9        0.000000        0.060280         1    ;  uncertainty k = 0.046484
        14        13        18        29     9      180.000000        7.580498         2    ;  uncertainty k = 0.301291
        14        13        18        29     9        0.000000        1.432917         3    ;  uncertainty k = 0.310397
        14        13        18        29     9      180.000000        1.808653         4    ;  uncertainty k = 0.112983
        14        15        16        17     9        0.000000       -0.228846         1    ;  uncertainty k = 0.099621
        14        15        16        17     9      180.000000       11.519585         2    ;  uncertainty k = 0.245642
        14        15        16        17     9        0.000000       -0.708965         3    ;  uncertainty k = 0.222667
        14        15        16        17     9      180.000000        0.889608         4    ;  uncertainty k = 0.283730
        15        14        13        18     9        0.000000       -0.039609         1    ;  uncertainty k = 0.058508
        15        14        13        18     9      180.000000       14.728850         2    ;  uncertainty k = 0.270498
        15        14        13        18     9        0.000000       -1.116008         3    ;  uncertainty k = 0.461534
        15        14        13        18     9      180.000000        0.570638         4    ;  uncertainty k = 0.262850
        15        14        13        25     9        0.000000        0.018696         1    ;  uncertainty k = 0.067612
        15        14        13        25     9      180.000000        7.446532         2    ;  uncertainty k = 0.246906
        15        14        13        25     9        0.000000        1.463058         3    ;  uncertainty k = 0.239087
        15        14        13        25     9      180.000000        1.786839         4    ;  uncertainty k = 0.161485
        15        16        17        18     9        0.000000       -0.228846         1    ;  uncertainty k = 0.099621
        15        16        17        18     9      180.000000       11.519585         2    ;  uncertainty k = 0.245642
        15        16        17        18     9        0.000000       -0.708965         3    ;  uncertainty k = 0.222667
        15        16        17        18     9      180.000000        0.889608         4    ;  uncertainty k = 0.283730
        15        16        17        28     9        0.000000        0.168842         1    ;  uncertainty k = 0.107557
        15        16        17        28     9      180.000000        7.056492         2    ;  uncertainty k = 0.442030
        15        16        17        28     9        0.000000        1.360330         3    ;  uncertainty k = 0.161756
        15        16        17        28     9      180.000000        1.681350         4    ;  uncertainty k = 0.250468
        16        15        14        26     9        0.000000        0.000276         1    ;  uncertainty k = 0.169363
        16        15        14        26     9      180.000000        7.621252         2    ;  uncertainty k = 0.320005
        16        15        14        26     9        0.000000        1.446360         3    ;  uncertainty k = 0.172877
        16        15        14        26     9      180.000000        1.823296         4    ;  uncertainty k = 0.150540
        16        17        18        29     9        0.000000        0.000276         1    ;  uncertainty k = 0.169363
        16        17        18        29     9      180.000000        7.621252         2    ;  uncertainty k = 0.320005
        16        17        18        29     9        0.000000        1.446360         3    ;  uncertainty k = 0.172877
        16        17        18        29     9      180.000000        1.823296         4    ;  uncertainty k = 0.150540
        17        16        15        27     9        0.000000        0.168842         1    ;  uncertainty k = 0.107557
        17        16        15        27     9      180.000000        7.056492         2    ;  uncertainty k = 0.442030
        17        16        15        27     9        0.000000        1.360330         3    ;  uncertainty k = 0.161756
        17        16        15        27     9      180.000000        1.681350         4    ;  uncertainty k = 0.250468
        17        18        13        25     9        0.000000        0.018696         1    ;  uncertainty k = 0.067612
        17        18        13        25     9      180.000000        7.446532         2    ;  uncertainty k = 0.246906
        17        18        13        25     9        0.000000        1.463058         3    ;  uncertainty k = 0.239087
        17        18        13        25     9      180.000000        1.786839         4    ;  uncertainty k = 0.161485
        18        13        14        26     9        0.000000        0.060280         1    ;  uncertainty k = 0.046484
        18        13        14        26     9      180.000000        7.580498         2    ;  uncertainty k = 0.301291
        18        13        14        26     9        0.000000        1.432917         3    ;  uncertainty k = 0.310397
        18        13        14        26     9      180.000000        1.808653         4    ;  uncertainty k = 0.112983
        20        12         7        21     9        0.000000       -1.126701         1    ;  uncertainty k = 1.096027
        20        12         7        21     9      180.000000        9.688040         2    ;  uncertainty k = 0.597521
        20        12         7        21     9        0.000000        0.238924         3    ;  uncertainty k = 0.426951
        20        12         7        21     9      180.000000        0.542168         4    ;  uncertainty k = 0.471740
        20        12        11        24     9        0.000000       -0.307117         1    ;  uncertainty k = 0.322478
        20        12        11        24     9      180.000000        9.452381         2    ;  uncertainty k = 0.716190
        20        12        11        24     9        0.000000        1.119927         3    ;  uncertainty k = 0.223336
        20        12        11        24     9      180.000000        1.092990         4    ;  uncertainty k = 0.497855
        21         7         8        22     9        0.000000       -0.034238         1    ;  uncertainty k = 1.844115
        21         7         8        22     9      180.000000        7.828016         2    ;  uncertainty k = 0.970550
        21         7         8        22     9        0.000000        0.663447         3    ;  uncertainty k = 0.379293
        21         7         8        22     9      180.000000        0.501259         4    ;  uncertainty k = 0.314846
        22         8         9        23     9        0.000000       -0.011889         1    ;  uncertainty k = 0.254573
        22         8         9        23     9      180.000000        9.178127         2    ;  uncertainty k = 1.039708
        22         8         9        23     9        0.000000        0.541253         3    ;  uncertainty k = 0.238587
        22         8         9        23     9      180.000000        0.474827         4    ;  uncertainty k = 0.500193
        25        13        14        26     9        0.000000       -0.086959         1    ;  uncertainty k = 0.086880
        25        13        14        26     9      180.000000        7.713489         2    ;  uncertainty k = 0.410363
        25        13        14        26     9        0.000000       -0.420918         3    ;  uncertainty k = 0.300483
        25        13        14        26     9      180.000000        0.039571         4    ;  uncertainty k = 0.147961
        25        13        18        29     9        0.000000       -0.086959         1    ;  uncertainty k = 0.086880
        25        13        18        29     9      180.000000        7.713489         2    ;  uncertainty k = 0.410363
        25        13        18        29     9        0.000000       -0.420918         3    ;  uncertainty k = 0.300483
        25        13        18        29     9      180.000000        0.039571         4    ;  uncertainty k = 0.147961
        26        14        15        27     9        0.000000       -0.159865         1    ;  uncertainty k = 0.133584
        26        14        15        27     9      180.000000        7.859188         2    ;  uncertainty k = 0.325421
        26        14        15        27     9        0.000000       -0.450050         3    ;  uncertainty k = 0.281622
        26        14        15        27     9      180.000000        0.154829         4    ;  uncertainty k = 0.122641
        28        17        18        29     9        0.000000       -0.159865         1    ;  uncertainty k = 0.133584
        28        17        18        29     9      180.000000        7.859188         2    ;  uncertainty k = 0.325421
        28        17        18        29     9        0.000000       -0.450050         3    ;  uncertainty k = 0.281622
        28        17        18        29     9      180.000000        0.154829         4    ;  uncertainty k = 0.122641

[ dihedrals ] ; impropers
;       ai        aj        ak        al funct           phase               k        pn
         3         2         4        10     4      180.000000       21.346115         2    ;  uncertainty k = 0.193034
         3         4        10         2     4      180.000000       21.346115         2    ;  uncertainty k = 0.193034
         3        10         2         4     4      180.000000       21.346115         2    ;  uncertainty k = 0.193034
         4         3         5        16     4      180.000000       29.582233         2    ;  uncertainty k = 0.036972
         4         5        16         3     4      180.000000       29.582233         2    ;  uncertainty k = 0.036972
         4        16         3         5     4      180.000000       29.582233         2    ;  uncertainty k = 0.036972
         6         1         5        19     4      180.000000       43.323642         2    ;  uncertainty k = 0.063442
         6         5        19         1     4      180.000000       43.323642         2    ;  uncertainty k = 0.063442
         6        19         1         5     4      180.000000       43.323642         2    ;  uncertainty k = 0.063442
         7         8        12        21     4      180.000000       43.166874         2    ;  uncertainty k = 0.097725
         7        12        21         8     4      180.000000       43.166874         2    ;  uncertainty k = 0.097725
         7        21         8        12     4      180.000000       43.166874         2    ;  uncertainty k = 0.097725
         8         7         9        22     4      180.000000        0.941776         2    ;  uncertainty k = 1.068997
         8         9        22         7     4      180.000000        0.941776         2    ;  uncertainty k = 1.068997
         8        22         7         9     4      180.000000        0.941776         2    ;  uncertainty k = 1.068997
         9         8        10        23     4      180.000000        5.141667         2    ;  uncertainty k = 0.435646
         9        10        23         8     4      180.000000        5.141667         2    ;  uncertainty k = 0.435646
         9        23         8        10     4      180.000000        5.141667         2    ;  uncertainty k = 0.435646
        10         3         9        11     4      180.000000        2.371453         2    ;  uncertainty k = 1.362093
        10         9        11         3     4      180.000000        2.371453         2    ;  uncertainty k = 1.362093
        10        11         3         9     4      180.000000        2.371453         2    ;  uncertainty k = 1.362093
        11        10        12        24     4      180.000000        5.255584         2    ;  uncertainty k = 0.377978
        11        12        24        10     4      180.000000        5.255584         2    ;  uncertainty k = 0.377978
        11        24        10        12     4      180.000000        5.255584         2    ;  uncertainty k = 0.377978
        12         7        11        20     4      180.000000        4.376757         2    ;  uncertainty k = 0.645909
        12        11        20         7     4      180.000000        4.376757         2    ;  uncertainty k = 0.645909
        12        20         7        11     4      180.000000        4.376757         2    ;  uncertainty k = 0.645909
        13        14        18        25     4      180.000000        4.673371         2    ;  uncertainty k = 0.190293
        13        18        25        14     4      180.000000        4.673371         2    ;  uncertainty k = 0.190293
        13        25        14        18     4      180.000000        4.673371         2    ;  uncertainty k = 0.190293
        14        13        15        26     4      180.000000        4.310919         2    ;  uncertainty k = 0.072052
        14        15        26        13     4      180.000000        4.310919         2    ;  uncertainty k = 0.072052
        14        26        13        15     4      180.000000        4.310919         2    ;  uncertainty k = 0.072052
        15        14        16        27     4      180.000000        4.275767         2    ;  uncertainty k = 0.092511
        15        16        27        14     4      180.000000        4.275767         2    ;  uncertainty k = 0.092511
        15        27        14        16     4      180.000000        4.275767         2    ;  uncertainty k = 0.092511
        16         4        15        17     4      180.000000       10.064639         2    ;  uncertainty k = 0.105291
        16        15        17         4     4      180.000000       10.064639         2    ;  uncertainty k = 0.105291
        16        17         4        15     4      180.000000       10.064639         2    ;  uncertainty k = 0.105291
        17        16        18        28     4      180.000000        4.275767         2    ;  uncertainty k = 0.092511
        17        18        28        16     4      180.000000        4.275767         2    ;  uncertainty k = 0.092511
        17        28        16        18     4      180.000000        4.275767         2    ;  uncertainty k = 0.092511
        18        13        17        29     4      180.000000        4.310919         2    ;  uncertainty k = 0.072052
        18        17        29        13     4      180.000000        4.310919         2    ;  uncertainty k = 0.072052
        18        29        13        17     4      180.000000        4.310919         2    ;  uncertainty k = 0.072052
        19         6        30        31     4      180.000000        0.390383         2    ;  uncertainty k = 0.522838
        19        30        31         6     4      180.000000        0.390383         2    ;  uncertainty k = 0.522838
        19        31         6        30     4      180.000000        0.390383         2    ;  uncertainty k = 0.522838

[ pairs ]
;       ai        aj funct
         1         4     1
         1        10     1
         1        30     1
         1        31     1
         2         5     1
         2         9     1
         2        11     1
         2        16     1
         2        19     1
         3         6     1
         3         8     1
         3        12     1
         3        15     1
         3        17     1
         3        23     1
         3        24     1
         4         9     1
         4        11     1
         4        14     1
         4        18     1
         4        19     1
         4        27     1
         4        28     1
         5        10     1
         5        15     1
         5        17     1
         5        30     1
         5        31     1
         6        16     1
         7        10     1
         7        23     1
         7        24     1
         8        11     1
         8        20     1
         9        12     1
         9        21     1
         9        24     1
        10        16     1
        10        20     1
        10        22     1
        11        21     1
        11        23     1
        12        22     1
        13        16     1
        13        27     1
        13        28     1
        14        17     1
        14        29     1
        15        18     1
        15        25     1
        15        28     1
        16        26     1
        16        29     1
        17        25     1
        17        27     1
        18        26     1
        20        21     1
        20        24     1
        21        22     1
        22        23     1
        25        26     1
        25        29     1
        26        27     1
        28        29     1
