; ITP file created by ByteFF-joint-25, 2025-07-14 11:28:12.749074

[ atomtypes ]
;name           bonded.type        at.num        mass        charge   ptype           sigma         epsilon
 n0bf                                   7      0.0000       0.00000       A     3.38457e-01     3.93065e-01    ;  uncertainty sigma = 0.000033, epsilon = 0.002906
 n1bf                                   7      0.0000       0.00000       A     3.38476e-01     3.93713e-01    ;  uncertainty sigma = 0.000022, epsilon = 0.001198
 c2bf                                   6      0.0000       0.00000       A     3.31528e-01     4.12725e-01    ;  uncertainty sigma = 0.000022, epsilon = 0.001379
 c3bf                                   6      0.0000       0.00000       A     3.31532e-01     4.12868e-01    ;  uncertainty sigma = 0.000013, epsilon = 0.000681
 n4bf                                   7      0.0000       0.00000       A     3.38467e-01     3.94052e-01    ;  uncertainty sigma = 0.000030, epsilon = 0.001987
 c5bf                                   6      0.0000       0.00000       A     3.31538e-01     4.13311e-01    ;  uncertainty sigma = 0.000020, epsilon = 0.001585
 c6bf                                   6      0.0000       0.00000       A     3.31520e-01     4.13030e-01    ;  uncertainty sigma = 0.000014, epsilon = 0.000840
 c7bf                                   6      0.0000       0.00000       A     3.31492e-01     4.13447e-01    ;  uncertainty sigma = 0.000010, epsilon = 0.000773
 c8bf                                   6      0.0000       0.00000       A     3.31525e-01     4.13532e-01    ;  uncertainty sigma = 0.000004, epsilon = 0.000902
 c9bf                                   6      0.0000       0.00000       A     3.31572e-01     4.13073e-01    ;  uncertainty sigma = 0.000024, epsilon = 0.000868
 c10bf                                  6      0.0000       0.00000       A     3.31525e-01     4.13532e-01    ;  uncertainty sigma = 0.000004, epsilon = 0.000902
 c11bf                                  6      0.0000       0.00000       A     3.31492e-01     4.13447e-01    ;  uncertainty sigma = 0.000010, epsilon = 0.000773
 c12bf                                  6      0.0000       0.00000       A     3.31518e-01     4.13340e-01    ;  uncertainty sigma = 0.000003, epsilon = 0.000580
 c13bf                                  6      0.0000       0.00000       A     3.31519e-01     4.13380e-01    ;  uncertainty sigma = 0.000002, epsilon = 0.000627
 c14bf                                  6      0.0000       0.00000       A     3.31517e-01     4.13568e-01    ;  uncertainty sigma = 0.000002, epsilon = 0.000944
 c15bf                                  6      0.0000       0.00000       A     3.31548e-01     4.13550e-01    ;  uncertainty sigma = 0.000019, epsilon = 0.000920
 c16bf                                  6      0.0000       0.00000       A     3.31517e-01     4.13568e-01    ;  uncertainty sigma = 0.000002, epsilon = 0.000944
 c17bf                                  6      0.0000       0.00000       A     3.31519e-01     4.13380e-01    ;  uncertainty sigma = 0.000002, epsilon = 0.000627
 n18bf                                  7      0.0000       0.00000       A     3.36801e-01     4.68954e-01    ;  uncertainty sigma = 0.000066, epsilon = 0.001925
 o19bf                                  8      0.0000       0.00000       A     3.24300e-01     3.88534e-01    ;  uncertainty sigma = 0.000019, epsilon = 0.001228
 h20bf                                  1      0.0000       0.00000       A     2.62561e-01     6.71760e-02    ;  uncertainty sigma = 0.000016, epsilon = 0.000555
 h21bf                                  1      0.0000       0.00000       A     2.62561e-01     6.71760e-02    ;  uncertainty sigma = 0.000016, epsilon = 0.000555
 h22bf                                  1      0.0000       0.00000       A     2.62552e-01     6.70645e-02    ;  uncertainty sigma = 0.000011, epsilon = 0.000453
 h23bf                                  1      0.0000       0.00000       A     2.62559e-01     6.70250e-02    ;  uncertainty sigma = 0.000010, epsilon = 0.000440
 h24bf                                  1      0.0000       0.00000       A     2.62560e-01     6.70283e-02    ;  uncertainty sigma = 0.000012, epsilon = 0.000523
 h25bf                                  1      0.0000       0.00000       A     2.62560e-01     6.70283e-02    ;  uncertainty sigma = 0.000012, epsilon = 0.000523
 h26bf                                  1      0.0000       0.00000       A     2.62559e-01     6.70250e-02    ;  uncertainty sigma = 0.000010, epsilon = 0.000440
 h27bf                                  1      0.0000       0.00000       A     1.10728e-01     4.07631e-02    ;  uncertainty sigma = 0.000034, epsilon = 0.001087
 h28bf                                  1      0.0000       0.00000       A     1.10728e-01     4.07631e-02    ;  uncertainty sigma = 0.000034, epsilon = 0.001087
 h29bf                                  1      0.0000       0.00000       A     5.37975e-02     1.93048e-02    ;  uncertainty sigma = 0.000111, epsilon = 0.000495
 c30bf                                  6      0.0000       0.00000       A     3.39774e-01     4.50762e-01    ;  uncertainty sigma = 0.000008, epsilon = 0.000610
 h31bf                                  1      0.0000       0.00000       A     2.60028e-01     8.67155e-02    ;  uncertainty sigma = 0.000005, epsilon = 0.000425
 h32bf                                  1      0.0000       0.00000       A     2.60028e-01     8.67155e-02    ;  uncertainty sigma = 0.000005, epsilon = 0.000425
 h33bf                                  1      0.0000       0.00000       A     2.60028e-01     8.67155e-02    ;  uncertainty sigma = 0.000005, epsilon = 0.000425
 c34bf                                  6      0.0000       0.00000       A     3.39774e-01     4.50762e-01    ;  uncertainty sigma = 0.000008, epsilon = 0.000610
 h35bf                                  1      0.0000       0.00000       A     2.60028e-01     8.67155e-02    ;  uncertainty sigma = 0.000005, epsilon = 0.000425
 h36bf                                  1      0.0000       0.00000       A     2.60028e-01     8.67155e-02    ;  uncertainty sigma = 0.000005, epsilon = 0.000425
 h37bf                                  1      0.0000       0.00000       A     2.60028e-01     8.67154e-02    ;  uncertainty sigma = 0.000005, epsilon = 0.000425

[ moleculetype ]
;name             nrexcl
 MOL                   3

[ atoms ]
;       nr            type      resi   res      atom      cgnr      charge          mass ; qtot
         1            n0bf         1   UNL        n0         1    -0.40685       14.0070 ; qtot   -0.407
         2            n1bf         1   UNL        n1         2    -0.25534       14.0070 ; qtot   -0.662
         3            c2bf         1   UNL        c2         3     0.26995       12.0110 ; qtot   -0.392
         4            c3bf         1   UNL        c3         4     0.46622       12.0110 ; qtot    0.074
         5            n4bf         1   UNL        n4         5    -0.73822       14.0070 ; qtot   -0.664
         6            c5bf         1   UNL        c5         6     0.82167       12.0110 ; qtot    0.157
         7            c6bf         1   UNL        c6         7     0.14498       12.0110 ; qtot    0.302
         8            c7bf         1   UNL        c7         8    -0.13606       12.0110 ; qtot    0.166
         9            c8bf         1   UNL        c8         9    -0.06666       12.0110 ; qtot    0.100
        10            c9bf         1   UNL        c9        10    -0.17615       12.0110 ; qtot   -0.076
        11           c10bf         1   UNL       c10        11    -0.06666       12.0110 ; qtot   -0.143
        12           c11bf         1   UNL       c11        12    -0.13606       12.0110 ; qtot   -0.279
        13           c12bf         1   UNL       c12        13    -0.11402       12.0110 ; qtot   -0.393
        14           c13bf         1   UNL       c13        14    -0.13628       12.0110 ; qtot   -0.529
        15           c14bf         1   UNL       c14        15    -0.09093       12.0110 ; qtot   -0.620
        16           c15bf         1   UNL       c15        16    -0.17251       12.0110 ; qtot   -0.793
        17           c16bf         1   UNL       c16        17    -0.09093       12.0110 ; qtot   -0.884
        18           c17bf         1   UNL       c17        18    -0.13628       12.0110 ; qtot   -1.020
        19           n18bf         1   UNL       n18        19    -0.92625       14.0070 ; qtot   -1.946
        20           o19bf         1   UNL       o19        20    -0.50437       15.9990 ; qtot   -2.451
        21           h20bf         1   UNL       h20        21     0.14559        1.0080 ; qtot   -2.305
        22           h21bf         1   UNL       h21        22     0.14559        1.0080 ; qtot   -2.160
        23           h22bf         1   UNL       h22        23     0.13373        1.0080 ; qtot   -2.026
        24           h23bf         1   UNL       h23        24     0.13437        1.0080 ; qtot   -1.891
        25           h24bf         1   UNL       h24        25     0.14424        1.0080 ; qtot   -1.747
        26           h25bf         1   UNL       h25        26     0.14424        1.0080 ; qtot   -1.603
        27           h26bf         1   UNL       h26        27     0.13437        1.0080 ; qtot   -1.469
        28           h27bf         1   UNL       h27        28     0.43092        1.0080 ; qtot   -1.038
        29           h28bf         1   UNL       h28        29     0.43092        1.0080 ; qtot   -0.607
        30           h29bf         1   UNL       h29        30     0.42362        1.0080 ; qtot   -0.183
        31           c30bf         1   UNL       c30        31    -0.04167       12.0110 ; qtot   -0.225
        32           h31bf         1   UNL       h31        32     0.04441        1.0080 ; qtot   -0.180
        33           h32bf         1   UNL       h32        33     0.04441        1.0080 ; qtot   -0.136
        34           h33bf         1   UNL       h33        34     0.04441        1.0080 ; qtot   -0.092
        35           c34bf         1   UNL       c34        35    -0.04167       12.0110 ; qtot   -0.133
        36           h35bf         1   UNL       h35        36     0.04441        1.0080 ; qtot   -0.089
        37           h36bf         1   UNL       h36        37     0.04441        1.0080 ; qtot   -0.044
        38           h37bf         1   UNL       h37        38     0.04445        1.0080 ; qtot   -0.000

[ bonds ]
;       ai        aj funct               r               k
         1         2     1        0.130778   361370.603955    ;  uncertainty r = 0.000176, k = 32.459970
         1         6     1        0.135400   366916.906592    ;  uncertainty r = 0.000241, k = 17.361955
         2         3     1        0.133398   330514.191309    ;  uncertainty r = 0.000367, k = 18.461655
         3         4     1        0.140591   328928.004834    ;  uncertainty r = 0.000160, k = 20.263695
         3        10     1        0.147713   268817.096875    ;  uncertainty r = 0.000064, k = 9.982108
         4         5     1        0.133035   420127.381152    ;  uncertainty r = 0.000119, k = 20.872352
         4        16     1        0.147775   265849.735840    ;  uncertainty r = 0.000153, k = 2.016089
         5         6     1        0.136102   532915.906348    ;  uncertainty r = 0.000140, k = 13.557526
         6        19     1        0.140058   625071.519727    ;  uncertainty r = 0.000422, k = 22.781256
         7         8     1        0.140327   339454.707764    ;  uncertainty r = 0.000053, k = 6.487147
         7        12     1        0.140327   339454.707764    ;  uncertainty r = 0.000053, k = 6.487147
         7        20     1        0.137908   343335.658887    ;  uncertainty r = 0.000124, k = 7.100720
         8         9     1        0.139278   356995.356543    ;  uncertainty r = 0.000033, k = 3.677336
         8        35     1        0.150966   235380.312549    ;  uncertainty r = 0.000023, k = 6.437828
         9        10     1        0.140150   346505.529199    ;  uncertainty r = 0.000023, k = 2.719679
         9        21     1        0.108671   333177.890576    ;  uncertainty r = 0.000023, k = 0.551984
        10        11     1        0.140150   346505.529199    ;  uncertainty r = 0.000023, k = 2.719679
        11        12     1        0.139278   356995.356543    ;  uncertainty r = 0.000033, k = 3.677336
        11        22     1        0.108671   333177.890576    ;  uncertainty r = 0.000023, k = 0.551984
        12        31     1        0.150966   235380.312549    ;  uncertainty r = 0.000023, k = 6.437828
        13        14     1        0.139638   371681.952441    ;  uncertainty r = 0.000015, k = 0.978306
        13        18     1        0.139638   371681.952441    ;  uncertainty r = 0.000015, k = 0.978306
        13        23     1        0.108841   334518.920801    ;  uncertainty r = 0.000012, k = 0.635598
        14        15     1        0.139410   364403.723047    ;  uncertainty r = 0.000027, k = 1.125537
        14        24     1        0.108844   333597.720654    ;  uncertainty r = 0.000013, k = 0.737651
        15        16     1        0.140052   345029.586426    ;  uncertainty r = 0.000032, k = 1.520525
        15        25     1        0.108717   333226.053564    ;  uncertainty r = 0.000015, k = 0.733478
        16        17     1        0.140052   345029.586426    ;  uncertainty r = 0.000032, k = 1.520525
        17        18     1        0.139410   364403.723047    ;  uncertainty r = 0.000027, k = 1.125537
        17        26     1        0.108717   333226.053564    ;  uncertainty r = 0.000015, k = 0.733478
        18        27     1        0.108844   333597.720654    ;  uncertainty r = 0.000013, k = 0.737651
        19        28     1        0.102196   439793.713379    ;  uncertainty r = 0.000076, k = 4.088413
        19        29     1        0.102196   439793.713379    ;  uncertainty r = 0.000076, k = 4.088413
        20        30     1        0.097316   468157.933984    ;  uncertainty r = 0.000029, k = 7.316843
        31        32     1        0.109554   308542.062402    ;  uncertainty r = 0.000010, k = 1.353317
        31        33     1        0.109554   308542.062402    ;  uncertainty r = 0.000010, k = 1.353317
        31        34     1        0.109554   308542.062402    ;  uncertainty r = 0.000010, k = 1.353317
        35        36     1        0.109554   308542.062402    ;  uncertainty r = 0.000010, k = 1.353317
        35        37     1        0.109554   308542.062402    ;  uncertainty r = 0.000010, k = 1.353317
        35        38     1        0.109554   308542.062402    ;  uncertainty r = 0.000010, k = 1.353317

[ angles ]
;       ai        aj        ak funct           theta             cth
         1         2         3     1      119.647423      633.282645    ;  uncertainty theta = 0.004665, k = 0.096723
         1         6         5     1      125.473976      667.166559    ;  uncertainty theta = 0.004399, k = 0.260032
         1         6        19     1      122.667969      687.926313    ;  uncertainty theta = 0.008559, k = 0.200162
         2         1         6     1      112.117577      575.313599    ;  uncertainty theta = 0.004635, k = 0.210273
         2         3         4     1      122.350121      528.293779    ;  uncertainty theta = 0.007125, k = 0.147236
         2         3        10     1      116.706985      447.566954    ;  uncertainty theta = 0.006102, k = 0.211627
         3         4         5     1      120.257675      521.462506    ;  uncertainty theta = 0.007652, k = 0.337827
         3         4        16     1      121.041710      335.833482    ;  uncertainty theta = 0.005540, k = 0.307905
         3        10         9     1      120.325050      369.488455    ;  uncertainty theta = 0.003662, k = 0.110936
         3        10        11     1      120.325050      369.488455    ;  uncertainty theta = 0.003662, k = 0.110936
         4         3        10     1      121.293739      347.843584    ;  uncertainty theta = 0.005605, k = 0.339615
         4         5         6     1      117.333641      426.968275    ;  uncertainty theta = 0.017496, k = 0.318744
         4        16        15     1      118.619736      365.704334    ;  uncertainty theta = 0.003070, k = 0.150298
         4        16        17     1      118.619736      365.704334    ;  uncertainty theta = 0.003070, k = 0.150298
         5         4        16     1      120.498230      469.984514    ;  uncertainty theta = 0.005482, k = 0.142607
         5         6        19     1      125.763504      798.173718    ;  uncertainty theta = 0.006180, k = 0.064188
         6        19        28     1      118.262405      443.776577    ;  uncertainty theta = 0.004875, k = 0.045402
         6        19        29     1      118.262405      443.776577    ;  uncertainty theta = 0.004875, k = 0.045402
         7         8         9     1      119.299782      463.871792    ;  uncertainty theta = 0.004468, k = 0.137216
         7         8        35     1      118.853615      401.354841    ;  uncertainty theta = 0.002779, k = 0.241700
         7        12        11     1      119.299782      463.871792    ;  uncertainty theta = 0.004468, k = 0.137216
         7        12        31     1      118.853615      401.354841    ;  uncertainty theta = 0.002779, k = 0.241700
         7        20        30     1      108.472145      467.604296    ;  uncertainty theta = 0.003078, k = 0.039053
         8         7        12     1      123.109901      392.905346    ;  uncertainty theta = 0.010003, k = 0.160695
         8         7        20     1      120.115440      508.563521    ;  uncertainty theta = 0.009746, k = 0.305047
         8         9        10     1      122.354149      532.903866    ;  uncertainty theta = 0.000865, k = 0.106975
         8         9        21     1      118.030228      275.993395    ;  uncertainty theta = 0.001014, k = 0.065356
         8        35        36     1      110.083008      389.017832    ;  uncertainty theta = 0.001049, k = 0.060396
         8        35        37     1      110.083008      389.017832    ;  uncertainty theta = 0.001049, k = 0.060396
         8        35        38     1      110.083008      389.017832    ;  uncertainty theta = 0.001049, k = 0.060396
         9         8        35     1      121.329758      416.806037    ;  uncertainty theta = 0.001221, k = 0.032472
         9        10        11     1      121.147621      448.983817    ;  uncertainty theta = 0.004329, k = 0.180939
        10         9        21     1      118.545853      277.484890    ;  uncertainty theta = 0.002786, k = 0.064188
        10        11        12     1      122.354149      532.903866    ;  uncertainty theta = 0.000865, k = 0.106975
        10        11        22     1      118.545853      277.484890    ;  uncertainty theta = 0.002786, k = 0.064188
        11        12        31     1      121.329758      416.806037    ;  uncertainty theta = 0.001221, k = 0.032472
        12         7        20     1      120.115440      508.563521    ;  uncertainty theta = 0.009746, k = 0.305047
        12        11        22     1      118.030228      275.993395    ;  uncertainty theta = 0.001014, k = 0.065356
        12        31        32     1      110.083008      389.017832    ;  uncertainty theta = 0.001049, k = 0.060396
        12        31        33     1      110.083008      389.017832    ;  uncertainty theta = 0.001049, k = 0.060396
        12        31        34     1      110.083008      389.017832    ;  uncertainty theta = 0.001049, k = 0.060396
        13        14        15     1      119.529312      515.813762    ;  uncertainty theta = 0.001865, k = 0.035586
        13        14        24     1      120.660202      288.604066    ;  uncertainty theta = 0.001135, k = 0.015010
        13        18        17     1      119.529312      515.813762    ;  uncertainty theta = 0.001865, k = 0.035586
        13        18        27     1      120.660202      288.604066    ;  uncertainty theta = 0.001135, k = 0.015010
        14        13        18     1      118.344101      527.921193    ;  uncertainty theta = 0.001138, k = 0.026327
        14        13        23     1      120.585655      288.470954    ;  uncertainty theta = 0.001777, k = 0.013074
        14        15        16     1      120.766869      528.404514    ;  uncertainty theta = 0.002344, k = 0.034155
        14        15        25     1      120.422890      292.742738    ;  uncertainty theta = 0.001561, k = 0.018301
        15        14        24     1      120.046219      284.619543    ;  uncertainty theta = 0.001720, k = 0.015559
        15        16        17     1      121.273514      438.081450    ;  uncertainty theta = 0.004734, k = 0.088958
        16        15        25     1      118.758057      275.494336    ;  uncertainty theta = 0.002279, k = 0.045416
        16        17        18     1      120.766869      528.404514    ;  uncertainty theta = 0.002344, k = 0.034155
        16        17        26     1      118.758057      275.494336    ;  uncertainty theta = 0.002279, k = 0.045416
        17        18        27     1      120.046219      284.619543    ;  uncertainty theta = 0.001720, k = 0.015559
        18        13        23     1      120.585655      288.470954    ;  uncertainty theta = 0.001777, k = 0.013074
        18        17        26     1      120.422890      292.742738    ;  uncertainty theta = 0.001561, k = 0.018301
        28        19        29     1      107.926712      266.053490    ;  uncertainty theta = 0.004368, k = 0.064560
        32        31        33     1      106.661057      315.238601    ;  uncertainty theta = 0.000957, k = 0.021189
        32        31        34     1      106.661057      315.238601    ;  uncertainty theta = 0.000957, k = 0.021189
        33        31        34     1      106.661057      315.238601    ;  uncertainty theta = 0.000957, k = 0.021189
        36        35        37     1      106.661057      315.238601    ;  uncertainty theta = 0.000957, k = 0.021189
        36        35        38     1      106.661057      315.238601    ;  uncertainty theta = 0.000957, k = 0.021189
        37        35        38     1      106.661057      315.238601    ;  uncertainty theta = 0.000957, k = 0.021189

[ dihedrals ] ; propers for gromacs 4.5 or higher, use funct 9
;       ai        aj        ak        al funct           phase               k        pn
         1         2         3         4     9        0.000000        1.826603         1    ;  uncertainty k = 1.475359
         1         2         3         4     9      180.000000       11.987974         2    ;  uncertainty k = 0.335876
         1         2         3         4     9        0.000000        2.155909         3    ;  uncertainty k = 0.296654
         1         2         3         4     9      180.000000        1.366459         4    ;  uncertainty k = 0.145366
         1         2         3        10     9        0.000000        0.651514         1    ;  uncertainty k = 0.678371
         1         2         3        10     9      180.000000       17.883969         2    ;  uncertainty k = 0.314874
         1         2         3        10     9        0.000000        2.842188         3    ;  uncertainty k = 0.581087
         1         2         3        10     9      180.000000        1.535975         4    ;  uncertainty k = 0.503446
         1         6         5         4     9        0.000000       -0.159502         1    ;  uncertainty k = 2.061285
         1         6         5         4     9      180.000000        3.831664         2    ;  uncertainty k = 1.625385
         1         6         5         4     9        0.000000        1.173384         3    ;  uncertainty k = 0.518495
         1         6         5         4     9      180.000000        0.562840         4    ;  uncertainty k = 0.479066
         1         6        19        28     9        0.000000       13.129111         1    ;  uncertainty k = 0.629667
         1         6        19        28     9      180.000000        9.756533         2    ;  uncertainty k = 0.245450
         1         6        19        28     9        0.000000        0.714123         3    ;  uncertainty k = 0.172606
         1         6        19        28     9      180.000000       -0.412217         4    ;  uncertainty k = 0.285718
         1         6        19        29     9        0.000000       13.129111         1    ;  uncertainty k = 0.629667
         1         6        19        29     9      180.000000        9.756533         2    ;  uncertainty k = 0.245450
         1         6        19        29     9        0.000000        0.714123         3    ;  uncertainty k = 0.172606
         1         6        19        29     9      180.000000       -0.412217         4    ;  uncertainty k = 0.285718
         2         1         6         5     9        0.000000        1.968898         1    ;  uncertainty k = 1.303642
         2         1         6         5     9      180.000000        5.539831         2    ;  uncertainty k = 1.934359
         2         1         6         5     9        0.000000        1.215088         3    ;  uncertainty k = 0.650296
         2         1         6         5     9      180.000000        1.068040         4    ;  uncertainty k = 0.490493
         2         1         6        19     9        0.000000        2.793109         1    ;  uncertainty k = 1.767061
         2         1         6        19     9      180.000000       10.325178         2    ;  uncertainty k = 0.754001
         2         1         6        19     9        0.000000        2.692809         3    ;  uncertainty k = 0.395811
         2         1         6        19     9      180.000000        0.982486         4    ;  uncertainty k = 0.243420
         2         3         4         5     9        0.000000       -0.821710         1    ;  uncertainty k = 0.541415
         2         3         4         5     9      180.000000        3.366448         2    ;  uncertainty k = 1.132094
         2         3         4         5     9        0.000000       -0.345192         3    ;  uncertainty k = 1.049269
         2         3         4         5     9      180.000000        0.525099         4    ;  uncertainty k = 0.586154
         2         3         4        16     9        0.000000       -1.411747         1    ;  uncertainty k = 1.163133
         2         3         4        16     9      180.000000        2.338045         2    ;  uncertainty k = 0.773632
         2         3         4        16     9        0.000000        0.053408         3    ;  uncertainty k = 0.830938
         2         3         4        16     9      180.000000        0.808568         4    ;  uncertainty k = 0.498134
         2         3        10         9     9        0.000000       -0.229006         1    ;  uncertainty k = 1.086907
         2         3        10         9     9      180.000000        5.083457         2    ;  uncertainty k = 0.161571
         2         3        10         9     9        0.000000        0.432978         3    ;  uncertainty k = 0.240420
         2         3        10         9     9      180.000000        0.156072         4    ;  uncertainty k = 0.084993
         2         3        10        11     9        0.000000       -0.229006         1    ;  uncertainty k = 1.086907
         2         3        10        11     9      180.000000        5.083457         2    ;  uncertainty k = 0.161571
         2         3        10        11     9        0.000000        0.432978         3    ;  uncertainty k = 0.240420
         2         3        10        11     9      180.000000        0.156072         4    ;  uncertainty k = 0.084993
         3         2         1         6     9        0.000000       -3.140724         1    ;  uncertainty k = 3.635075
         3         2         1         6     9      180.000000       31.064836         2    ;  uncertainty k = 0.576240
         3         2         1         6     9        0.000000       -0.092240         3    ;  uncertainty k = 1.288384
         3         2         1         6     9      180.000000       -0.517353         4    ;  uncertainty k = 1.492472
         3         4         5         6     9        0.000000        0.216017         1    ;  uncertainty k = 0.971160
         3         4         5         6     9      180.000000       13.644184         2    ;  uncertainty k = 0.568210
         3         4         5         6     9        0.000000        0.426372         3    ;  uncertainty k = 0.910582
         3         4         5         6     9      180.000000        1.328875         4    ;  uncertainty k = 0.500807
         3         4        16        15     9        0.000000       -0.202784         1    ;  uncertainty k = 0.804368
         3         4        16        15     9      180.000000        3.442946         2    ;  uncertainty k = 0.451754
         3         4        16        15     9        0.000000        0.527613         3    ;  uncertainty k = 0.195746
         3         4        16        15     9      180.000000        0.014384         4    ;  uncertainty k = 0.082911
         3         4        16        17     9        0.000000       -0.202784         1    ;  uncertainty k = 0.804368
         3         4        16        17     9      180.000000        3.442946         2    ;  uncertainty k = 0.451754
         3         4        16        17     9        0.000000        0.527613         3    ;  uncertainty k = 0.195746
         3         4        16        17     9      180.000000        0.014384         4    ;  uncertainty k = 0.082911
         3        10         9         8     9        0.000000        0.014207         1    ;  uncertainty k = 0.070795
         3        10         9         8     9      180.000000        8.236826         2    ;  uncertainty k = 0.283910
         3        10         9         8     9        0.000000        1.030188         3    ;  uncertainty k = 0.184969
         3        10         9         8     9      180.000000        1.749659         4    ;  uncertainty k = 0.124174
         3        10         9        21     9        0.000000       -0.264231         1    ;  uncertainty k = 0.235611
         3        10         9        21     9      180.000000        7.374807         2    ;  uncertainty k = 0.340083
         3        10         9        21     9        0.000000        0.803789         3    ;  uncertainty k = 0.147334
         3        10         9        21     9      180.000000        1.180335         4    ;  uncertainty k = 0.252622
         3        10        11        12     9        0.000000        0.014207         1    ;  uncertainty k = 0.070795
         3        10        11        12     9      180.000000        8.236826         2    ;  uncertainty k = 0.283910
         3        10        11        12     9        0.000000        1.030188         3    ;  uncertainty k = 0.184969
         3        10        11        12     9      180.000000        1.749659         4    ;  uncertainty k = 0.124174
         3        10        11        22     9        0.000000       -0.264231         1    ;  uncertainty k = 0.235611
         3        10        11        22     9      180.000000        7.374807         2    ;  uncertainty k = 0.340083
         3        10        11        22     9        0.000000        0.803789         3    ;  uncertainty k = 0.147334
         3        10        11        22     9      180.000000        1.180335         4    ;  uncertainty k = 0.252622
         4         3        10         9     9        0.000000        0.385924         1    ;  uncertainty k = 0.751223
         4         3        10         9     9      180.000000        2.760188         2    ;  uncertainty k = 0.697852
         4         3        10         9     9        0.000000        0.666138         3    ;  uncertainty k = 0.253094
         4         3        10         9     9      180.000000        0.030603         4    ;  uncertainty k = 0.123671
         4         3        10        11     9        0.000000        0.385924         1    ;  uncertainty k = 0.751223
         4         3        10        11     9      180.000000        2.760188         2    ;  uncertainty k = 0.697852
         4         3        10        11     9        0.000000        0.666138         3    ;  uncertainty k = 0.253094
         4         3        10        11     9      180.000000        0.030603         4    ;  uncertainty k = 0.123671
         4         5         6        19     9        0.000000        0.323492         1    ;  uncertainty k = 0.573575
         4         5         6        19     9      180.000000        8.427377         2    ;  uncertainty k = 0.712989
         4         5         6        19     9        0.000000        2.103340         3    ;  uncertainty k = 0.347201
         4         5         6        19     9      180.000000        0.966007         4    ;  uncertainty k = 0.424542
         4        16        15        14     9        0.000000        0.244623         1    ;  uncertainty k = 0.364587
         4        16        15        14     9      180.000000        8.777576         2    ;  uncertainty k = 0.506605
         4        16        15        14     9        0.000000        1.204611         3    ;  uncertainty k = 0.317859
         4        16        15        14     9      180.000000        1.930500         4    ;  uncertainty k = 0.212294
         4        16        15        25     9        0.000000       -0.281068         1    ;  uncertainty k = 0.166996
         4        16        15        25     9      180.000000        7.429076         2    ;  uncertainty k = 0.523888
         4        16        15        25     9        0.000000        0.740308         3    ;  uncertainty k = 0.138975
         4        16        15        25     9      180.000000        1.219405         4    ;  uncertainty k = 0.164843
         4        16        17        18     9        0.000000        0.244623         1    ;  uncertainty k = 0.364587
         4        16        17        18     9      180.000000        8.777576         2    ;  uncertainty k = 0.506605
         4        16        17        18     9        0.000000        1.204611         3    ;  uncertainty k = 0.317859
         4        16        17        18     9      180.000000        1.930500         4    ;  uncertainty k = 0.212294
         4        16        17        26     9        0.000000       -0.281068         1    ;  uncertainty k = 0.166996
         4        16        17        26     9      180.000000        7.429076         2    ;  uncertainty k = 0.523888
         4        16        17        26     9        0.000000        0.740308         3    ;  uncertainty k = 0.138975
         4        16        17        26     9      180.000000        1.219405         4    ;  uncertainty k = 0.164843
         5         4         3        10     9        0.000000       -0.332169         1    ;  uncertainty k = 0.575960
         5         4         3        10     9      180.000000        3.620296         2    ;  uncertainty k = 1.090401
         5         4         3        10     9        0.000000        0.105205         3    ;  uncertainty k = 0.588335
         5         4         3        10     9      180.000000        0.713885         4    ;  uncertainty k = 0.648377
         5         4        16        15     9        0.000000        0.577089         1    ;  uncertainty k = 0.771269
         5         4        16        15     9      180.000000        5.298508         2    ;  uncertainty k = 0.334426
         5         4        16        15     9        0.000000        0.480066         3    ;  uncertainty k = 0.134057
         5         4        16        15     9      180.000000        0.149158         4    ;  uncertainty k = 0.112879
         5         4        16        17     9        0.000000        0.577089         1    ;  uncertainty k = 0.771269
         5         4        16        17     9      180.000000        5.298508         2    ;  uncertainty k = 0.334426
         5         4        16        17     9        0.000000        0.480066         3    ;  uncertainty k = 0.134057
         5         4        16        17     9      180.000000        0.149158         4    ;  uncertainty k = 0.112879
         5         6        19        28     9        0.000000       20.010442         1    ;  uncertainty k = 0.259650
         5         6        19        28     9      180.000000       10.182111         2    ;  uncertainty k = 0.370307
         5         6        19        28     9        0.000000        0.832804         3    ;  uncertainty k = 0.221692
         5         6        19        28     9      180.000000       -0.316472         4    ;  uncertainty k = 0.214044
         5         6        19        29     9        0.000000       20.010442         1    ;  uncertainty k = 0.259650
         5         6        19        29     9      180.000000       10.182111         2    ;  uncertainty k = 0.370307
         5         6        19        29     9        0.000000        0.832804         3    ;  uncertainty k = 0.221692
         5         6        19        29     9      180.000000       -0.316472         4    ;  uncertainty k = 0.214044
         6         5         4        16     9        0.000000        0.671482         1    ;  uncertainty k = 0.595294
         6         5         4        16     9      180.000000       15.998898         2    ;  uncertainty k = 0.727265
         6         5         4        16     9        0.000000        2.088123         3    ;  uncertainty k = 0.689736
         6         5         4        16     9      180.000000        1.669828         4    ;  uncertainty k = 0.442946
         7         8         9        10     9        0.000000       -0.187842         1    ;  uncertainty k = 0.324645
         7         8         9        10     9      180.000000       11.924312         2    ;  uncertainty k = 0.589211
         7         8         9        10     9        0.000000        0.111121         3    ;  uncertainty k = 0.307348
         7         8         9        10     9      180.000000        1.191387         4    ;  uncertainty k = 0.357776
         7         8         9        21     9        0.000000        0.164237         1    ;  uncertainty k = 0.230921
         7         8         9        21     9      180.000000        7.990305         2    ;  uncertainty k = 0.398609
         7         8         9        21     9        0.000000        1.442619         3    ;  uncertainty k = 0.150687
         7         8         9        21     9      180.000000        1.699622         4    ;  uncertainty k = 0.057253
         7         8        35        36     9        0.000000       -0.206799         1    ;  uncertainty k = 0.269323
         7         8        35        36     9      180.000000        0.837609         2    ;  uncertainty k = 0.180885
         7         8        35        36     9        0.000000        0.710678         3    ;  uncertainty k = 0.049019
         7         8        35        36     9      180.000000        0.308164         4    ;  uncertainty k = 0.046980
         7         8        35        37     9        0.000000       -0.206799         1    ;  uncertainty k = 0.269323
         7         8        35        37     9      180.000000        0.837609         2    ;  uncertainty k = 0.180885
         7         8        35        37     9        0.000000        0.710678         3    ;  uncertainty k = 0.049019
         7         8        35        37     9      180.000000        0.308164         4    ;  uncertainty k = 0.046980
         7         8        35        38     9        0.000000       -0.206799         1    ;  uncertainty k = 0.269323
         7         8        35        38     9      180.000000        0.837609         2    ;  uncertainty k = 0.180885
         7         8        35        38     9        0.000000        0.710678         3    ;  uncertainty k = 0.049019
         7         8        35        38     9      180.000000        0.308164         4    ;  uncertainty k = 0.046980
         7        12        11        10     9        0.000000       -0.187842         1    ;  uncertainty k = 0.324645
         7        12        11        10     9      180.000000       11.924312         2    ;  uncertainty k = 0.589211
         7        12        11        10     9        0.000000        0.111121         3    ;  uncertainty k = 0.307348
         7        12        11        10     9      180.000000        1.191387         4    ;  uncertainty k = 0.357776
         7        12        11        22     9        0.000000        0.164237         1    ;  uncertainty k = 0.230921
         7        12        11        22     9      180.000000        7.990305         2    ;  uncertainty k = 0.398609
         7        12        11        22     9        0.000000        1.442619         3    ;  uncertainty k = 0.150687
         7        12        11        22     9      180.000000        1.699622         4    ;  uncertainty k = 0.057253
         7        12        31        32     9        0.000000       -0.206799         1    ;  uncertainty k = 0.269323
         7        12        31        32     9      180.000000        0.837609         2    ;  uncertainty k = 0.180885
         7        12        31        32     9        0.000000        0.710678         3    ;  uncertainty k = 0.049019
         7        12        31        32     9      180.000000        0.308164         4    ;  uncertainty k = 0.046980
         7        12        31        33     9        0.000000       -0.206799         1    ;  uncertainty k = 0.269323
         7        12        31        33     9      180.000000        0.837609         2    ;  uncertainty k = 0.180885
         7        12        31        33     9        0.000000        0.710678         3    ;  uncertainty k = 0.049019
         7        12        31        33     9      180.000000        0.308164         4    ;  uncertainty k = 0.046980
         7        12        31        34     9        0.000000       -0.206799         1    ;  uncertainty k = 0.269323
         7        12        31        34     9      180.000000        0.837609         2    ;  uncertainty k = 0.180885
         7        12        31        34     9        0.000000        0.710678         3    ;  uncertainty k = 0.049019
         7        12        31        34     9      180.000000        0.308164         4    ;  uncertainty k = 0.046980
         8         7        12        11     9        0.000000       -0.167335         1    ;  uncertainty k = 0.588380
         8         7        12        11     9      180.000000        5.868883         2    ;  uncertainty k = 0.916674
         8         7        12        11     9        0.000000        0.652809         3    ;  uncertainty k = 0.363412
         8         7        12        11     9      180.000000        1.314993         4    ;  uncertainty k = 0.389086
         8         7        12        31     9        0.000000        0.264232         1    ;  uncertainty k = 0.548981
         8         7        12        31     9      180.000000        6.964093         2    ;  uncertainty k = 0.653828
         8         7        12        31     9        0.000000        1.183522         3    ;  uncertainty k = 0.303958
         8         7        12        31     9      180.000000        1.542199         4    ;  uncertainty k = 0.361524
         8         7        20        30     9        0.000000        7.614705         1    ;  uncertainty k = 0.507311
         8         7        20        30     9      180.000000        3.803862         2    ;  uncertainty k = 0.167003
         8         7        20        30     9        0.000000        1.080817         3    ;  uncertainty k = 0.191755
         8         7        20        30     9      180.000000        0.045710         4    ;  uncertainty k = 0.105013
         8         9        10        11     9        0.000000       -0.032105         1    ;  uncertainty k = 0.193776
         8         9        10        11     9      180.000000       10.933453         2    ;  uncertainty k = 0.174196
         8         9        10        11     9        0.000000       -0.661241         3    ;  uncertainty k = 0.361813
         8         9        10        11     9      180.000000        1.057762         4    ;  uncertainty k = 0.243368
         9         8         7        12     9        0.000000       -0.167335         1    ;  uncertainty k = 0.588380
         9         8         7        12     9      180.000000        5.868883         2    ;  uncertainty k = 0.916674
         9         8         7        12     9        0.000000        0.652809         3    ;  uncertainty k = 0.363412
         9         8         7        12     9      180.000000        1.314993         4    ;  uncertainty k = 0.389086
         9         8         7        20     9        0.000000        0.040309         1    ;  uncertainty k = 0.308534
         9         8         7        20     9      180.000000       11.102460         2    ;  uncertainty k = 0.220449
         9         8         7        20     9        0.000000        1.121829         3    ;  uncertainty k = 0.240936
         9         8         7        20     9      180.000000        1.285558         4    ;  uncertainty k = 0.192393
         9         8        35        36     9        0.000000        0.294155         1    ;  uncertainty k = 0.127031
         9         8        35        36     9      180.000000        1.166299         2    ;  uncertainty k = 0.177128
         9         8        35        36     9        0.000000        0.200527         3    ;  uncertainty k = 0.085345
         9         8        35        36     9      180.000000        0.191716         4    ;  uncertainty k = 0.051931
         9         8        35        37     9        0.000000        0.294155         1    ;  uncertainty k = 0.127031
         9         8        35        37     9      180.000000        1.166299         2    ;  uncertainty k = 0.177128
         9         8        35        37     9        0.000000        0.200527         3    ;  uncertainty k = 0.085345
         9         8        35        37     9      180.000000        0.191716         4    ;  uncertainty k = 0.051931
         9         8        35        38     9        0.000000        0.294155         1    ;  uncertainty k = 0.127031
         9         8        35        38     9      180.000000        1.166299         2    ;  uncertainty k = 0.177128
         9         8        35        38     9        0.000000        0.200527         3    ;  uncertainty k = 0.085345
         9         8        35        38     9      180.000000        0.191716         4    ;  uncertainty k = 0.051931
         9        10        11        12     9        0.000000       -0.032105         1    ;  uncertainty k = 0.193776
         9        10        11        12     9      180.000000       10.933453         2    ;  uncertainty k = 0.174196
         9        10        11        12     9        0.000000       -0.661241         3    ;  uncertainty k = 0.361813
         9        10        11        12     9      180.000000        1.057762         4    ;  uncertainty k = 0.243368
         9        10        11        22     9        0.000000        0.179897         1    ;  uncertainty k = 0.113640
         9        10        11        22     9      180.000000        7.205841         2    ;  uncertainty k = 0.476259
         9        10        11        22     9        0.000000        1.371401         3    ;  uncertainty k = 0.232693
         9        10        11        22     9      180.000000        1.608723         4    ;  uncertainty k = 0.237052
        10         3         4        16     9        0.000000       -0.533331         1    ;  uncertainty k = 1.015421
        10         3         4        16     9      180.000000        3.571921         2    ;  uncertainty k = 0.921326
        10         3         4        16     9        0.000000        0.816779         3    ;  uncertainty k = 0.487443
        10         3         4        16     9      180.000000        0.398863         4    ;  uncertainty k = 0.247027
        10         9         8        35     9        0.000000        0.312609         1    ;  uncertainty k = 0.395571
        10         9         8        35     9      180.000000       10.309729         2    ;  uncertainty k = 0.335931
        10         9         8        35     9        0.000000        1.432474         3    ;  uncertainty k = 0.200022
        10         9         8        35     9      180.000000        1.817536         4    ;  uncertainty k = 0.255360
        10        11        12        31     9        0.000000        0.312609         1    ;  uncertainty k = 0.395571
        10        11        12        31     9      180.000000       10.309729         2    ;  uncertainty k = 0.335931
        10        11        12        31     9        0.000000        1.432474         3    ;  uncertainty k = 0.200022
        10        11        12        31     9      180.000000        1.817536         4    ;  uncertainty k = 0.255360
        11        10         9        21     9        0.000000        0.179897         1    ;  uncertainty k = 0.113640
        11        10         9        21     9      180.000000        7.205841         2    ;  uncertainty k = 0.476259
        11        10         9        21     9        0.000000        1.371401         3    ;  uncertainty k = 0.232693
        11        10         9        21     9      180.000000        1.608723         4    ;  uncertainty k = 0.237052
        11        12         7        20     9        0.000000        0.040309         1    ;  uncertainty k = 0.308534
        11        12         7        20     9      180.000000       11.102460         2    ;  uncertainty k = 0.220449
        11        12         7        20     9        0.000000        1.121829         3    ;  uncertainty k = 0.240936
        11        12         7        20     9      180.000000        1.285558         4    ;  uncertainty k = 0.192393
        11        12        31        32     9        0.000000        0.294155         1    ;  uncertainty k = 0.127031
        11        12        31        32     9      180.000000        1.166299         2    ;  uncertainty k = 0.177128
        11        12        31        32     9        0.000000        0.200527         3    ;  uncertainty k = 0.085345
        11        12        31        32     9      180.000000        0.191716         4    ;  uncertainty k = 0.051931
        11        12        31        33     9        0.000000        0.294155         1    ;  uncertainty k = 0.127031
        11        12        31        33     9      180.000000        1.166299         2    ;  uncertainty k = 0.177128
        11        12        31        33     9        0.000000        0.200527         3    ;  uncertainty k = 0.085345
        11        12        31        33     9      180.000000        0.191716         4    ;  uncertainty k = 0.051931
        11        12        31        34     9        0.000000        0.294155         1    ;  uncertainty k = 0.127031
        11        12        31        34     9      180.000000        1.166299         2    ;  uncertainty k = 0.177128
        11        12        31        34     9        0.000000        0.200527         3    ;  uncertainty k = 0.085345
        11        12        31        34     9      180.000000        0.191716         4    ;  uncertainty k = 0.051931
        12         7         8        35     9        0.000000        0.264232         1    ;  uncertainty k = 0.548981
        12         7         8        35     9      180.000000        6.964093         2    ;  uncertainty k = 0.653828
        12         7         8        35     9        0.000000        1.183522         3    ;  uncertainty k = 0.303958
        12         7         8        35     9      180.000000        1.542199         4    ;  uncertainty k = 0.361524
        12         7        20        30     9        0.000000        7.614705         1    ;  uncertainty k = 0.507311
        12         7        20        30     9      180.000000        3.803862         2    ;  uncertainty k = 0.167003
        12         7        20        30     9        0.000000        1.080817         3    ;  uncertainty k = 0.191755
        12         7        20        30     9      180.000000        0.045710         4    ;  uncertainty k = 0.105013
        13        14        15        16     9        0.000000       -0.085156         1    ;  uncertainty k = 0.101326
        13        14        15        16     9      180.000000       13.800477         2    ;  uncertainty k = 0.268312
        13        14        15        16     9        0.000000       -0.771380         3    ;  uncertainty k = 0.430279
        13        14        15        16     9      180.000000        0.763186         4    ;  uncertainty k = 0.221620
        13        14        15        25     9        0.000000        0.040792         1    ;  uncertainty k = 0.098340
        13        14        15        25     9      180.000000        7.829050         2    ;  uncertainty k = 0.220837
        13        14        15        25     9        0.000000        1.377807         3    ;  uncertainty k = 0.305455
        13        14        15        25     9      180.000000        1.862040         4    ;  uncertainty k = 0.175515
        13        18        17        16     9        0.000000       -0.085156         1    ;  uncertainty k = 0.101326
        13        18        17        16     9      180.000000       13.800477         2    ;  uncertainty k = 0.268312
        13        18        17        16     9        0.000000       -0.771380         3    ;  uncertainty k = 0.430279
        13        18        17        16     9      180.000000        0.763186         4    ;  uncertainty k = 0.221620
        13        18        17        26     9        0.000000        0.040792         1    ;  uncertainty k = 0.098340
        13        18        17        26     9      180.000000        7.829050         2    ;  uncertainty k = 0.220837
        13        18        17        26     9        0.000000        1.377807         3    ;  uncertainty k = 0.305455
        13        18        17        26     9      180.000000        1.862040         4    ;  uncertainty k = 0.175515
        14        13        18        17     9        0.000000       -0.039609         1    ;  uncertainty k = 0.058508
        14        13        18        17     9      180.000000       14.728850         2    ;  uncertainty k = 0.270498
        14        13        18        17     9        0.000000       -1.116008         3    ;  uncertainty k = 0.461534
        14        13        18        17     9      180.000000        0.570638         4    ;  uncertainty k = 0.262850
        14        13        18        27     9        0.000000        0.060280         1    ;  uncertainty k = 0.046484
        14        13        18        27     9      180.000000        7.580498         2    ;  uncertainty k = 0.301291
        14        13        18        27     9        0.000000        1.432917         3    ;  uncertainty k = 0.310397
        14        13        18        27     9      180.000000        1.808653         4    ;  uncertainty k = 0.112983
        14        15        16        17     9        0.000000       -0.228846         1    ;  uncertainty k = 0.099621
        14        15        16        17     9      180.000000       11.519585         2    ;  uncertainty k = 0.245642
        14        15        16        17     9        0.000000       -0.708965         3    ;  uncertainty k = 0.222667
        14        15        16        17     9      180.000000        0.889608         4    ;  uncertainty k = 0.283730
        15        14        13        18     9        0.000000       -0.039609         1    ;  uncertainty k = 0.058508
        15        14        13        18     9      180.000000       14.728850         2    ;  uncertainty k = 0.270498
        15        14        13        18     9        0.000000       -1.116008         3    ;  uncertainty k = 0.461534
        15        14        13        18     9      180.000000        0.570638         4    ;  uncertainty k = 0.262850
        15        14        13        23     9        0.000000        0.018696         1    ;  uncertainty k = 0.067612
        15        14        13        23     9      180.000000        7.446532         2    ;  uncertainty k = 0.246906
        15        14        13        23     9        0.000000        1.463058         3    ;  uncertainty k = 0.239087
        15        14        13        23     9      180.000000        1.786839         4    ;  uncertainty k = 0.161485
        15        16        17        18     9        0.000000       -0.228846         1    ;  uncertainty k = 0.099621
        15        16        17        18     9      180.000000       11.519585         2    ;  uncertainty k = 0.245642
        15        16        17        18     9        0.000000       -0.708965         3    ;  uncertainty k = 0.222667
        15        16        17        18     9      180.000000        0.889608         4    ;  uncertainty k = 0.283730
        15        16        17        26     9        0.000000        0.168842         1    ;  uncertainty k = 0.107557
        15        16        17        26     9      180.000000        7.056492         2    ;  uncertainty k = 0.442030
        15        16        17        26     9        0.000000        1.360330         3    ;  uncertainty k = 0.161756
        15        16        17        26     9      180.000000        1.681350         4    ;  uncertainty k = 0.250468
        16        15        14        24     9        0.000000        0.000276         1    ;  uncertainty k = 0.169363
        16        15        14        24     9      180.000000        7.621252         2    ;  uncertainty k = 0.320005
        16        15        14        24     9        0.000000        1.446360         3    ;  uncertainty k = 0.172877
        16        15        14        24     9      180.000000        1.823296         4    ;  uncertainty k = 0.150540
        16        17        18        27     9        0.000000        0.000276         1    ;  uncertainty k = 0.169363
        16        17        18        27     9      180.000000        7.621252         2    ;  uncertainty k = 0.320005
        16        17        18        27     9        0.000000        1.446360         3    ;  uncertainty k = 0.172877
        16        17        18        27     9      180.000000        1.823296         4    ;  uncertainty k = 0.150540
        17        16        15        25     9        0.000000        0.168842         1    ;  uncertainty k = 0.107557
        17        16        15        25     9      180.000000        7.056492         2    ;  uncertainty k = 0.442030
        17        16        15        25     9        0.000000        1.360330         3    ;  uncertainty k = 0.161756
        17        16        15        25     9      180.000000        1.681350         4    ;  uncertainty k = 0.250468
        17        18        13        23     9        0.000000        0.018696         1    ;  uncertainty k = 0.067612
        17        18        13        23     9      180.000000        7.446532         2    ;  uncertainty k = 0.246906
        17        18        13        23     9        0.000000        1.463058         3    ;  uncertainty k = 0.239087
        17        18        13        23     9      180.000000        1.786839         4    ;  uncertainty k = 0.161485
        18        13        14        24     9        0.000000        0.060280         1    ;  uncertainty k = 0.046484
        18        13        14        24     9      180.000000        7.580498         2    ;  uncertainty k = 0.301291
        18        13        14        24     9        0.000000        1.432917         3    ;  uncertainty k = 0.310397
        18        13        14        24     9      180.000000        1.808653         4    ;  uncertainty k = 0.112983
        20         7         8        35     9        0.000000        0.064461         1    ;  uncertainty k = 0.354262
        20         7         8        35     9      180.000000       12.056135         2    ;  uncertainty k = 0.384756
        20         7         8        35     9        0.000000        0.773236         3    ;  uncertainty k = 0.274018
        20         7         8        35     9      180.000000        1.203111         4    ;  uncertainty k = 0.286001
        20         7        12        31     9        0.000000        0.064461         1    ;  uncertainty k = 0.354262
        20         7        12        31     9      180.000000       12.056135         2    ;  uncertainty k = 0.384756
        20         7        12        31     9        0.000000        0.773235         3    ;  uncertainty k = 0.274018
        20         7        12        31     9      180.000000        1.203111         4    ;  uncertainty k = 0.286001
        21         9         8        35     9        0.000000       -0.216556         1    ;  uncertainty k = 0.182784
        21         9         8        35     9      180.000000        8.178194         2    ;  uncertainty k = 0.188313
        21         9         8        35     9        0.000000        0.554004         3    ;  uncertainty k = 0.292734
        21         9         8        35     9      180.000000        1.133246         4    ;  uncertainty k = 0.256765
        22        11        12        31     9        0.000000       -0.216556         1    ;  uncertainty k = 0.182784
        22        11        12        31     9      180.000000        8.178194         2    ;  uncertainty k = 0.188313
        22        11        12        31     9        0.000000        0.554004         3    ;  uncertainty k = 0.292734
        22        11        12        31     9      180.000000        1.133246         4    ;  uncertainty k = 0.256765
        23        13        14        24     9        0.000000       -0.086959         1    ;  uncertainty k = 0.086880
        23        13        14        24     9      180.000000        7.713489         2    ;  uncertainty k = 0.410363
        23        13        14        24     9        0.000000       -0.420918         3    ;  uncertainty k = 0.300483
        23        13        14        24     9      180.000000        0.039571         4    ;  uncertainty k = 0.147961
        23        13        18        27     9        0.000000       -0.086959         1    ;  uncertainty k = 0.086880
        23        13        18        27     9      180.000000        7.713489         2    ;  uncertainty k = 0.410363
        23        13        18        27     9        0.000000       -0.420918         3    ;  uncertainty k = 0.300483
        23        13        18        27     9      180.000000        0.039571         4    ;  uncertainty k = 0.147961
        24        14        15        25     9        0.000000       -0.159865         1    ;  uncertainty k = 0.133584
        24        14        15        25     9      180.000000        7.859188         2    ;  uncertainty k = 0.325421
        24        14        15        25     9        0.000000       -0.450050         3    ;  uncertainty k = 0.281622
        24        14        15        25     9      180.000000        0.154829         4    ;  uncertainty k = 0.122641
        26        17        18        27     9        0.000000       -0.159865         1    ;  uncertainty k = 0.133584
        26        17        18        27     9      180.000000        7.859188         2    ;  uncertainty k = 0.325421
        26        17        18        27     9        0.000000       -0.450050         3    ;  uncertainty k = 0.281622
        26        17        18        27     9      180.000000        0.154829         4    ;  uncertainty k = 0.122641

[ dihedrals ] ; impropers
;       ai        aj        ak        al funct           phase               k        pn
         3         2         4        10     4      180.000000       22.907835         2    ;  uncertainty k = 0.156091
         3         4        10         2     4      180.000000       22.907835         2    ;  uncertainty k = 0.156091
         3        10         2         4     4      180.000000       22.907835         2    ;  uncertainty k = 0.156091
         4         3         5        16     4      180.000000       29.488450         2    ;  uncertainty k = 0.032613
         4         5        16         3     4      180.000000       29.488450         2    ;  uncertainty k = 0.032613
         4        16         3         5     4      180.000000       29.488450         2    ;  uncertainty k = 0.032613
         6         1         5        19     4      180.000000       43.323642         2    ;  uncertainty k = 0.063442
         6         5        19         1     4      180.000000       43.323642         2    ;  uncertainty k = 0.063442
         6        19         1         5     4      180.000000       43.323642         2    ;  uncertainty k = 0.063442
         7         8        12        20     4      180.000000       17.028834         2    ;  uncertainty k = 0.065869
         7        12        20         8     4      180.000000       17.028834         2    ;  uncertainty k = 0.065869
         7        20         8        12     4      180.000000       17.028834         2    ;  uncertainty k = 0.065869
         8         7         9        35     4      180.000000       10.568077         2    ;  uncertainty k = 0.137569
         8         9        35         7     4      180.000000       10.568077         2    ;  uncertainty k = 0.137569
         8        35         7         9     4      180.000000       10.568077         2    ;  uncertainty k = 0.137569
         9         8        10        21     4      180.000000        4.132615         2    ;  uncertainty k = 0.256036
         9        10        21         8     4      180.000000        4.132615         2    ;  uncertainty k = 0.256036
         9        21         8        10     4      180.000000        4.132615         2    ;  uncertainty k = 0.256036
        10         3         9        11     4      180.000000        9.593235         2    ;  uncertainty k = 0.186911
        10         9        11         3     4      180.000000        9.593235         2    ;  uncertainty k = 0.186911
        10        11         3         9     4      180.000000        9.593235         2    ;  uncertainty k = 0.186911
        11        10        12        22     4      180.000000        4.132615         2    ;  uncertainty k = 0.256036
        11        12        22        10     4      180.000000        4.132615         2    ;  uncertainty k = 0.256036
        11        22        10        12     4      180.000000        4.132615         2    ;  uncertainty k = 0.256036
        12         7        11        31     4      180.000000       10.568077         2    ;  uncertainty k = 0.137569
        12        11        31         7     4      180.000000       10.568077         2    ;  uncertainty k = 0.137569
        12        31         7        11     4      180.000000       10.568077         2    ;  uncertainty k = 0.137569
        13        14        18        23     4      180.000000        4.673371         2    ;  uncertainty k = 0.190293
        13        18        23        14     4      180.000000        4.673371         2    ;  uncertainty k = 0.190293
        13        23        14        18     4      180.000000        4.673371         2    ;  uncertainty k = 0.190293
        14        13        15        24     4      180.000000        4.310919         2    ;  uncertainty k = 0.072052
        14        15        24        13     4      180.000000        4.310919         2    ;  uncertainty k = 0.072052
        14        24        13        15     4      180.000000        4.310919         2    ;  uncertainty k = 0.072052
        15        14        16        25     4      180.000000        4.275767         2    ;  uncertainty k = 0.092511
        15        16        25        14     4      180.000000        4.275767         2    ;  uncertainty k = 0.092511
        15        25        14        16     4      180.000000        4.275767         2    ;  uncertainty k = 0.092511
        16         4        15        17     4      180.000000       10.064639         2    ;  uncertainty k = 0.105291
        16        15        17         4     4      180.000000       10.064639         2    ;  uncertainty k = 0.105291
        16        17         4        15     4      180.000000       10.064639         2    ;  uncertainty k = 0.105291
        17        16        18        26     4      180.000000        4.275767         2    ;  uncertainty k = 0.092511
        17        18        26        16     4      180.000000        4.275767         2    ;  uncertainty k = 0.092511
        17        26        16        18     4      180.000000        4.275767         2    ;  uncertainty k = 0.092511
        18        13        17        27     4      180.000000        4.310919         2    ;  uncertainty k = 0.072052
        18        17        27        13     4      180.000000        4.310919         2    ;  uncertainty k = 0.072052
        18        27        13        17     4      180.000000        4.310919         2    ;  uncertainty k = 0.072052
        19         6        28        29     4      180.000000        0.390383         2    ;  uncertainty k = 0.522838
        19        28        29         6     4      180.000000        0.390383         2    ;  uncertainty k = 0.522838
        19        29         6        28     4      180.000000        0.390383         2    ;  uncertainty k = 0.522838

[ pairs ]
;       ai        aj funct
         1         4     1
         1        10     1
         1        28     1
         1        29     1
         2         5     1
         2         9     1
         2        11     1
         2        16     1
         2        19     1
         3         6     1
         3         8     1
         3        12     1
         3        15     1
         3        17     1
         3        21     1
         3        22     1
         4         9     1
         4        11     1
         4        14     1
         4        18     1
         4        19     1
         4        25     1
         4        26     1
         5        10     1
         5        15     1
         5        17     1
         5        28     1
         5        29     1
         6        16     1
         7        10     1
         7        21     1
         7        22     1
         7        32     1
         7        33     1
         7        34     1
         7        36     1
         7        37     1
         7        38     1
         8        11     1
         8        30     1
         8        31     1
         9        12     1
         9        20     1
         9        22     1
         9        36     1
         9        37     1
         9        38     1
        10        16     1
        10        31     1
        10        35     1
        11        20     1
        11        21     1
        11        32     1
        11        33     1
        11        34     1
        12        30     1
        12        35     1
        13        16     1
        13        25     1
        13        26     1
        14        17     1
        14        27     1
        15        18     1
        15        23     1
        15        26     1
        16        24     1
        16        27     1
        17        23     1
        17        25     1
        18        24     1
        20        31     1
        20        35     1
        21        35     1
        22        31     1
        23        24     1
        23        27     1
        24        25     1
        26        27     1
