; ITP file created by ByteFF-joint-25, 2025-07-14 11:28:17.672085

[ atomtypes ]
;name           bonded.type        at.num        mass        charge   ptype           sigma         epsilon
 n0bf                                   7      0.0000       0.00000       A     3.38457e-01     3.93065e-01    ;  uncertainty sigma = 0.000033, epsilon = 0.002906
 n1bf                                   7      0.0000       0.00000       A     3.38476e-01     3.93713e-01    ;  uncertainty sigma = 0.000022, epsilon = 0.001198
 c2bf                                   6      0.0000       0.00000       A     3.31528e-01     4.12725e-01    ;  uncertainty sigma = 0.000022, epsilon = 0.001379
 c3bf                                   6      0.0000       0.00000       A     3.31532e-01     4.12868e-01    ;  uncertainty sigma = 0.000013, epsilon = 0.000681
 n4bf                                   7      0.0000       0.00000       A     3.38467e-01     3.94052e-01    ;  uncertainty sigma = 0.000030, epsilon = 0.001987
 c5bf                                   6      0.0000       0.00000       A     3.31538e-01     4.13311e-01    ;  uncertainty sigma = 0.000020, epsilon = 0.001585
 c6bf                                   6      0.0000       0.00000       A     3.31525e-01     4.13410e-01    ;  uncertainty sigma = 0.000016, epsilon = 0.002182
 c7bf                                   6      0.0000       0.00000       A     3.31467e-01     4.12846e-01    ;  uncertainty sigma = 0.000035, epsilon = 0.002037
 c8bf                                   6      0.0000       0.00000       A     3.31571e-01     4.12553e-01    ;  uncertainty sigma = 0.000018, epsilon = 0.001267
 c9bf                                   6      0.0000       0.00000       A     3.31545e-01     4.10372e-01    ;  uncertainty sigma = 0.000119, epsilon = 0.001574
 c10bf                                  6      0.0000       0.00000       A     3.31571e-01     4.12553e-01    ;  uncertainty sigma = 0.000018, epsilon = 0.001267
 c11bf                                  6      0.0000       0.00000       A     3.31467e-01     4.12846e-01    ;  uncertainty sigma = 0.000035, epsilon = 0.002037
 c12bf                                  6      0.0000       0.00000       A     3.31518e-01     4.13340e-01    ;  uncertainty sigma = 0.000003, epsilon = 0.000580
 c13bf                                  6      0.0000       0.00000       A     3.31519e-01     4.13380e-01    ;  uncertainty sigma = 0.000002, epsilon = 0.000627
 c14bf                                  6      0.0000       0.00000       A     3.31517e-01     4.13568e-01    ;  uncertainty sigma = 0.000002, epsilon = 0.000944
 c15bf                                  6      0.0000       0.00000       A     3.31548e-01     4.13550e-01    ;  uncertainty sigma = 0.000019, epsilon = 0.000920
 c16bf                                  6      0.0000       0.00000       A     3.31517e-01     4.13568e-01    ;  uncertainty sigma = 0.000002, epsilon = 0.000944
 c17bf                                  6      0.0000       0.00000       A     3.31519e-01     4.13380e-01    ;  uncertainty sigma = 0.000002, epsilon = 0.000627
 n18bf                                  7      0.0000       0.00000       A     3.36801e-01     4.68954e-01    ;  uncertainty sigma = 0.000066, epsilon = 0.001925
 o19bf                                  8      0.0000       0.00000       A     3.04906e-01     6.11039e-01    ;  uncertainty sigma = 0.000014, epsilon = 0.002102
 h20bf                                  1      0.0000       0.00000       A     2.62547e-01     6.76245e-02    ;  uncertainty sigma = 0.000030, epsilon = 0.001105
 h21bf                                  1      0.0000       0.00000       A     2.62547e-01     6.76245e-02    ;  uncertainty sigma = 0.000030, epsilon = 0.001105
 h22bf                                  1      0.0000       0.00000       A     2.62552e-01     6.70645e-02    ;  uncertainty sigma = 0.000011, epsilon = 0.000453
 h23bf                                  1      0.0000       0.00000       A     2.62559e-01     6.70250e-02    ;  uncertainty sigma = 0.000010, epsilon = 0.000440
 h24bf                                  1      0.0000       0.00000       A     2.62560e-01     6.70283e-02    ;  uncertainty sigma = 0.000012, epsilon = 0.000523
 h25bf                                  1      0.0000       0.00000       A     2.62560e-01     6.70283e-02    ;  uncertainty sigma = 0.000012, epsilon = 0.000523
 h26bf                                  1      0.0000       0.00000       A     2.62559e-01     6.70250e-02    ;  uncertainty sigma = 0.000010, epsilon = 0.000440
 h27bf                                  1      0.0000       0.00000       A     1.10728e-01     4.07631e-02    ;  uncertainty sigma = 0.000034, epsilon = 0.001087
 h28bf                                  1      0.0000       0.00000       A     1.10728e-01     4.07631e-02    ;  uncertainty sigma = 0.000034, epsilon = 0.001087
 c29bf                                  6      0.0000       0.00000       A     3.39763e-01     4.50708e-01    ;  uncertainty sigma = 0.000014, epsilon = 0.000990
 h30bf                                  1      0.0000       0.00000       A     2.60031e-01     8.67805e-02    ;  uncertainty sigma = 0.000010, epsilon = 0.000515
 h31bf                                  1      0.0000       0.00000       A     2.60031e-01     8.67805e-02    ;  uncertainty sigma = 0.000010, epsilon = 0.000515
 h32bf                                  1      0.0000       0.00000       A     2.60031e-01     8.67805e-02    ;  uncertainty sigma = 0.000010, epsilon = 0.000515
 c33bf                                  6      0.0000       0.00000       A     3.39763e-01     4.50708e-01    ;  uncertainty sigma = 0.000014, epsilon = 0.000990
 h34bf                                  1      0.0000       0.00000       A     2.60031e-01     8.67805e-02    ;  uncertainty sigma = 0.000010, epsilon = 0.000515
 h35bf                                  1      0.0000       0.00000       A     2.60031e-01     8.67805e-02    ;  uncertainty sigma = 0.000010, epsilon = 0.000515
 h36bf                                  1      0.0000       0.00000       A     2.60031e-01     8.67806e-02    ;  uncertainty sigma = 0.000010, epsilon = 0.000514

[ moleculetype ]
;name             nrexcl
 MOL                   3

[ atoms ]
;       nr            type      resi   res      atom      cgnr      charge          mass ; qtot
         1            n0bf         1   UNL        n0         1    -0.40685       14.0070 ; qtot   -0.407
         2            n1bf         1   UNL        n1         2    -0.25534       14.0070 ; qtot   -0.662
         3            c2bf         1   UNL        c2         3     0.30082       12.0110 ; qtot   -0.361
         4            c3bf         1   UNL        c3         4     0.46622       12.0110 ; qtot    0.105
         5            n4bf         1   UNL        n4         5    -0.73822       14.0070 ; qtot   -0.633
         6            c5bf         1   UNL        c5         6     0.82167       12.0110 ; qtot    0.188
         7            c6bf         1   UNL        c6         7     0.55595       12.0110 ; qtot    0.744
         8            c7bf         1   UNL        c7         8    -0.29837       12.0110 ; qtot    0.446
         9            c8bf         1   UNL        c8         9    -0.02582       12.0110 ; qtot    0.420
        10            c9bf         1   UNL        c9        10    -0.35937       12.0110 ; qtot    0.061
        11           c10bf         1   UNL       c10        11    -0.02582       12.0110 ; qtot    0.035
        12           c11bf         1   UNL       c11        12    -0.29837       12.0110 ; qtot   -0.264
        13           c12bf         1   UNL       c12        13    -0.11402       12.0110 ; qtot   -0.378
        14           c13bf         1   UNL       c13        14    -0.13628       12.0110 ; qtot   -0.514
        15           c14bf         1   UNL       c14        15    -0.09093       12.0110 ; qtot   -0.605
        16           c15bf         1   UNL       c15        16    -0.17251       12.0110 ; qtot   -0.777
        17           c16bf         1   UNL       c16        17    -0.09093       12.0110 ; qtot   -0.868
        18           c17bf         1   UNL       c17        18    -0.13628       12.0110 ; qtot   -1.004
        19           n18bf         1   UNL       n18        19    -0.92625       14.0070 ; qtot   -1.931
        20           o19bf         1   UNL       o19        20    -0.79196       15.9990 ; qtot   -2.723
        21           h20bf         1   UNL       h20        21     0.08103        1.0080 ; qtot   -2.642
        22           h21bf         1   UNL       h21        22     0.08103        1.0080 ; qtot   -2.561
        23           h22bf         1   UNL       h22        23     0.13373        1.0080 ; qtot   -2.427
        24           h23bf         1   UNL       h23        24     0.13437        1.0080 ; qtot   -2.292
        25           h24bf         1   UNL       h24        25     0.14424        1.0080 ; qtot   -2.148
        26           h25bf         1   UNL       h25        26     0.14424        1.0080 ; qtot   -2.004
        27           h26bf         1   UNL       h26        27     0.13437        1.0080 ; qtot   -1.870
        28           h27bf         1   UNL       h27        28     0.43092        1.0080 ; qtot   -1.439
        29           h28bf         1   UNL       h28        29     0.43092        1.0080 ; qtot   -1.008
        30           c29bf         1   UNL       c29        30    -0.01037       12.0110 ; qtot   -1.018
        31           h30bf         1   UNL       h30        31     0.00475        1.0080 ; qtot   -1.013
        32           h31bf         1   UNL       h31        32     0.00475        1.0080 ; qtot   -1.009
        33           h32bf         1   UNL       h32        33     0.00475        1.0080 ; qtot   -1.004
        34           c33bf         1   UNL       c33        34    -0.01037       12.0110 ; qtot   -1.014
        35           h34bf         1   UNL       h34        35     0.00475        1.0080 ; qtot   -1.010
        36           h35bf         1   UNL       h35        36     0.00475        1.0080 ; qtot   -1.005
        37           h36bf         1   UNL       h36        37     0.00480        1.0080 ; qtot   -1.000

[ bonds ]
;       ai        aj funct               r               k
         1         2     1        0.130778   361370.603955    ;  uncertainty r = 0.000176, k = 32.459970
         1         6     1        0.135400   366916.906592    ;  uncertainty r = 0.000241, k = 17.361955
         2         3     1        0.133398   330514.191309    ;  uncertainty r = 0.000367, k = 18.461655
         3         4     1        0.140591   328928.004834    ;  uncertainty r = 0.000160, k = 20.263695
         3        10     1        0.144950   266504.481787    ;  uncertainty r = 0.000304, k = 26.098507
         4         5     1        0.133035   420127.381152    ;  uncertainty r = 0.000119, k = 20.872352
         4        16     1        0.147775   265849.735840    ;  uncertainty r = 0.000153, k = 2.016089
         5         6     1        0.136102   532915.906348    ;  uncertainty r = 0.000140, k = 13.557526
         6        19     1        0.140058   625071.519727    ;  uncertainty r = 0.000422, k = 22.781256
         7         8     1        0.145297   304005.190625    ;  uncertainty r = 0.000067, k = 30.492303
         7        12     1        0.145297   304005.190625    ;  uncertainty r = 0.000067, k = 30.492303
         7        20     1        0.127948   498906.299121    ;  uncertainty r = 0.000150, k = 29.026924
         8         9     1        0.138168   352384.988965    ;  uncertainty r = 0.000094, k = 25.420931
         8        34     1        0.150707   242710.050293    ;  uncertainty r = 0.000079, k = 12.785434
         9        10     1        0.141864   339951.200244    ;  uncertainty r = 0.000075, k = 30.628175
         9        21     1        0.108900   328368.818750    ;  uncertainty r = 0.000062, k = 1.244402
        10        11     1        0.141864   339951.200244    ;  uncertainty r = 0.000075, k = 30.628175
        11        12     1        0.138168   352384.988965    ;  uncertainty r = 0.000094, k = 25.420931
        11        22     1        0.108900   328368.818750    ;  uncertainty r = 0.000062, k = 1.244402
        12        30     1        0.150707   242710.050293    ;  uncertainty r = 0.000079, k = 12.785434
        13        14     1        0.139638   371681.952441    ;  uncertainty r = 0.000015, k = 0.978306
        13        18     1        0.139638   371681.952441    ;  uncertainty r = 0.000015, k = 0.978306
        13        23     1        0.108841   334518.920801    ;  uncertainty r = 0.000012, k = 0.635598
        14        15     1        0.139410   364403.723047    ;  uncertainty r = 0.000027, k = 1.125537
        14        24     1        0.108844   333597.720654    ;  uncertainty r = 0.000013, k = 0.737651
        15        16     1        0.140052   345029.586426    ;  uncertainty r = 0.000032, k = 1.520525
        15        25     1        0.108717   333226.053564    ;  uncertainty r = 0.000015, k = 0.733478
        16        17     1        0.140052   345029.586426    ;  uncertainty r = 0.000032, k = 1.520525
        17        18     1        0.139410   364403.723047    ;  uncertainty r = 0.000027, k = 1.125537
        17        26     1        0.108717   333226.053564    ;  uncertainty r = 0.000015, k = 0.733478
        18        27     1        0.108844   333597.720654    ;  uncertainty r = 0.000013, k = 0.737651
        19        28     1        0.102196   439793.713379    ;  uncertainty r = 0.000076, k = 4.088413
        19        29     1        0.102196   439793.713379    ;  uncertainty r = 0.000076, k = 4.088413
        30        31     1        0.109742   307651.915381    ;  uncertainty r = 0.000016, k = 8.041513
        30        32     1        0.109742   307651.915381    ;  uncertainty r = 0.000016, k = 8.041513
        30        33     1        0.109742   307651.915381    ;  uncertainty r = 0.000016, k = 8.041513
        34        35     1        0.109742   307651.889844    ;  uncertainty r = 0.000016, k = 8.041511
        34        36     1        0.109742   307651.889844    ;  uncertainty r = 0.000016, k = 8.041511
        34        37     1        0.109742   307651.889844    ;  uncertainty r = 0.000016, k = 8.041511

[ angles ]
;       ai        aj        ak funct           theta             cth
         1         2         3     1      119.647423      633.282645    ;  uncertainty theta = 0.004665, k = 0.096723
         1         6         5     1      125.473976      667.166559    ;  uncertainty theta = 0.004399, k = 0.260032
         1         6        19     1      122.667969      687.926313    ;  uncertainty theta = 0.008559, k = 0.200162
         2         1         6     1      112.117577      575.313599    ;  uncertainty theta = 0.004635, k = 0.210273
         2         3         4     1      122.350121      528.293779    ;  uncertainty theta = 0.007125, k = 0.147236
         2         3        10     1      119.963242      457.531023    ;  uncertainty theta = 0.009787, k = 0.193527
         3         4         5     1      120.257675      521.462506    ;  uncertainty theta = 0.007652, k = 0.337827
         3         4        16     1      121.041710      335.833482    ;  uncertainty theta = 0.005540, k = 0.307905
         3        10         9     1      120.075272      356.697045    ;  uncertainty theta = 0.007891, k = 0.188244
         3        10        11     1      120.075272      356.697045    ;  uncertainty theta = 0.007891, k = 0.188244
         4         3        10     1      122.824890      342.244669    ;  uncertainty theta = 0.006200, k = 0.255182
         4         5         6     1      117.333641      426.968275    ;  uncertainty theta = 0.017496, k = 0.318744
         4        16        15     1      118.619736      365.704334    ;  uncertainty theta = 0.003070, k = 0.150298
         4        16        17     1      118.619736      365.704334    ;  uncertainty theta = 0.003070, k = 0.150298
         5         4        16     1      120.498230      469.984514    ;  uncertainty theta = 0.005482, k = 0.142607
         5         6        19     1      125.763504      798.173718    ;  uncertainty theta = 0.006180, k = 0.064188
         6        19        28     1      118.262405      443.776577    ;  uncertainty theta = 0.004875, k = 0.045402
         6        19        29     1      118.262405      443.776577    ;  uncertainty theta = 0.004875, k = 0.045402
         7         8         9     1      121.584435      459.539581    ;  uncertainty theta = 0.007818, k = 0.092795
         7         8        34     1      117.076782      399.973986    ;  uncertainty theta = 0.007468, k = 0.266195
         7        12        11     1      121.584435      459.539581    ;  uncertainty theta = 0.007818, k = 0.092795
         7        12        30     1      117.076782      399.973986    ;  uncertainty theta = 0.007468, k = 0.266195
         8         7        12     1      115.573380      371.946721    ;  uncertainty theta = 0.010206, k = 0.241263
         8         7        20     1      122.274643      556.746332    ;  uncertainty theta = 0.008600, k = 0.319294
         8         9        10     1      124.015419      510.700626    ;  uncertainty theta = 0.005178, k = 0.314674
         8         9        21     1      118.970139      285.903198    ;  uncertainty theta = 0.006701, k = 0.383027
         8        34        35     1      110.375710      395.666514    ;  uncertainty theta = 0.003675, k = 0.121146
         8        34        36     1      110.375710      395.666514    ;  uncertainty theta = 0.003675, k = 0.121146
         8        34        37     1      110.375710      395.666514    ;  uncertainty theta = 0.003675, k = 0.121146
         9         8        34     1      121.457382      409.124379    ;  uncertainty theta = 0.002849, k = 0.349790
         9        10        11     1      122.103622      433.810273    ;  uncertainty theta = 0.009725, k = 0.316546
        10         9        21     1      117.739281      277.586240    ;  uncertainty theta = 0.005458, k = 0.224273
        10        11        12     1      124.015419      510.700626    ;  uncertainty theta = 0.005178, k = 0.314674
        10        11        22     1      117.739281      277.586240    ;  uncertainty theta = 0.005458, k = 0.224273
        11        12        30     1      121.457382      409.124379    ;  uncertainty theta = 0.002849, k = 0.349790
        12         7        20     1      122.274643      556.746332    ;  uncertainty theta = 0.008600, k = 0.319294
        12        11        22     1      118.970139      285.903198    ;  uncertainty theta = 0.006701, k = 0.383027
        12        30        31     1      110.375710      395.666514    ;  uncertainty theta = 0.003675, k = 0.121146
        12        30        32     1      110.375710      395.666514    ;  uncertainty theta = 0.003675, k = 0.121146
        12        30        33     1      110.375710      395.666514    ;  uncertainty theta = 0.003675, k = 0.121146
        13        14        15     1      119.529297      515.813762    ;  uncertainty theta = 0.001865, k = 0.035586
        13        14        24     1      120.660217      288.604066    ;  uncertainty theta = 0.001135, k = 0.015010
        13        18        17     1      119.529297      515.813762    ;  uncertainty theta = 0.001865, k = 0.035586
        13        18        27     1      120.660217      288.604066    ;  uncertainty theta = 0.001135, k = 0.015010
        14        13        18     1      118.344101      527.921193    ;  uncertainty theta = 0.001138, k = 0.026327
        14        13        23     1      120.585655      288.470922    ;  uncertainty theta = 0.001777, k = 0.013074
        14        15        16     1      120.766884      528.404514    ;  uncertainty theta = 0.002344, k = 0.034155
        14        15        25     1      120.422874      292.742706    ;  uncertainty theta = 0.001561, k = 0.018301
        15        14        24     1      120.046219      284.619543    ;  uncertainty theta = 0.001720, k = 0.015559
        15        16        17     1      121.273514      438.081450    ;  uncertainty theta = 0.004734, k = 0.088958
        16        15        25     1      118.758041      275.494336    ;  uncertainty theta = 0.002279, k = 0.045416
        16        17        18     1      120.766884      528.404514    ;  uncertainty theta = 0.002344, k = 0.034155
        16        17        26     1      118.758041      275.494336    ;  uncertainty theta = 0.002279, k = 0.045416
        17        18        27     1      120.046219      284.619543    ;  uncertainty theta = 0.001720, k = 0.015559
        18        13        23     1      120.585655      288.470922    ;  uncertainty theta = 0.001777, k = 0.013074
        18        17        26     1      120.422874      292.742706    ;  uncertainty theta = 0.001561, k = 0.018301
        28        19        29     1      107.926712      266.053474    ;  uncertainty theta = 0.004368, k = 0.064560
        31        30        32     1      106.879051      310.835301    ;  uncertainty theta = 0.001321, k = 0.098558
        31        30        33     1      106.879051      310.835301    ;  uncertainty theta = 0.001321, k = 0.098558
        32        30        33     1      106.879051      310.835301    ;  uncertainty theta = 0.001321, k = 0.098558
        35        34        36     1      106.879051      310.835301    ;  uncertainty theta = 0.001321, k = 0.098558
        35        34        37     1      106.879051      310.835269    ;  uncertainty theta = 0.001321, k = 0.098558
        36        34        37     1      106.879051      310.835301    ;  uncertainty theta = 0.001321, k = 0.098558

[ dihedrals ] ; propers for gromacs 4.5 or higher, use funct 9
;       ai        aj        ak        al funct           phase               k        pn
         1         2         3         4     9        0.000000        1.826603         1    ;  uncertainty k = 1.475359
         1         2         3         4     9      180.000000       11.987974         2    ;  uncertainty k = 0.335876
         1         2         3         4     9        0.000000        2.155909         3    ;  uncertainty k = 0.296654
         1         2         3         4     9      180.000000        1.366459         4    ;  uncertainty k = 0.145366
         1         2         3        10     9        0.000000        1.343872         1    ;  uncertainty k = 1.215260
         1         2         3        10     9      180.000000       18.449722         2    ;  uncertainty k = 0.559563
         1         2         3        10     9        0.000000        2.755600         3    ;  uncertainty k = 0.458182
         1         2         3        10     9      180.000000        1.383599         4    ;  uncertainty k = 0.521109
         1         6         5         4     9        0.000000       -0.159502         1    ;  uncertainty k = 2.061285
         1         6         5         4     9      180.000000        3.831664         2    ;  uncertainty k = 1.625385
         1         6         5         4     9        0.000000        1.173384         3    ;  uncertainty k = 0.518495
         1         6         5         4     9      180.000000        0.562840         4    ;  uncertainty k = 0.479066
         1         6        19        28     9        0.000000       13.129111         1    ;  uncertainty k = 0.629667
         1         6        19        28     9      180.000000        9.756533         2    ;  uncertainty k = 0.245450
         1         6        19        28     9        0.000000        0.714123         3    ;  uncertainty k = 0.172606
         1         6        19        28     9      180.000000       -0.412217         4    ;  uncertainty k = 0.285718
         1         6        19        29     9        0.000000       13.129111         1    ;  uncertainty k = 0.629667
         1         6        19        29     9      180.000000        9.756533         2    ;  uncertainty k = 0.245450
         1         6        19        29     9        0.000000        0.714123         3    ;  uncertainty k = 0.172606
         1         6        19        29     9      180.000000       -0.412217         4    ;  uncertainty k = 0.285718
         2         1         6         5     9        0.000000        1.968898         1    ;  uncertainty k = 1.303642
         2         1         6         5     9      180.000000        5.539831         2    ;  uncertainty k = 1.934359
         2         1         6         5     9        0.000000        1.215088         3    ;  uncertainty k = 0.650296
         2         1         6         5     9      180.000000        1.068040         4    ;  uncertainty k = 0.490493
         2         1         6        19     9        0.000000        2.793109         1    ;  uncertainty k = 1.767061
         2         1         6        19     9      180.000000       10.325178         2    ;  uncertainty k = 0.754001
         2         1         6        19     9        0.000000        2.692809         3    ;  uncertainty k = 0.395811
         2         1         6        19     9      180.000000        0.982486         4    ;  uncertainty k = 0.243420
         2         3         4         5     9        0.000000       -0.821710         1    ;  uncertainty k = 0.541415
         2         3         4         5     9      180.000000        3.366448         2    ;  uncertainty k = 1.132094
         2         3         4         5     9        0.000000       -0.345192         3    ;  uncertainty k = 1.049269
         2         3         4         5     9      180.000000        0.525099         4    ;  uncertainty k = 0.586154
         2         3         4        16     9        0.000000       -1.411747         1    ;  uncertainty k = 1.163133
         2         3         4        16     9      180.000000        2.338045         2    ;  uncertainty k = 0.773632
         2         3         4        16     9        0.000000        0.053408         3    ;  uncertainty k = 0.830938
         2         3         4        16     9      180.000000        0.808568         4    ;  uncertainty k = 0.498134
         2         3        10         9     9        0.000000       -1.207615         1    ;  uncertainty k = 1.944564
         2         3        10         9     9      180.000000        8.731690         2    ;  uncertainty k = 0.775467
         2         3        10         9     9        0.000000        0.468087         3    ;  uncertainty k = 0.519510
         2         3        10         9     9      180.000000        0.107839         4    ;  uncertainty k = 0.406264
         2         3        10        11     9        0.000000       -1.207615         1    ;  uncertainty k = 1.944564
         2         3        10        11     9      180.000000        8.731690         2    ;  uncertainty k = 0.775467
         2         3        10        11     9        0.000000        0.468087         3    ;  uncertainty k = 0.519510
         2         3        10        11     9      180.000000        0.107839         4    ;  uncertainty k = 0.406264
         3         2         1         6     9        0.000000       -3.140724         1    ;  uncertainty k = 3.635075
         3         2         1         6     9      180.000000       31.064836         2    ;  uncertainty k = 0.576240
         3         2         1         6     9        0.000000       -0.092240         3    ;  uncertainty k = 1.288384
         3         2         1         6     9      180.000000       -0.517353         4    ;  uncertainty k = 1.492472
         3         4         5         6     9        0.000000        0.216017         1    ;  uncertainty k = 0.971160
         3         4         5         6     9      180.000000       13.644184         2    ;  uncertainty k = 0.568210
         3         4         5         6     9        0.000000        0.426372         3    ;  uncertainty k = 0.910582
         3         4         5         6     9      180.000000        1.328875         4    ;  uncertainty k = 0.500807
         3         4        16        15     9        0.000000       -0.202784         1    ;  uncertainty k = 0.804368
         3         4        16        15     9      180.000000        3.442946         2    ;  uncertainty k = 0.451754
         3         4        16        15     9        0.000000        0.527613         3    ;  uncertainty k = 0.195746
         3         4        16        15     9      180.000000        0.014384         4    ;  uncertainty k = 0.082911
         3         4        16        17     9        0.000000       -0.202784         1    ;  uncertainty k = 0.804368
         3         4        16        17     9      180.000000        3.442946         2    ;  uncertainty k = 0.451754
         3         4        16        17     9        0.000000        0.527613         3    ;  uncertainty k = 0.195746
         3         4        16        17     9      180.000000        0.014384         4    ;  uncertainty k = 0.082911
         3        10         9         8     9        0.000000        0.279060         1    ;  uncertainty k = 0.493224
         3        10         9         8     9      180.000000        8.689308         2    ;  uncertainty k = 0.366902
         3        10         9         8     9        0.000000        0.938826         3    ;  uncertainty k = 0.299181
         3        10         9         8     9      180.000000        1.149222         4    ;  uncertainty k = 0.289871
         3        10         9        21     9        0.000000       -0.450242         1    ;  uncertainty k = 0.545961
         3        10         9        21     9      180.000000        7.277498         2    ;  uncertainty k = 0.507155
         3        10         9        21     9        0.000000        0.947975         3    ;  uncertainty k = 0.131142
         3        10         9        21     9      180.000000        0.543526         4    ;  uncertainty k = 0.279768
         3        10        11        12     9        0.000000        0.279060         1    ;  uncertainty k = 0.493224
         3        10        11        12     9      180.000000        8.689308         2    ;  uncertainty k = 0.366902
         3        10        11        12     9        0.000000        0.938826         3    ;  uncertainty k = 0.299181
         3        10        11        12     9      180.000000        1.149222         4    ;  uncertainty k = 0.289871
         3        10        11        22     9        0.000000       -0.450242         1    ;  uncertainty k = 0.545961
         3        10        11        22     9      180.000000        7.277498         2    ;  uncertainty k = 0.507155
         3        10        11        22     9        0.000000        0.947975         3    ;  uncertainty k = 0.131142
         3        10        11        22     9      180.000000        0.543526         4    ;  uncertainty k = 0.279768
         4         3        10         9     9        0.000000        0.496420         1    ;  uncertainty k = 1.832567
         4         3        10         9     9      180.000000        7.573487         2    ;  uncertainty k = 0.735677
         4         3        10         9     9        0.000000        1.178887         3    ;  uncertainty k = 0.125465
         4         3        10         9     9      180.000000        0.005940         4    ;  uncertainty k = 0.102348
         4         3        10        11     9        0.000000        0.496420         1    ;  uncertainty k = 1.832567
         4         3        10        11     9      180.000000        7.573487         2    ;  uncertainty k = 0.735677
         4         3        10        11     9        0.000000        1.178887         3    ;  uncertainty k = 0.125465
         4         3        10        11     9      180.000000        0.005940         4    ;  uncertainty k = 0.102348
         4         5         6        19     9        0.000000        0.323492         1    ;  uncertainty k = 0.573575
         4         5         6        19     9      180.000000        8.427377         2    ;  uncertainty k = 0.712989
         4         5         6        19     9        0.000000        2.103340         3    ;  uncertainty k = 0.347201
         4         5         6        19     9      180.000000        0.966007         4    ;  uncertainty k = 0.424542
         4        16        15        14     9        0.000000        0.244623         1    ;  uncertainty k = 0.364587
         4        16        15        14     9      180.000000        8.777576         2    ;  uncertainty k = 0.506605
         4        16        15        14     9        0.000000        1.204611         3    ;  uncertainty k = 0.317859
         4        16        15        14     9      180.000000        1.930500         4    ;  uncertainty k = 0.212294
         4        16        15        25     9        0.000000       -0.281068         1    ;  uncertainty k = 0.166996
         4        16        15        25     9      180.000000        7.429076         2    ;  uncertainty k = 0.523888
         4        16        15        25     9        0.000000        0.740308         3    ;  uncertainty k = 0.138975
         4        16        15        25     9      180.000000        1.219405         4    ;  uncertainty k = 0.164843
         4        16        17        18     9        0.000000        0.244623         1    ;  uncertainty k = 0.364587
         4        16        17        18     9      180.000000        8.777576         2    ;  uncertainty k = 0.506605
         4        16        17        18     9        0.000000        1.204611         3    ;  uncertainty k = 0.317859
         4        16        17        18     9      180.000000        1.930500         4    ;  uncertainty k = 0.212294
         4        16        17        26     9        0.000000       -0.281068         1    ;  uncertainty k = 0.166996
         4        16        17        26     9      180.000000        7.429076         2    ;  uncertainty k = 0.523888
         4        16        17        26     9        0.000000        0.740308         3    ;  uncertainty k = 0.138975
         4        16        17        26     9      180.000000        1.219405         4    ;  uncertainty k = 0.164843
         5         4         3        10     9        0.000000       -1.031913         1    ;  uncertainty k = 0.797253
         5         4         3        10     9      180.000000        4.089163         2    ;  uncertainty k = 1.700494
         5         4         3        10     9        0.000000        0.137628         3    ;  uncertainty k = 0.873457
         5         4         3        10     9      180.000000        0.495890         4    ;  uncertainty k = 0.601058
         5         4        16        15     9        0.000000        0.577089         1    ;  uncertainty k = 0.771269
         5         4        16        15     9      180.000000        5.298508         2    ;  uncertainty k = 0.334426
         5         4        16        15     9        0.000000        0.480066         3    ;  uncertainty k = 0.134057
         5         4        16        15     9      180.000000        0.149158         4    ;  uncertainty k = 0.112879
         5         4        16        17     9        0.000000        0.577089         1    ;  uncertainty k = 0.771269
         5         4        16        17     9      180.000000        5.298508         2    ;  uncertainty k = 0.334426
         5         4        16        17     9        0.000000        0.480066         3    ;  uncertainty k = 0.134057
         5         4        16        17     9      180.000000        0.149158         4    ;  uncertainty k = 0.112879
         5         6        19        28     9        0.000000       20.010442         1    ;  uncertainty k = 0.259650
         5         6        19        28     9      180.000000       10.182111         2    ;  uncertainty k = 0.370307
         5         6        19        28     9        0.000000        0.832804         3    ;  uncertainty k = 0.221692
         5         6        19        28     9      180.000000       -0.316472         4    ;  uncertainty k = 0.214044
         5         6        19        29     9        0.000000       20.010442         1    ;  uncertainty k = 0.259650
         5         6        19        29     9      180.000000       10.182111         2    ;  uncertainty k = 0.370307
         5         6        19        29     9        0.000000        0.832804         3    ;  uncertainty k = 0.221692
         5         6        19        29     9      180.000000       -0.316472         4    ;  uncertainty k = 0.214044
         6         5         4        16     9        0.000000        0.671482         1    ;  uncertainty k = 0.595294
         6         5         4        16     9      180.000000       15.998898         2    ;  uncertainty k = 0.727265
         6         5         4        16     9        0.000000        2.088123         3    ;  uncertainty k = 0.689736
         6         5         4        16     9      180.000000        1.669828         4    ;  uncertainty k = 0.442946
         7         8         9        10     9        0.000000       -0.123322         1    ;  uncertainty k = 0.298356
         7         8         9        10     9      180.000000       14.375575         2    ;  uncertainty k = 0.520205
         7         8         9        10     9        0.000000        0.005148         3    ;  uncertainty k = 0.538297
         7         8         9        10     9      180.000000        1.039243         4    ;  uncertainty k = 0.486428
         7         8         9        21     9        0.000000        0.438364         1    ;  uncertainty k = 0.421631
         7         8         9        21     9      180.000000       10.477200         2    ;  uncertainty k = 0.565454
         7         8         9        21     9        0.000000        1.078064         3    ;  uncertainty k = 0.254514
         7         8         9        21     9      180.000000        1.346537         4    ;  uncertainty k = 0.231357
         7         8        34        35     9        0.000000        0.080054         1    ;  uncertainty k = 0.311138
         7         8        34        35     9      180.000000        1.574426         2    ;  uncertainty k = 0.451618
         7         8        34        35     9        0.000000        0.385224         3    ;  uncertainty k = 0.178627
         7         8        34        35     9      180.000000        0.265025         4    ;  uncertainty k = 0.128075
         7         8        34        36     9        0.000000        0.080054         1    ;  uncertainty k = 0.311138
         7         8        34        36     9      180.000000        1.574426         2    ;  uncertainty k = 0.451618
         7         8        34        36     9        0.000000        0.385224         3    ;  uncertainty k = 0.178627
         7         8        34        36     9      180.000000        0.265025         4    ;  uncertainty k = 0.128075
         7         8        34        37     9        0.000000        0.080054         1    ;  uncertainty k = 0.311138
         7         8        34        37     9      180.000000        1.574426         2    ;  uncertainty k = 0.451618
         7         8        34        37     9        0.000000        0.385224         3    ;  uncertainty k = 0.178627
         7         8        34        37     9      180.000000        0.265025         4    ;  uncertainty k = 0.128075
         7        12        11        10     9        0.000000       -0.123322         1    ;  uncertainty k = 0.298356
         7        12        11        10     9      180.000000       14.375575         2    ;  uncertainty k = 0.520205
         7        12        11        10     9        0.000000        0.005148         3    ;  uncertainty k = 0.538297
         7        12        11        10     9      180.000000        1.039243         4    ;  uncertainty k = 0.486428
         7        12        11        22     9        0.000000        0.438364         1    ;  uncertainty k = 0.421631
         7        12        11        22     9      180.000000       10.477200         2    ;  uncertainty k = 0.565454
         7        12        11        22     9        0.000000        1.078064         3    ;  uncertainty k = 0.254514
         7        12        11        22     9      180.000000        1.346537         4    ;  uncertainty k = 0.231357
         7        12        30        31     9        0.000000        0.080054         1    ;  uncertainty k = 0.311138
         7        12        30        31     9      180.000000        1.574426         2    ;  uncertainty k = 0.451618
         7        12        30        31     9        0.000000        0.385224         3    ;  uncertainty k = 0.178627
         7        12        30        31     9      180.000000        0.265025         4    ;  uncertainty k = 0.128075
         7        12        30        32     9        0.000000        0.080054         1    ;  uncertainty k = 0.311138
         7        12        30        32     9      180.000000        1.574426         2    ;  uncertainty k = 0.451618
         7        12        30        32     9        0.000000        0.385224         3    ;  uncertainty k = 0.178627
         7        12        30        32     9      180.000000        0.265025         4    ;  uncertainty k = 0.128075
         7        12        30        33     9        0.000000        0.080054         1    ;  uncertainty k = 0.311138
         7        12        30        33     9      180.000000        1.574426         2    ;  uncertainty k = 0.451618
         7        12        30        33     9        0.000000        0.385224         3    ;  uncertainty k = 0.178627
         7        12        30        33     9      180.000000        0.265025         4    ;  uncertainty k = 0.128075
         8         7        12        11     9        0.000000        0.446979         1    ;  uncertainty k = 1.530331
         8         7        12        11     9      180.000000        4.431782         2    ;  uncertainty k = 1.005550
         8         7        12        11     9        0.000000        0.744702         3    ;  uncertainty k = 0.459923
         8         7        12        11     9      180.000000        0.400789         4    ;  uncertainty k = 0.348398
         8         7        12        30     9        0.000000        0.786450         1    ;  uncertainty k = 1.580473
         8         7        12        30     9      180.000000        5.865953         2    ;  uncertainty k = 0.905965
         8         7        12        30     9        0.000000        0.878179         3    ;  uncertainty k = 0.466014
         8         7        12        30     9      180.000000        0.705856         4    ;  uncertainty k = 0.272059
         8         9        10        11     9        0.000000       -0.291753         1    ;  uncertainty k = 0.384948
         8         9        10        11     9      180.000000       10.827706         2    ;  uncertainty k = 0.603373
         8         9        10        11     9        0.000000       -0.731103         3    ;  uncertainty k = 0.567616
         8         9        10        11     9      180.000000        1.035284         4    ;  uncertainty k = 0.123280
         9         8         7        12     9        0.000000        0.446979         1    ;  uncertainty k = 1.530331
         9         8         7        12     9      180.000000        4.431782         2    ;  uncertainty k = 1.005550
         9         8         7        12     9        0.000000        0.744702         3    ;  uncertainty k = 0.459923
         9         8         7        12     9      180.000000        0.400789         4    ;  uncertainty k = 0.348398
         9         8         7        20     9        0.000000        1.267165         1    ;  uncertainty k = 1.690899
         9         8         7        20     9      180.000000        6.438143         2    ;  uncertainty k = 0.719971
         9         8         7        20     9        0.000000        0.499560         3    ;  uncertainty k = 0.317903
         9         8         7        20     9      180.000000        0.686055         4    ;  uncertainty k = 0.352494
         9         8        34        35     9        0.000000        0.140827         1    ;  uncertainty k = 0.178488
         9         8        34        35     9      180.000000        1.117481         2    ;  uncertainty k = 0.631241
         9         8        34        35     9        0.000000        0.059944         3    ;  uncertainty k = 0.161614
         9         8        34        35     9      180.000000        0.189902         4    ;  uncertainty k = 0.113521
         9         8        34        36     9        0.000000        0.140827         1    ;  uncertainty k = 0.178488
         9         8        34        36     9      180.000000        1.117481         2    ;  uncertainty k = 0.631241
         9         8        34        36     9        0.000000        0.059944         3    ;  uncertainty k = 0.161614
         9         8        34        36     9      180.000000        0.189902         4    ;  uncertainty k = 0.113521
         9         8        34        37     9        0.000000        0.140827         1    ;  uncertainty k = 0.178488
         9         8        34        37     9      180.000000        1.117481         2    ;  uncertainty k = 0.631241
         9         8        34        37     9        0.000000        0.059944         3    ;  uncertainty k = 0.161614
         9         8        34        37     9      180.000000        0.189902         4    ;  uncertainty k = 0.113521
         9        10        11        12     9        0.000000       -0.291753         1    ;  uncertainty k = 0.384948
         9        10        11        12     9      180.000000       10.827706         2    ;  uncertainty k = 0.603373
         9        10        11        12     9        0.000000       -0.731103         3    ;  uncertainty k = 0.567616
         9        10        11        12     9      180.000000        1.035284         4    ;  uncertainty k = 0.123280
         9        10        11        22     9        0.000000        0.043787         1    ;  uncertainty k = 0.564005
         9        10        11        22     9      180.000000        8.455018         2    ;  uncertainty k = 0.305209
         9        10        11        22     9        0.000000        0.984835         3    ;  uncertainty k = 0.374530
         9        10        11        22     9      180.000000        0.989660         4    ;  uncertainty k = 0.129600
        10         3         4        16     9        0.000000       -0.197826         1    ;  uncertainty k = 0.922323
        10         3         4        16     9      180.000000        3.739182         2    ;  uncertainty k = 1.279943
        10         3         4        16     9        0.000000        0.578032         3    ;  uncertainty k = 0.685866
        10         3         4        16     9      180.000000        0.578908         4    ;  uncertainty k = 0.410480
        10         9         8        34     9        0.000000        0.142139         1    ;  uncertainty k = 0.230739
        10         9         8        34     9      180.000000       12.931301         2    ;  uncertainty k = 0.648676
        10         9         8        34     9        0.000000        1.413802         3    ;  uncertainty k = 0.280084
        10         9         8        34     9      180.000000        1.579060         4    ;  uncertainty k = 0.347515
        10        11        12        30     9        0.000000        0.142139         1    ;  uncertainty k = 0.230739
        10        11        12        30     9      180.000000       12.931301         2    ;  uncertainty k = 0.648676
        10        11        12        30     9        0.000000        1.413802         3    ;  uncertainty k = 0.280084
        10        11        12        30     9      180.000000        1.579060         4    ;  uncertainty k = 0.347515
        11        10         9        21     9        0.000000        0.043787         1    ;  uncertainty k = 0.564005
        11        10         9        21     9      180.000000        8.455018         2    ;  uncertainty k = 0.305209
        11        10         9        21     9        0.000000        0.984835         3    ;  uncertainty k = 0.374530
        11        10         9        21     9      180.000000        0.989660         4    ;  uncertainty k = 0.129600
        11        12         7        20     9        0.000000        1.267165         1    ;  uncertainty k = 1.690899
        11        12         7        20     9      180.000000        6.438143         2    ;  uncertainty k = 0.719971
        11        12         7        20     9        0.000000        0.499560         3    ;  uncertainty k = 0.317903
        11        12         7        20     9      180.000000        0.686055         4    ;  uncertainty k = 0.352494
        11        12        30        31     9        0.000000        0.140827         1    ;  uncertainty k = 0.178488
        11        12        30        31     9      180.000000        1.117481         2    ;  uncertainty k = 0.631241
        11        12        30        31     9        0.000000        0.059944         3    ;  uncertainty k = 0.161614
        11        12        30        31     9      180.000000        0.189902         4    ;  uncertainty k = 0.113521
        11        12        30        32     9        0.000000        0.140827         1    ;  uncertainty k = 0.178488
        11        12        30        32     9      180.000000        1.117481         2    ;  uncertainty k = 0.631241
        11        12        30        32     9        0.000000        0.059944         3    ;  uncertainty k = 0.161614
        11        12        30        32     9      180.000000        0.189902         4    ;  uncertainty k = 0.113521
        11        12        30        33     9        0.000000        0.140827         1    ;  uncertainty k = 0.178488
        11        12        30        33     9      180.000000        1.117481         2    ;  uncertainty k = 0.631241
        11        12        30        33     9        0.000000        0.059944         3    ;  uncertainty k = 0.161614
        11        12        30        33     9      180.000000        0.189902         4    ;  uncertainty k = 0.113521
        12         7         8        34     9        0.000000        0.786450         1    ;  uncertainty k = 1.580473
        12         7         8        34     9      180.000000        5.865953         2    ;  uncertainty k = 0.905965
        12         7         8        34     9        0.000000        0.878179         3    ;  uncertainty k = 0.466014
        12         7         8        34     9      180.000000        0.705856         4    ;  uncertainty k = 0.272059
        13        14        15        16     9        0.000000       -0.085156         1    ;  uncertainty k = 0.101326
        13        14        15        16     9      180.000000       13.800477         2    ;  uncertainty k = 0.268312
        13        14        15        16     9        0.000000       -0.771380         3    ;  uncertainty k = 0.430279
        13        14        15        16     9      180.000000        0.763186         4    ;  uncertainty k = 0.221620
        13        14        15        25     9        0.000000        0.040792         1    ;  uncertainty k = 0.098340
        13        14        15        25     9      180.000000        7.829050         2    ;  uncertainty k = 0.220837
        13        14        15        25     9        0.000000        1.377807         3    ;  uncertainty k = 0.305455
        13        14        15        25     9      180.000000        1.862040         4    ;  uncertainty k = 0.175515
        13        18        17        16     9        0.000000       -0.085156         1    ;  uncertainty k = 0.101326
        13        18        17        16     9      180.000000       13.800477         2    ;  uncertainty k = 0.268312
        13        18        17        16     9        0.000000       -0.771380         3    ;  uncertainty k = 0.430279
        13        18        17        16     9      180.000000        0.763186         4    ;  uncertainty k = 0.221620
        13        18        17        26     9        0.000000        0.040792         1    ;  uncertainty k = 0.098340
        13        18        17        26     9      180.000000        7.829050         2    ;  uncertainty k = 0.220837
        13        18        17        26     9        0.000000        1.377807         3    ;  uncertainty k = 0.305455
        13        18        17        26     9      180.000000        1.862040         4    ;  uncertainty k = 0.175515
        14        13        18        17     9        0.000000       -0.039609         1    ;  uncertainty k = 0.058508
        14        13        18        17     9      180.000000       14.728850         2    ;  uncertainty k = 0.270498
        14        13        18        17     9        0.000000       -1.116008         3    ;  uncertainty k = 0.461534
        14        13        18        17     9      180.000000        0.570638         4    ;  uncertainty k = 0.262850
        14        13        18        27     9        0.000000        0.060280         1    ;  uncertainty k = 0.046484
        14        13        18        27     9      180.000000        7.580498         2    ;  uncertainty k = 0.301291
        14        13        18        27     9        0.000000        1.432917         3    ;  uncertainty k = 0.310397
        14        13        18        27     9      180.000000        1.808653         4    ;  uncertainty k = 0.112983
        14        15        16        17     9        0.000000       -0.228846         1    ;  uncertainty k = 0.099621
        14        15        16        17     9      180.000000       11.519585         2    ;  uncertainty k = 0.245642
        14        15        16        17     9        0.000000       -0.708965         3    ;  uncertainty k = 0.222667
        14        15        16        17     9      180.000000        0.889608         4    ;  uncertainty k = 0.283730
        15        14        13        18     9        0.000000       -0.039609         1    ;  uncertainty k = 0.058508
        15        14        13        18     9      180.000000       14.728850         2    ;  uncertainty k = 0.270498
        15        14        13        18     9        0.000000       -1.116008         3    ;  uncertainty k = 0.461534
        15        14        13        18     9      180.000000        0.570638         4    ;  uncertainty k = 0.262850
        15        14        13        23     9        0.000000        0.018696         1    ;  uncertainty k = 0.067612
        15        14        13        23     9      180.000000        7.446532         2    ;  uncertainty k = 0.246906
        15        14        13        23     9        0.000000        1.463058         3    ;  uncertainty k = 0.239087
        15        14        13        23     9      180.000000        1.786839         4    ;  uncertainty k = 0.161485
        15        16        17        18     9        0.000000       -0.228846         1    ;  uncertainty k = 0.099621
        15        16        17        18     9      180.000000       11.519585         2    ;  uncertainty k = 0.245642
        15        16        17        18     9        0.000000       -0.708965         3    ;  uncertainty k = 0.222667
        15        16        17        18     9      180.000000        0.889608         4    ;  uncertainty k = 0.283730
        15        16        17        26     9        0.000000        0.168842         1    ;  uncertainty k = 0.107557
        15        16        17        26     9      180.000000        7.056492         2    ;  uncertainty k = 0.442030
        15        16        17        26     9        0.000000        1.360330         3    ;  uncertainty k = 0.161756
        15        16        17        26     9      180.000000        1.681350         4    ;  uncertainty k = 0.250468
        16        15        14        24     9        0.000000        0.000276         1    ;  uncertainty k = 0.169363
        16        15        14        24     9      180.000000        7.621252         2    ;  uncertainty k = 0.320005
        16        15        14        24     9        0.000000        1.446360         3    ;  uncertainty k = 0.172877
        16        15        14        24     9      180.000000        1.823296         4    ;  uncertainty k = 0.150540
        16        17        18        27     9        0.000000        0.000276         1    ;  uncertainty k = 0.169363
        16        17        18        27     9      180.000000        7.621252         2    ;  uncertainty k = 0.320005
        16        17        18        27     9        0.000000        1.446360         3    ;  uncertainty k = 0.172877
        16        17        18        27     9      180.000000        1.823296         4    ;  uncertainty k = 0.150540
        17        16        15        25     9        0.000000        0.168842         1    ;  uncertainty k = 0.107557
        17        16        15        25     9      180.000000        7.056492         2    ;  uncertainty k = 0.442030
        17        16        15        25     9        0.000000        1.360330         3    ;  uncertainty k = 0.161756
        17        16        15        25     9      180.000000        1.681350         4    ;  uncertainty k = 0.250468
        17        18        13        23     9        0.000000        0.018696         1    ;  uncertainty k = 0.067612
        17        18        13        23     9      180.000000        7.446532         2    ;  uncertainty k = 0.246906
        17        18        13        23     9        0.000000        1.463058         3    ;  uncertainty k = 0.239087
        17        18        13        23     9      180.000000        1.786839         4    ;  uncertainty k = 0.161485
        18        13        14        24     9        0.000000        0.060280         1    ;  uncertainty k = 0.046484
        18        13        14        24     9      180.000000        7.580498         2    ;  uncertainty k = 0.301291
        18        13        14        24     9        0.000000        1.432917         3    ;  uncertainty k = 0.310397
        18        13        14        24     9      180.000000        1.808653         4    ;  uncertainty k = 0.112983
        20         7         8        34     9        0.000000       -0.137854         1    ;  uncertainty k = 0.688159
        20         7         8        34     9      180.000000       11.002664         2    ;  uncertainty k = 0.966231
        20         7         8        34     9        0.000000        0.192435         3    ;  uncertainty k = 0.491459
        20         7         8        34     9      180.000000        0.747342         4    ;  uncertainty k = 0.362850
        20         7        12        30     9        0.000000       -0.137854         1    ;  uncertainty k = 0.688159
        20         7        12        30     9      180.000000       11.002664         2    ;  uncertainty k = 0.966231
        20         7        12        30     9        0.000000        0.192435         3    ;  uncertainty k = 0.491459
        20         7        12        30     9      180.000000        0.747342         4    ;  uncertainty k = 0.362850
        21         9         8        34     9        0.000000        0.218292         1    ;  uncertainty k = 0.426181
        21         9         8        34     9      180.000000       10.342942         2    ;  uncertainty k = 0.561177
        21         9         8        34     9        0.000000        1.042237         3    ;  uncertainty k = 0.236418
        21         9         8        34     9      180.000000        1.192784         4    ;  uncertainty k = 0.396801
        22        11        12        30     9        0.000000        0.218292         1    ;  uncertainty k = 0.426181
        22        11        12        30     9      180.000000       10.342942         2    ;  uncertainty k = 0.561177
        22        11        12        30     9        0.000000        1.042237         3    ;  uncertainty k = 0.236418
        22        11        12        30     9      180.000000        1.192784         4    ;  uncertainty k = 0.396801
        23        13        14        24     9        0.000000       -0.086959         1    ;  uncertainty k = 0.086880
        23        13        14        24     9      180.000000        7.713489         2    ;  uncertainty k = 0.410363
        23        13        14        24     9        0.000000       -0.420918         3    ;  uncertainty k = 0.300483
        23        13        14        24     9      180.000000        0.039571         4    ;  uncertainty k = 0.147961
        23        13        18        27     9        0.000000       -0.086959         1    ;  uncertainty k = 0.086880
        23        13        18        27     9      180.000000        7.713489         2    ;  uncertainty k = 0.410363
        23        13        18        27     9        0.000000       -0.420918         3    ;  uncertainty k = 0.300483
        23        13        18        27     9      180.000000        0.039571         4    ;  uncertainty k = 0.147961
        24        14        15        25     9        0.000000       -0.159865         1    ;  uncertainty k = 0.133584
        24        14        15        25     9      180.000000        7.859188         2    ;  uncertainty k = 0.325421
        24        14        15        25     9        0.000000       -0.450050         3    ;  uncertainty k = 0.281622
        24        14        15        25     9      180.000000        0.154829         4    ;  uncertainty k = 0.122641
        26        17        18        27     9        0.000000       -0.159865         1    ;  uncertainty k = 0.133584
        26        17        18        27     9      180.000000        7.859188         2    ;  uncertainty k = 0.325421
        26        17        18        27     9        0.000000       -0.450050         3    ;  uncertainty k = 0.281622
        26        17        18        27     9      180.000000        0.154829         4    ;  uncertainty k = 0.122641

[ dihedrals ] ; impropers
;       ai        aj        ak        al funct           phase               k        pn
         3         2         4        10     4      180.000000       21.571494         2    ;  uncertainty k = 0.178676
         3         4        10         2     4      180.000000       21.571494         2    ;  uncertainty k = 0.178676
         3        10         2         4     4      180.000000       21.571494         2    ;  uncertainty k = 0.178676
         4         3         5        16     4      180.000000       29.488450         2    ;  uncertainty k = 0.032613
         4         5        16         3     4      180.000000       29.488450         2    ;  uncertainty k = 0.032613
         4        16         3         5     4      180.000000       29.488450         2    ;  uncertainty k = 0.032613
         6         1         5        19     4      180.000000       43.323642         2    ;  uncertainty k = 0.063442
         6         5        19         1     4      180.000000       43.323642         2    ;  uncertainty k = 0.063442
         6        19         1         5     4      180.000000       43.323642         2    ;  uncertainty k = 0.063442
         7         8        12        20     4      180.000000       38.833133         2    ;  uncertainty k = 0.249732
         7        12        20         8     4      180.000000       38.833133         2    ;  uncertainty k = 0.249732
         7        20         8        12     4      180.000000       38.833133         2    ;  uncertainty k = 0.249732
         8         7         9        34     4      180.000000        5.172553         2    ;  uncertainty k = 0.568234
         8         9        34         7     4      180.000000        5.172553         2    ;  uncertainty k = 0.568234
         8        34         7         9     4      180.000000        5.172553         2    ;  uncertainty k = 0.568234
         9         8        10        21     4      180.000000        3.660382         2    ;  uncertainty k = 0.436516
         9        10        21         8     4      180.000000        3.660382         2    ;  uncertainty k = 0.436516
         9        21         8        10     4      180.000000        3.660382         2    ;  uncertainty k = 0.436516
        10         3         9        11     4      180.000000        1.925652         2    ;  uncertainty k = 1.909726
        10         9        11         3     4      180.000000        1.925652         2    ;  uncertainty k = 1.909726
        10        11         3         9     4      180.000000        1.925652         2    ;  uncertainty k = 1.909726
        11        10        12        22     4      180.000000        3.660382         2    ;  uncertainty k = 0.436516
        11        12        22        10     4      180.000000        3.660382         2    ;  uncertainty k = 0.436516
        11        22        10        12     4      180.000000        3.660382         2    ;  uncertainty k = 0.436516
        12         7        11        30     4      180.000000        5.172553         2    ;  uncertainty k = 0.568234
        12        11        30         7     4      180.000000        5.172553         2    ;  uncertainty k = 0.568234
        12        30         7        11     4      180.000000        5.172553         2    ;  uncertainty k = 0.568234
        13        14        18        23     4      180.000000        4.673371         2    ;  uncertainty k = 0.190293
        13        18        23        14     4      180.000000        4.673371         2    ;  uncertainty k = 0.190293
        13        23        14        18     4      180.000000        4.673371         2    ;  uncertainty k = 0.190293
        14        13        15        24     4      180.000000        4.310919         2    ;  uncertainty k = 0.072052
        14        15        24        13     4      180.000000        4.310919         2    ;  uncertainty k = 0.072052
        14        24        13        15     4      180.000000        4.310919         2    ;  uncertainty k = 0.072052
        15        14        16        25     4      180.000000        4.275767         2    ;  uncertainty k = 0.092511
        15        16        25        14     4      180.000000        4.275767         2    ;  uncertainty k = 0.092511
        15        25        14        16     4      180.000000        4.275767         2    ;  uncertainty k = 0.092511
        16         4        15        17     4      180.000000       10.064639         2    ;  uncertainty k = 0.105291
        16        15        17         4     4      180.000000       10.064639         2    ;  uncertainty k = 0.105291
        16        17         4        15     4      180.000000       10.064639         2    ;  uncertainty k = 0.105291
        17        16        18        26     4      180.000000        4.275767         2    ;  uncertainty k = 0.092511
        17        18        26        16     4      180.000000        4.275767         2    ;  uncertainty k = 0.092511
        17        26        16        18     4      180.000000        4.275767         2    ;  uncertainty k = 0.092511
        18        13        17        27     4      180.000000        4.310919         2    ;  uncertainty k = 0.072052
        18        17        27        13     4      180.000000        4.310919         2    ;  uncertainty k = 0.072052
        18        27        13        17     4      180.000000        4.310919         2    ;  uncertainty k = 0.072052
        19         6        28        29     4      180.000000        0.390383         2    ;  uncertainty k = 0.522838
        19        28        29         6     4      180.000000        0.390383         2    ;  uncertainty k = 0.522838
        19        29         6        28     4      180.000000        0.390383         2    ;  uncertainty k = 0.522838

[ pairs ]
;       ai        aj funct
         1         4     1
         1        10     1
         1        28     1
         1        29     1
         2         5     1
         2         9     1
         2        11     1
         2        16     1
         2        19     1
         3         6     1
         3         8     1
         3        12     1
         3        15     1
         3        17     1
         3        21     1
         3        22     1
         4         9     1
         4        11     1
         4        14     1
         4        18     1
         4        19     1
         4        25     1
         4        26     1
         5        10     1
         5        15     1
         5        17     1
         5        28     1
         5        29     1
         6        16     1
         7        10     1
         7        21     1
         7        22     1
         7        31     1
         7        32     1
         7        33     1
         7        35     1
         7        36     1
         7        37     1
         8        11     1
         8        30     1
         9        12     1
         9        20     1
         9        22     1
         9        35     1
         9        36     1
         9        37     1
        10        16     1
        10        30     1
        10        34     1
        11        20     1
        11        21     1
        11        31     1
        11        32     1
        11        33     1
        12        34     1
        13        16     1
        13        25     1
        13        26     1
        14        17     1
        14        27     1
        15        18     1
        15        23     1
        15        26     1
        16        24     1
        16        27     1
        17        23     1
        17        25     1
        18        24     1
        20        30     1
        20        34     1
        21        34     1
        22        30     1
        23        24     1
        23        27     1
        24        25     1
        26        27     1
