; ITP file created by ByteFF-joint-25, 2025-07-14 11:28:10.397952

[ atomtypes ]
;name           bonded.type        at.num        mass        charge   ptype           sigma         epsilon
 n0bf                                   7      0.0000       0.00000       A     3.38457e-01     3.93065e-01    ;  uncertainty sigma = 0.000033, epsilon = 0.002906
 n1bf                                   7      0.0000       0.00000       A     3.38476e-01     3.93713e-01    ;  uncertainty sigma = 0.000022, epsilon = 0.001198
 c2bf                                   6      0.0000       0.00000       A     3.31542e-01     4.12809e-01    ;  uncertainty sigma = 0.000017, epsilon = 0.001394
 c3bf                                   6      0.0000       0.00000       A     3.31532e-01     4.12868e-01    ;  uncertainty sigma = 0.000013, epsilon = 0.000681
 n4bf                                   7      0.0000       0.00000       A     3.38467e-01     3.94052e-01    ;  uncertainty sigma = 0.000030, epsilon = 0.001987
 c5bf                                   6      0.0000       0.00000       A     3.31538e-01     4.13311e-01    ;  uncertainty sigma = 0.000020, epsilon = 0.001585
 n6bf                                   7      0.0000       0.00000       A     3.38429e-01     3.93661e-01    ;  uncertainty sigma = 0.000008, epsilon = 0.000638
 c7bf                                   6      0.0000       0.00000       A     3.31520e-01     4.13292e-01    ;  uncertainty sigma = 0.000004, epsilon = 0.000788
 c8bf                                   6      0.0000       0.00000       A     3.31522e-01     4.13566e-01    ;  uncertainty sigma = 0.000009, epsilon = 0.000967
 c9bf                                   6      0.0000       0.00000       A     3.31540e-01     4.13231e-01    ;  uncertainty sigma = 0.000015, epsilon = 0.001090
 c10bf                                  6      0.0000       0.00000       A     3.31522e-01     4.13566e-01    ;  uncertainty sigma = 0.000009, epsilon = 0.000967
 c11bf                                  6      0.0000       0.00000       A     3.31520e-01     4.13292e-01    ;  uncertainty sigma = 0.000004, epsilon = 0.000788
 c12bf                                  6      0.0000       0.00000       A     3.31518e-01     4.13340e-01    ;  uncertainty sigma = 0.000003, epsilon = 0.000580
 c13bf                                  6      0.0000       0.00000       A     3.31519e-01     4.13380e-01    ;  uncertainty sigma = 0.000002, epsilon = 0.000627
 c14bf                                  6      0.0000       0.00000       A     3.31517e-01     4.13568e-01    ;  uncertainty sigma = 0.000002, epsilon = 0.000944
 c15bf                                  6      0.0000       0.00000       A     3.31548e-01     4.13550e-01    ;  uncertainty sigma = 0.000019, epsilon = 0.000920
 c16bf                                  6      0.0000       0.00000       A     3.31517e-01     4.13568e-01    ;  uncertainty sigma = 0.000002, epsilon = 0.000944
 c17bf                                  6      0.0000       0.00000       A     3.31519e-01     4.13380e-01    ;  uncertainty sigma = 0.000002, epsilon = 0.000627
 n18bf                                  7      0.0000       0.00000       A     3.36801e-01     4.68954e-01    ;  uncertainty sigma = 0.000066, epsilon = 0.001925
 c19bf                                  6      0.0000       0.00000       A     3.39774e-01     4.50938e-01    ;  uncertainty sigma = 0.000004, epsilon = 0.000493
 c20bf                                  6      0.0000       0.00000       A     3.39774e-01     4.50938e-01    ;  uncertainty sigma = 0.000004, epsilon = 0.000493
 h21bf                                  1      0.0000       0.00000       A     2.62561e-01     6.68873e-02    ;  uncertainty sigma = 0.000007, epsilon = 0.000486
 h22bf                                  1      0.0000       0.00000       A     2.62561e-01     6.68873e-02    ;  uncertainty sigma = 0.000007, epsilon = 0.000486
 h23bf                                  1      0.0000       0.00000       A     2.62552e-01     6.70645e-02    ;  uncertainty sigma = 0.000011, epsilon = 0.000453
 h24bf                                  1      0.0000       0.00000       A     2.62559e-01     6.70250e-02    ;  uncertainty sigma = 0.000010, epsilon = 0.000440
 h25bf                                  1      0.0000       0.00000       A     2.62560e-01     6.70283e-02    ;  uncertainty sigma = 0.000012, epsilon = 0.000523
 h26bf                                  1      0.0000       0.00000       A     2.62560e-01     6.70283e-02    ;  uncertainty sigma = 0.000012, epsilon = 0.000523
 h27bf                                  1      0.0000       0.00000       A     2.62559e-01     6.70250e-02    ;  uncertainty sigma = 0.000010, epsilon = 0.000440
 h28bf                                  1      0.0000       0.00000       A     1.10728e-01     4.07631e-02    ;  uncertainty sigma = 0.000034, epsilon = 0.001087
 h29bf                                  1      0.0000       0.00000       A     1.10728e-01     4.07631e-02    ;  uncertainty sigma = 0.000034, epsilon = 0.001087
 h30bf                                  1      0.0000       0.00000       A     2.60034e-01     8.66333e-02    ;  uncertainty sigma = 0.000007, epsilon = 0.000537
 h31bf                                  1      0.0000       0.00000       A     2.60034e-01     8.66333e-02    ;  uncertainty sigma = 0.000007, epsilon = 0.000537
 h32bf                                  1      0.0000       0.00000       A     2.60034e-01     8.66333e-02    ;  uncertainty sigma = 0.000007, epsilon = 0.000537
 h33bf                                  1      0.0000       0.00000       A     2.60034e-01     8.66333e-02    ;  uncertainty sigma = 0.000007, epsilon = 0.000537
 h34bf                                  1      0.0000       0.00000       A     2.60034e-01     8.66333e-02    ;  uncertainty sigma = 0.000007, epsilon = 0.000537
 h35bf                                  1      0.0000       0.00000       A     2.60034e-01     8.66333e-02    ;  uncertainty sigma = 0.000007, epsilon = 0.000537

[ moleculetype ]
;name             nrexcl
 MOL                   3

[ atoms ]
;       nr            type      resi   res      atom      cgnr      charge          mass ; qtot
         1            n0bf         1   UNL        n0         1    -0.40685       14.0070 ; qtot   -0.407
         2            n1bf         1   UNL        n1         2    -0.24885       14.0070 ; qtot   -0.656
         3            c2bf         1   UNL        c2         3     0.25349       12.0110 ; qtot   -0.402
         4            c3bf         1   UNL        c3         4     0.47260       12.0110 ; qtot    0.070
         5            n4bf         1   UNL        n4         5    -0.73822       14.0070 ; qtot   -0.668
         6            c5bf         1   UNL        c5         6     0.82167       12.0110 ; qtot    0.154
         7            n6bf         1   UNL        n6         7    -0.67637       14.0070 ; qtot   -0.523
         8            c7bf         1   UNL        c7         8     0.42542       12.0110 ; qtot   -0.097
         9            c8bf         1   UNL        c8         9    -0.22362       12.0110 ; qtot   -0.321
        10            c9bf         1   UNL        c9        10    -0.10358       12.0110 ; qtot   -0.424
        11           c10bf         1   UNL       c10        11    -0.22362       12.0110 ; qtot   -0.648
        12           c11bf         1   UNL       c11        12     0.42542       12.0110 ; qtot   -0.223
        13           c12bf         1   UNL       c12        13    -0.11402       12.0110 ; qtot   -0.337
        14           c13bf         1   UNL       c13        14    -0.13628       12.0110 ; qtot   -0.473
        15           c14bf         1   UNL       c14        15    -0.09093       12.0110 ; qtot   -0.564
        16           c15bf         1   UNL       c15        16    -0.17251       12.0110 ; qtot   -0.736
        17           c16bf         1   UNL       c16        17    -0.09093       12.0110 ; qtot   -0.827
        18           c17bf         1   UNL       c17        18    -0.13628       12.0110 ; qtot   -0.963
        19           n18bf         1   UNL       n18        19    -0.92625       14.0070 ; qtot   -1.890
        20           c19bf         1   UNL       c19        20    -0.14367       12.0110 ; qtot   -2.033
        21           c20bf         1   UNL       c20        21    -0.14367       12.0110 ; qtot   -2.177
        22           h21bf         1   UNL       h21        22     0.15442        1.0080 ; qtot   -2.023
        23           h22bf         1   UNL       h22        23     0.15442        1.0080 ; qtot   -1.868
        24           h23bf         1   UNL       h23        24     0.13373        1.0080 ; qtot   -1.734
        25           h24bf         1   UNL       h24        25     0.13437        1.0080 ; qtot   -1.600
        26           h25bf         1   UNL       h25        26     0.14424        1.0080 ; qtot   -1.456
        27           h26bf         1   UNL       h26        27     0.14424        1.0080 ; qtot   -1.312
        28           h27bf         1   UNL       h27        28     0.13437        1.0080 ; qtot   -1.177
        29           h28bf         1   UNL       h28        29     0.43092        1.0080 ; qtot   -0.746
        30           h29bf         1   UNL       h29        30     0.43092        1.0080 ; qtot   -0.315
        31           h30bf         1   UNL       h30        31     0.05257        1.0080 ; qtot   -0.263
        32           h31bf         1   UNL       h31        32     0.05257        1.0080 ; qtot   -0.210
        33           h32bf         1   UNL       h32        33     0.05257        1.0080 ; qtot   -0.158
        34           h33bf         1   UNL       h33        34     0.05257        1.0080 ; qtot   -0.105
        35           h34bf         1   UNL       h34        35     0.05257        1.0080 ; qtot   -0.053
        36           h35bf         1   UNL       h35        36     0.05257        1.0080 ; qtot   -0.000

[ bonds ]
;       ai        aj funct               r               k
         1         2     1        0.130778   361370.603955    ;  uncertainty r = 0.000176, k = 32.459970
         1         6     1        0.135400   366916.906592    ;  uncertainty r = 0.000241, k = 17.361955
         2         3     1        0.133388   332706.373389    ;  uncertainty r = 0.000442, k = 14.108441
         3         4     1        0.140438   327002.072656    ;  uncertainty r = 0.000194, k = 14.890359
         3        10     1        0.147840   270525.835938    ;  uncertainty r = 0.000161, k = 16.807698
         4         5     1        0.133035   420127.381152    ;  uncertainty r = 0.000119, k = 20.872352
         4        16     1        0.147775   265849.735840    ;  uncertainty r = 0.000153, k = 2.016089
         5         6     1        0.136102   532915.906348    ;  uncertainty r = 0.000140, k = 13.557526
         6        19     1        0.140058   625071.519727    ;  uncertainty r = 0.000422, k = 22.781256
         7         8     1        0.134356   381128.154736    ;  uncertainty r = 0.000055, k = 10.020677
         7        12     1        0.134356   381128.154736    ;  uncertainty r = 0.000055, k = 10.020677
         8         9     1        0.140085   355169.095703    ;  uncertainty r = 0.000040, k = 10.371912
         8        21     1        0.150959   260110.857861    ;  uncertainty r = 0.000008, k = 5.531583
         9        10     1        0.139483   362741.921191    ;  uncertainty r = 0.000059, k = 9.578120
         9        22     1        0.108794   338359.548828    ;  uncertainty r = 0.000026, k = 1.057088
        10        11     1        0.139483   362741.921191    ;  uncertainty r = 0.000059, k = 9.578120
        11        12     1        0.140085   355169.095703    ;  uncertainty r = 0.000040, k = 10.371912
        11        23     1        0.108794   338359.548828    ;  uncertainty r = 0.000026, k = 1.057088
        12        20     1        0.150959   260110.857861    ;  uncertainty r = 0.000008, k = 5.531583
        13        14     1        0.139638   371681.952441    ;  uncertainty r = 0.000015, k = 0.978306
        13        18     1        0.139638   371681.952441    ;  uncertainty r = 0.000015, k = 0.978306
        13        24     1        0.108841   334518.920801    ;  uncertainty r = 0.000012, k = 0.635598
        14        15     1        0.139410   364403.723047    ;  uncertainty r = 0.000027, k = 1.125537
        14        25     1        0.108844   333597.720654    ;  uncertainty r = 0.000013, k = 0.737651
        15        16     1        0.140052   345029.586426    ;  uncertainty r = 0.000032, k = 1.520525
        15        26     1        0.108717   333226.053564    ;  uncertainty r = 0.000015, k = 0.733478
        16        17     1        0.140052   345029.586426    ;  uncertainty r = 0.000032, k = 1.520525
        17        18     1        0.139410   364403.723047    ;  uncertainty r = 0.000027, k = 1.125537
        17        27     1        0.108717   333226.053564    ;  uncertainty r = 0.000015, k = 0.733478
        18        28     1        0.108844   333597.720654    ;  uncertainty r = 0.000013, k = 0.737651
        19        29     1        0.102196   439793.713379    ;  uncertainty r = 0.000076, k = 4.088413
        19        30     1        0.102196   439793.713379    ;  uncertainty r = 0.000076, k = 4.088413
        20        31     1        0.109471   310407.165186    ;  uncertainty r = 0.000016, k = 1.610809
        20        32     1        0.109471   310407.165186    ;  uncertainty r = 0.000016, k = 1.610809
        20        33     1        0.109471   310407.165186    ;  uncertainty r = 0.000016, k = 1.610809
        21        34     1        0.109471   310407.165186    ;  uncertainty r = 0.000016, k = 1.610809
        21        35     1        0.109471   310407.165186    ;  uncertainty r = 0.000016, k = 1.610803
        21        36     1        0.109471   310407.165186    ;  uncertainty r = 0.000016, k = 1.610803

[ angles ]
;       ai        aj        ak funct           theta             cth
         1         2         3     1      119.692001      625.298915    ;  uncertainty theta = 0.005630, k = 0.078949
         1         6         5     1      125.473976      667.166559    ;  uncertainty theta = 0.004399, k = 0.260032
         1         6        19     1      122.667969      687.926313    ;  uncertainty theta = 0.008559, k = 0.200162
         2         1         6     1      112.117577      575.313599    ;  uncertainty theta = 0.004635, k = 0.210273
         2         3         4     1      122.483521      528.592467    ;  uncertainty theta = 0.006188, k = 0.157889
         2         3        10     1      116.396561      445.672037    ;  uncertainty theta = 0.007754, k = 0.203584
         3         4         5     1      120.132217      518.295809    ;  uncertainty theta = 0.006174, k = 0.326455
         3         4        16     1      120.863258      336.027819    ;  uncertainty theta = 0.005296, k = 0.304419
         3        10         9     1      121.051476      378.597606    ;  uncertainty theta = 0.006048, k = 0.099508
         3        10        11     1      121.051476      378.597606    ;  uncertainty theta = 0.006048, k = 0.099508
         4         3        10     1      121.213646      355.874271    ;  uncertainty theta = 0.005773, k = 0.263060
         4         5         6     1      117.333641      426.968275    ;  uncertainty theta = 0.017496, k = 0.318744
         4        16        15     1      118.619736      365.704334    ;  uncertainty theta = 0.003070, k = 0.150298
         4        16        17     1      118.619736      365.704334    ;  uncertainty theta = 0.003070, k = 0.150298
         5         4        16     1      120.498230      469.984514    ;  uncertainty theta = 0.005482, k = 0.142607
         5         6        19     1      125.763504      798.173718    ;  uncertainty theta = 0.006180, k = 0.064188
         6        19        29     1      118.262405      443.776577    ;  uncertainty theta = 0.004875, k = 0.045402
         6        19        30     1      118.262405      443.776577    ;  uncertainty theta = 0.004875, k = 0.045402
         7         8         9     1      122.121727      635.534061    ;  uncertainty theta = 0.002621, k = 0.082703
         7         8        21     1      118.127304      487.346620    ;  uncertainty theta = 0.001754, k = 0.221484
         7        12        11     1      122.121727      635.534061    ;  uncertainty theta = 0.002621, k = 0.082703
         7        12        20     1      118.127304      487.346620    ;  uncertainty theta = 0.001754, k = 0.221484
         8         7        12     1      116.393188      423.384876    ;  uncertainty theta = 0.004201, k = 0.274560
         8         9        10     1      118.055344      501.971276    ;  uncertainty theta = 0.001741, k = 0.060548
         8         9        22     1      120.932030      282.476245    ;  uncertainty theta = 0.001427, k = 0.072626
         8        21        34     1      109.216797      388.822760    ;  uncertainty theta = 0.001485, k = 0.033038
         8        21        35     1      109.216797      388.822760    ;  uncertainty theta = 0.001485, k = 0.033038
         8        21        36     1      109.216797      388.822760    ;  uncertainty theta = 0.001485, k = 0.033038
         9         8        21     1      120.446915      416.722499    ;  uncertainty theta = 0.003266, k = 0.118363
         9        10        11     1      118.670937      440.934360    ;  uncertainty theta = 0.004949, k = 0.139917
        10         9        22     1      120.435989      270.791358    ;  uncertainty theta = 0.003023, k = 0.088622
        10        11        12     1      118.055344      501.971276    ;  uncertainty theta = 0.001741, k = 0.060548
        10        11        23     1      120.435997      270.791358    ;  uncertainty theta = 0.003023, k = 0.088622
        11        12        20     1      120.446915      416.722467    ;  uncertainty theta = 0.003266, k = 0.118363
        12        11        23     1      120.932030      282.476214    ;  uncertainty theta = 0.001427, k = 0.072626
        12        20        31     1      109.216782      388.822760    ;  uncertainty theta = 0.001485, k = 0.033038
        12        20        32     1      109.216782      388.822760    ;  uncertainty theta = 0.001485, k = 0.033038
        12        20        33     1      109.216782      388.822760    ;  uncertainty theta = 0.001485, k = 0.033038
        13        14        15     1      119.529297      515.813762    ;  uncertainty theta = 0.001865, k = 0.035586
        13        14        25     1      120.660217      288.604066    ;  uncertainty theta = 0.001135, k = 0.015010
        13        18        17     1      119.529297      515.813762    ;  uncertainty theta = 0.001865, k = 0.035586
        13        18        28     1      120.660217      288.604066    ;  uncertainty theta = 0.001135, k = 0.015010
        14        13        18     1      118.344101      527.921193    ;  uncertainty theta = 0.001138, k = 0.026327
        14        13        24     1      120.585655      288.470922    ;  uncertainty theta = 0.001777, k = 0.013074
        14        15        16     1      120.766884      528.404514    ;  uncertainty theta = 0.002344, k = 0.034155
        14        15        26     1      120.422874      292.742706    ;  uncertainty theta = 0.001561, k = 0.018301
        15        14        25     1      120.046219      284.619543    ;  uncertainty theta = 0.001720, k = 0.015559
        15        16        17     1      121.273514      438.081450    ;  uncertainty theta = 0.004734, k = 0.088958
        16        15        26     1      118.758041      275.494336    ;  uncertainty theta = 0.002279, k = 0.045416
        16        17        18     1      120.766884      528.404514    ;  uncertainty theta = 0.002344, k = 0.034155
        16        17        27     1      118.758041      275.494336    ;  uncertainty theta = 0.002279, k = 0.045416
        17        18        28     1      120.046219      284.619543    ;  uncertainty theta = 0.001720, k = 0.015559
        18        13        24     1      120.585655      288.470922    ;  uncertainty theta = 0.001777, k = 0.013074
        18        17        27     1      120.422874      292.742706    ;  uncertainty theta = 0.001561, k = 0.018301
        29        19        30     1      107.926712      266.053474    ;  uncertainty theta = 0.004368, k = 0.064560
        31        20        32     1      107.070175      313.433734    ;  uncertainty theta = 0.001291, k = 0.025972
        31        20        33     1      107.070175      313.433734    ;  uncertainty theta = 0.001291, k = 0.025972
        32        20        33     1      107.070175      313.433734    ;  uncertainty theta = 0.001291, k = 0.025972
        34        21        35     1      107.070175      313.433734    ;  uncertainty theta = 0.001291, k = 0.025972
        34        21        36     1      107.070175      313.433734    ;  uncertainty theta = 0.001291, k = 0.025972
        35        21        36     1      107.070175      313.433702    ;  uncertainty theta = 0.001291, k = 0.025972

[ dihedrals ] ; propers for gromacs 4.5 or higher, use funct 9
;       ai        aj        ak        al funct           phase               k        pn
         1         2         3         4     9        0.000000        1.853049         1    ;  uncertainty k = 1.469544
         1         2         3         4     9      180.000000       12.172563         2    ;  uncertainty k = 0.303915
         1         2         3         4     9        0.000000        2.117083         3    ;  uncertainty k = 0.302652
         1         2         3         4     9      180.000000        1.351819         4    ;  uncertainty k = 0.132806
         1         2         3        10     9        0.000000        0.864338         1    ;  uncertainty k = 0.766563
         1         2         3        10     9      180.000000       17.764934         2    ;  uncertainty k = 0.227887
         1         2         3        10     9        0.000000        2.942407         3    ;  uncertainty k = 0.436572
         1         2         3        10     9      180.000000        1.570100         4    ;  uncertainty k = 0.403037
         1         6         5         4     9        0.000000       -0.159502         1    ;  uncertainty k = 2.061285
         1         6         5         4     9      180.000000        3.831664         2    ;  uncertainty k = 1.625385
         1         6         5         4     9        0.000000        1.173384         3    ;  uncertainty k = 0.518495
         1         6         5         4     9      180.000000        0.562840         4    ;  uncertainty k = 0.479066
         1         6        19        29     9        0.000000       13.129111         1    ;  uncertainty k = 0.629667
         1         6        19        29     9      180.000000        9.756533         2    ;  uncertainty k = 0.245450
         1         6        19        29     9        0.000000        0.714123         3    ;  uncertainty k = 0.172606
         1         6        19        29     9      180.000000       -0.412217         4    ;  uncertainty k = 0.285718
         1         6        19        30     9        0.000000       13.129111         1    ;  uncertainty k = 0.629667
         1         6        19        30     9      180.000000        9.756533         2    ;  uncertainty k = 0.245450
         1         6        19        30     9        0.000000        0.714123         3    ;  uncertainty k = 0.172606
         1         6        19        30     9      180.000000       -0.412217         4    ;  uncertainty k = 0.285718
         2         1         6         5     9        0.000000        1.968898         1    ;  uncertainty k = 1.303642
         2         1         6         5     9      180.000000        5.539831         2    ;  uncertainty k = 1.934359
         2         1         6         5     9        0.000000        1.215088         3    ;  uncertainty k = 0.650296
         2         1         6         5     9      180.000000        1.068040         4    ;  uncertainty k = 0.490493
         2         1         6        19     9        0.000000        2.793109         1    ;  uncertainty k = 1.767061
         2         1         6        19     9      180.000000       10.325178         2    ;  uncertainty k = 0.754001
         2         1         6        19     9        0.000000        2.692809         3    ;  uncertainty k = 0.395811
         2         1         6        19     9      180.000000        0.982486         4    ;  uncertainty k = 0.243420
         2         3         4         5     9        0.000000       -0.738741         1    ;  uncertainty k = 0.684120
         2         3         4         5     9      180.000000        3.480709         2    ;  uncertainty k = 1.061352
         2         3         4         5     9        0.000000       -0.418949         3    ;  uncertainty k = 1.026514
         2         3         4         5     9      180.000000        0.548978         4    ;  uncertainty k = 0.601939
         2         3         4        16     9        0.000000       -1.472605         1    ;  uncertainty k = 1.162903
         2         3         4        16     9      180.000000        2.385820         2    ;  uncertainty k = 0.774999
         2         3         4        16     9        0.000000        0.059351         3    ;  uncertainty k = 0.839509
         2         3         4        16     9      180.000000        0.806905         4    ;  uncertainty k = 0.490371
         2         3        10         9     9        0.000000       -0.426516         1    ;  uncertainty k = 0.593538
         2         3        10         9     9      180.000000        4.535066         2    ;  uncertainty k = 0.159556
         2         3        10         9     9        0.000000        0.439766         3    ;  uncertainty k = 0.179802
         2         3        10         9     9      180.000000        0.072927         4    ;  uncertainty k = 0.052829
         2         3        10        11     9        0.000000       -0.426516         1    ;  uncertainty k = 0.593538
         2         3        10        11     9      180.000000        4.535066         2    ;  uncertainty k = 0.159556
         2         3        10        11     9        0.000000        0.439766         3    ;  uncertainty k = 0.179802
         2         3        10        11     9      180.000000        0.072927         4    ;  uncertainty k = 0.052829
         3         2         1         6     9        0.000000       -3.191300         1    ;  uncertainty k = 3.503993
         3         2         1         6     9      180.000000       31.196985         2    ;  uncertainty k = 0.534871
         3         2         1         6     9        0.000000       -0.075406         3    ;  uncertainty k = 1.318487
         3         2         1         6     9      180.000000       -0.511487         4    ;  uncertainty k = 1.475688
         3         4         5         6     9        0.000000        0.274083         1    ;  uncertainty k = 0.979507
         3         4         5         6     9      180.000000       13.757312         2    ;  uncertainty k = 0.567464
         3         4         5         6     9        0.000000        0.419694         3    ;  uncertainty k = 0.882769
         3         4         5         6     9      180.000000        1.357347         4    ;  uncertainty k = 0.490157
         3         4        16        15     9        0.000000       -0.245373         1    ;  uncertainty k = 0.907329
         3         4        16        15     9      180.000000        3.550806         2    ;  uncertainty k = 0.378403
         3         4        16        15     9        0.000000        0.522023         3    ;  uncertainty k = 0.181906
         3         4        16        15     9      180.000000        0.012473         4    ;  uncertainty k = 0.091370
         3         4        16        17     9        0.000000       -0.245373         1    ;  uncertainty k = 0.907329
         3         4        16        17     9      180.000000        3.550806         2    ;  uncertainty k = 0.378403
         3         4        16        17     9        0.000000        0.522023         3    ;  uncertainty k = 0.181906
         3         4        16        17     9      180.000000        0.012473         4    ;  uncertainty k = 0.091370
         3        10         9         8     9        0.000000        0.198013         1    ;  uncertainty k = 0.174709
         3        10         9         8     9      180.000000        8.670988         2    ;  uncertainty k = 0.503237
         3        10         9         8     9        0.000000        0.963461         3    ;  uncertainty k = 0.194196
         3        10         9         8     9      180.000000        1.745352         4    ;  uncertainty k = 0.198229
         3        10         9        22     9        0.000000       -0.069934         1    ;  uncertainty k = 0.448525
         3        10         9        22     9      180.000000        7.480866         2    ;  uncertainty k = 0.473246
         3        10         9        22     9        0.000000        0.803877         3    ;  uncertainty k = 0.141042
         3        10         9        22     9      180.000000        1.209135         4    ;  uncertainty k = 0.160132
         3        10        11        12     9        0.000000        0.198013         1    ;  uncertainty k = 0.174709
         3        10        11        12     9      180.000000        8.670988         2    ;  uncertainty k = 0.503237
         3        10        11        12     9        0.000000        0.963461         3    ;  uncertainty k = 0.194196
         3        10        11        12     9      180.000000        1.745352         4    ;  uncertainty k = 0.198229
         3        10        11        23     9        0.000000       -0.069934         1    ;  uncertainty k = 0.448525
         3        10        11        23     9      180.000000        7.480866         2    ;  uncertainty k = 0.473246
         3        10        11        23     9        0.000000        0.803877         3    ;  uncertainty k = 0.141042
         3        10        11        23     9      180.000000        1.209135         4    ;  uncertainty k = 0.160132
         4         3        10         9     9        0.000000        0.348580         1    ;  uncertainty k = 0.921852
         4         3        10         9     9      180.000000        2.358170         2    ;  uncertainty k = 0.373940
         4         3        10         9     9        0.000000        0.604284         3    ;  uncertainty k = 0.259634
         4         3        10         9     9      180.000000       -0.004451         4    ;  uncertainty k = 0.129096
         4         3        10        11     9        0.000000        0.348580         1    ;  uncertainty k = 0.921852
         4         3        10        11     9      180.000000        2.358170         2    ;  uncertainty k = 0.373940
         4         3        10        11     9        0.000000        0.604284         3    ;  uncertainty k = 0.259634
         4         3        10        11     9      180.000000       -0.004451         4    ;  uncertainty k = 0.129096
         4         5         6        19     9        0.000000        0.323492         1    ;  uncertainty k = 0.573575
         4         5         6        19     9      180.000000        8.427377         2    ;  uncertainty k = 0.712989
         4         5         6        19     9        0.000000        2.103340         3    ;  uncertainty k = 0.347201
         4         5         6        19     9      180.000000        0.966007         4    ;  uncertainty k = 0.424542
         4        16        15        14     9        0.000000        0.244623         1    ;  uncertainty k = 0.364587
         4        16        15        14     9      180.000000        8.777576         2    ;  uncertainty k = 0.506605
         4        16        15        14     9        0.000000        1.204611         3    ;  uncertainty k = 0.317859
         4        16        15        14     9      180.000000        1.930500         4    ;  uncertainty k = 0.212294
         4        16        15        26     9        0.000000       -0.281068         1    ;  uncertainty k = 0.166996
         4        16        15        26     9      180.000000        7.429076         2    ;  uncertainty k = 0.523888
         4        16        15        26     9        0.000000        0.740308         3    ;  uncertainty k = 0.138975
         4        16        15        26     9      180.000000        1.219405         4    ;  uncertainty k = 0.164843
         4        16        17        18     9        0.000000        0.244623         1    ;  uncertainty k = 0.364587
         4        16        17        18     9      180.000000        8.777576         2    ;  uncertainty k = 0.506605
         4        16        17        18     9        0.000000        1.204611         3    ;  uncertainty k = 0.317859
         4        16        17        18     9      180.000000        1.930500         4    ;  uncertainty k = 0.212294
         4        16        17        27     9        0.000000       -0.281068         1    ;  uncertainty k = 0.166996
         4        16        17        27     9      180.000000        7.429076         2    ;  uncertainty k = 0.523888
         4        16        17        27     9        0.000000        0.740308         3    ;  uncertainty k = 0.138975
         4        16        17        27     9      180.000000        1.219405         4    ;  uncertainty k = 0.164843
         5         4         3        10     9        0.000000       -0.254442         1    ;  uncertainty k = 0.693773
         5         4         3        10     9      180.000000        3.811857         2    ;  uncertainty k = 1.139455
         5         4         3        10     9        0.000000        0.081185         3    ;  uncertainty k = 0.513372
         5         4         3        10     9      180.000000        0.686084         4    ;  uncertainty k = 0.623078
         5         4        16        15     9        0.000000        0.577089         1    ;  uncertainty k = 0.771269
         5         4        16        15     9      180.000000        5.298508         2    ;  uncertainty k = 0.334426
         5         4        16        15     9        0.000000        0.480066         3    ;  uncertainty k = 0.134057
         5         4        16        15     9      180.000000        0.149158         4    ;  uncertainty k = 0.112879
         5         4        16        17     9        0.000000        0.577089         1    ;  uncertainty k = 0.771269
         5         4        16        17     9      180.000000        5.298508         2    ;  uncertainty k = 0.334426
         5         4        16        17     9        0.000000        0.480066         3    ;  uncertainty k = 0.134057
         5         4        16        17     9      180.000000        0.149158         4    ;  uncertainty k = 0.112879
         5         6        19        29     9        0.000000       20.010442         1    ;  uncertainty k = 0.259650
         5         6        19        29     9      180.000000       10.182111         2    ;  uncertainty k = 0.370307
         5         6        19        29     9        0.000000        0.832804         3    ;  uncertainty k = 0.221692
         5         6        19        29     9      180.000000       -0.316472         4    ;  uncertainty k = 0.214044
         5         6        19        30     9        0.000000       20.010442         1    ;  uncertainty k = 0.259650
         5         6        19        30     9      180.000000       10.182111         2    ;  uncertainty k = 0.370307
         5         6        19        30     9        0.000000        0.832804         3    ;  uncertainty k = 0.221692
         5         6        19        30     9      180.000000       -0.316472         4    ;  uncertainty k = 0.214044
         6         5         4        16     9        0.000000        0.671482         1    ;  uncertainty k = 0.595294
         6         5         4        16     9      180.000000       15.998898         2    ;  uncertainty k = 0.727265
         6         5         4        16     9        0.000000        2.088123         3    ;  uncertainty k = 0.689736
         6         5         4        16     9      180.000000        1.669828         4    ;  uncertainty k = 0.442946
         7         8         9        10     9        0.000000       -0.247548         1    ;  uncertainty k = 0.212996
         7         8         9        10     9      180.000000       12.417170         2    ;  uncertainty k = 0.409840
         7         8         9        10     9        0.000000       -0.713291         3    ;  uncertainty k = 0.616676
         7         8         9        10     9      180.000000        0.908891         4    ;  uncertainty k = 0.215303
         7         8         9        22     9        0.000000       -0.099837         1    ;  uncertainty k = 0.393601
         7         8         9        22     9      180.000000        7.551306         2    ;  uncertainty k = 0.620532
         7         8         9        22     9        0.000000        1.144726         3    ;  uncertainty k = 0.157875
         7         8         9        22     9      180.000000        1.669149         4    ;  uncertainty k = 0.110261
         7         8        21        34     9        0.000000        0.444187         1    ;  uncertainty k = 0.210872
         7         8        21        34     9      180.000000        3.117688         2    ;  uncertainty k = 0.273912
         7         8        21        34     9        0.000000        0.493688         3    ;  uncertainty k = 0.033192
         7         8        21        34     9      180.000000        0.272198         4    ;  uncertainty k = 0.046776
         7         8        21        35     9        0.000000        0.444187         1    ;  uncertainty k = 0.210872
         7         8        21        35     9      180.000000        3.117688         2    ;  uncertainty k = 0.273912
         7         8        21        35     9        0.000000        0.493688         3    ;  uncertainty k = 0.033192
         7         8        21        35     9      180.000000        0.272198         4    ;  uncertainty k = 0.046776
         7         8        21        36     9        0.000000        0.444187         1    ;  uncertainty k = 0.210872
         7         8        21        36     9      180.000000        3.117688         2    ;  uncertainty k = 0.273912
         7         8        21        36     9        0.000000        0.493688         3    ;  uncertainty k = 0.033192
         7         8        21        36     9      180.000000        0.272198         4    ;  uncertainty k = 0.046776
         7        12        11        10     9        0.000000       -0.247548         1    ;  uncertainty k = 0.212996
         7        12        11        10     9      180.000000       12.417170         2    ;  uncertainty k = 0.409840
         7        12        11        10     9        0.000000       -0.713291         3    ;  uncertainty k = 0.616676
         7        12        11        10     9      180.000000        0.908891         4    ;  uncertainty k = 0.215303
         7        12        11        23     9        0.000000       -0.099837         1    ;  uncertainty k = 0.393601
         7        12        11        23     9      180.000000        7.551306         2    ;  uncertainty k = 0.620532
         7        12        11        23     9        0.000000        1.144726         3    ;  uncertainty k = 0.157875
         7        12        11        23     9      180.000000        1.669149         4    ;  uncertainty k = 0.110261
         7        12        20        31     9        0.000000        0.444187         1    ;  uncertainty k = 0.210872
         7        12        20        31     9      180.000000        3.117688         2    ;  uncertainty k = 0.273912
         7        12        20        31     9        0.000000        0.493688         3    ;  uncertainty k = 0.033192
         7        12        20        31     9      180.000000        0.272198         4    ;  uncertainty k = 0.046776
         7        12        20        32     9        0.000000        0.444187         1    ;  uncertainty k = 0.210872
         7        12        20        32     9      180.000000        3.117688         2    ;  uncertainty k = 0.273912
         7        12        20        32     9        0.000000        0.493688         3    ;  uncertainty k = 0.033192
         7        12        20        32     9      180.000000        0.272198         4    ;  uncertainty k = 0.046776
         7        12        20        33     9        0.000000        0.444187         1    ;  uncertainty k = 0.210872
         7        12        20        33     9      180.000000        3.117688         2    ;  uncertainty k = 0.273912
         7        12        20        33     9        0.000000        0.493688         3    ;  uncertainty k = 0.033192
         7        12        20        33     9      180.000000        0.272198         4    ;  uncertainty k = 0.046776
         8         7        12        11     9        0.000000       -0.565629         1    ;  uncertainty k = 0.650780
         8         7        12        11     9      180.000000       12.347624         2    ;  uncertainty k = 0.537591
         8         7        12        11     9        0.000000        1.339337         3    ;  uncertainty k = 0.426004
         8         7        12        11     9      180.000000        1.091161         4    ;  uncertainty k = 0.199787
         8         7        12        20     9        0.000000        0.099267         1    ;  uncertainty k = 0.879242
         8         7        12        20     9      180.000000       14.035773         2    ;  uncertainty k = 0.525969
         8         7        12        20     9        0.000000        2.550116         3    ;  uncertainty k = 0.362824
         8         7        12        20     9      180.000000        1.790022         4    ;  uncertainty k = 0.476853
         8         9        10        11     9        0.000000       -0.011614         1    ;  uncertainty k = 0.289902
         8         9        10        11     9      180.000000       11.719252         2    ;  uncertainty k = 0.295481
         8         9        10        11     9        0.000000       -0.932272         3    ;  uncertainty k = 0.195592
         8         9        10        11     9      180.000000        0.835720         4    ;  uncertainty k = 0.230636
         9         8         7        12     9        0.000000       -0.565629         1    ;  uncertainty k = 0.650780
         9         8         7        12     9      180.000000       12.347624         2    ;  uncertainty k = 0.537591
         9         8         7        12     9        0.000000        1.339337         3    ;  uncertainty k = 0.426004
         9         8         7        12     9      180.000000        1.091161         4    ;  uncertainty k = 0.199787
         9         8        21        34     9        0.000000       -0.052970         1    ;  uncertainty k = 0.246702
         9         8        21        34     9      180.000000        1.847984         2    ;  uncertainty k = 0.177157
         9         8        21        34     9        0.000000        0.307680         3    ;  uncertainty k = 0.047981
         9         8        21        34     9      180.000000        0.148111         4    ;  uncertainty k = 0.026536
         9         8        21        35     9        0.000000       -0.052970         1    ;  uncertainty k = 0.246702
         9         8        21        35     9      180.000000        1.847984         2    ;  uncertainty k = 0.177157
         9         8        21        35     9        0.000000        0.307680         3    ;  uncertainty k = 0.047981
         9         8        21        35     9      180.000000        0.148111         4    ;  uncertainty k = 0.026536
         9         8        21        36     9        0.000000       -0.052970         1    ;  uncertainty k = 0.246702
         9         8        21        36     9      180.000000        1.847984         2    ;  uncertainty k = 0.177157
         9         8        21        36     9        0.000000        0.307680         3    ;  uncertainty k = 0.047981
         9         8        21        36     9      180.000000        0.148111         4    ;  uncertainty k = 0.026536
         9        10        11        12     9        0.000000       -0.011614         1    ;  uncertainty k = 0.289902
         9        10        11        12     9      180.000000       11.719252         2    ;  uncertainty k = 0.295481
         9        10        11        12     9        0.000000       -0.932272         3    ;  uncertainty k = 0.195592
         9        10        11        12     9      180.000000        0.835720         4    ;  uncertainty k = 0.230636
         9        10        11        23     9        0.000000        0.345156         1    ;  uncertainty k = 0.189632
         9        10        11        23     9      180.000000        7.554771         2    ;  uncertainty k = 0.620682
         9        10        11        23     9        0.000000        1.556026         3    ;  uncertainty k = 0.231243
         9        10        11        23     9      180.000000        1.705455         4    ;  uncertainty k = 0.241515
        10         3         4        16     9        0.000000       -0.305056         1    ;  uncertainty k = 1.020269
        10         3         4        16     9      180.000000        3.451840         2    ;  uncertainty k = 0.550730
        10         3         4        16     9        0.000000        0.785043         3    ;  uncertainty k = 0.391150
        10         3         4        16     9      180.000000        0.431391         4    ;  uncertainty k = 0.281320
        10         9         8        21     9        0.000000        0.226850         1    ;  uncertainty k = 0.289686
        10         9         8        21     9      180.000000        7.753011         2    ;  uncertainty k = 0.441756
        10         9         8        21     9        0.000000        1.213197         3    ;  uncertainty k = 0.117198
        10         9         8        21     9      180.000000        1.599285         4    ;  uncertainty k = 0.127773
        10        11        12        20     9        0.000000        0.226850         1    ;  uncertainty k = 0.289686
        10        11        12        20     9      180.000000        7.753011         2    ;  uncertainty k = 0.441756
        10        11        12        20     9        0.000000        1.213197         3    ;  uncertainty k = 0.117198
        10        11        12        20     9      180.000000        1.599285         4    ;  uncertainty k = 0.127773
        11        10         9        22     9        0.000000        0.345156         1    ;  uncertainty k = 0.189632
        11        10         9        22     9      180.000000        7.554771         2    ;  uncertainty k = 0.620682
        11        10         9        22     9        0.000000        1.556026         3    ;  uncertainty k = 0.231243
        11        10         9        22     9      180.000000        1.705455         4    ;  uncertainty k = 0.241515
        11        12        20        31     9        0.000000       -0.052970         1    ;  uncertainty k = 0.246702
        11        12        20        31     9      180.000000        1.847984         2    ;  uncertainty k = 0.177157
        11        12        20        31     9        0.000000        0.307680         3    ;  uncertainty k = 0.047981
        11        12        20        31     9      180.000000        0.148111         4    ;  uncertainty k = 0.026536
        11        12        20        32     9        0.000000       -0.052970         1    ;  uncertainty k = 0.246702
        11        12        20        32     9      180.000000        1.847984         2    ;  uncertainty k = 0.177157
        11        12        20        32     9        0.000000        0.307680         3    ;  uncertainty k = 0.047981
        11        12        20        32     9      180.000000        0.148111         4    ;  uncertainty k = 0.026536
        11        12        20        33     9        0.000000       -0.052970         1    ;  uncertainty k = 0.246702
        11        12        20        33     9      180.000000        1.847984         2    ;  uncertainty k = 0.177157
        11        12        20        33     9        0.000000        0.307680         3    ;  uncertainty k = 0.047981
        11        12        20        33     9      180.000000        0.148111         4    ;  uncertainty k = 0.026536
        12         7         8        21     9        0.000000        0.099267         1    ;  uncertainty k = 0.879242
        12         7         8        21     9      180.000000       14.035773         2    ;  uncertainty k = 0.525969
        12         7         8        21     9        0.000000        2.550116         3    ;  uncertainty k = 0.362824
        12         7         8        21     9      180.000000        1.790022         4    ;  uncertainty k = 0.476853
        13        14        15        16     9        0.000000       -0.085156         1    ;  uncertainty k = 0.101326
        13        14        15        16     9      180.000000       13.800477         2    ;  uncertainty k = 0.268312
        13        14        15        16     9        0.000000       -0.771380         3    ;  uncertainty k = 0.430279
        13        14        15        16     9      180.000000        0.763186         4    ;  uncertainty k = 0.221620
        13        14        15        26     9        0.000000        0.040792         1    ;  uncertainty k = 0.098340
        13        14        15        26     9      180.000000        7.829050         2    ;  uncertainty k = 0.220837
        13        14        15        26     9        0.000000        1.377807         3    ;  uncertainty k = 0.305455
        13        14        15        26     9      180.000000        1.862040         4    ;  uncertainty k = 0.175515
        13        18        17        16     9        0.000000       -0.085156         1    ;  uncertainty k = 0.101326
        13        18        17        16     9      180.000000       13.800477         2    ;  uncertainty k = 0.268312
        13        18        17        16     9        0.000000       -0.771380         3    ;  uncertainty k = 0.430279
        13        18        17        16     9      180.000000        0.763186         4    ;  uncertainty k = 0.221620
        13        18        17        27     9        0.000000        0.040792         1    ;  uncertainty k = 0.098340
        13        18        17        27     9      180.000000        7.829050         2    ;  uncertainty k = 0.220837
        13        18        17        27     9        0.000000        1.377807         3    ;  uncertainty k = 0.305455
        13        18        17        27     9      180.000000        1.862040         4    ;  uncertainty k = 0.175515
        14        13        18        17     9        0.000000       -0.039609         1    ;  uncertainty k = 0.058508
        14        13        18        17     9      180.000000       14.728850         2    ;  uncertainty k = 0.270498
        14        13        18        17     9        0.000000       -1.116008         3    ;  uncertainty k = 0.461534
        14        13        18        17     9      180.000000        0.570638         4    ;  uncertainty k = 0.262850
        14        13        18        28     9        0.000000        0.060280         1    ;  uncertainty k = 0.046484
        14        13        18        28     9      180.000000        7.580498         2    ;  uncertainty k = 0.301291
        14        13        18        28     9        0.000000        1.432917         3    ;  uncertainty k = 0.310397
        14        13        18        28     9      180.000000        1.808653         4    ;  uncertainty k = 0.112983
        14        15        16        17     9        0.000000       -0.228846         1    ;  uncertainty k = 0.099621
        14        15        16        17     9      180.000000       11.519585         2    ;  uncertainty k = 0.245642
        14        15        16        17     9        0.000000       -0.708965         3    ;  uncertainty k = 0.222667
        14        15        16        17     9      180.000000        0.889608         4    ;  uncertainty k = 0.283730
        15        14        13        18     9        0.000000       -0.039609         1    ;  uncertainty k = 0.058508
        15        14        13        18     9      180.000000       14.728850         2    ;  uncertainty k = 0.270498
        15        14        13        18     9        0.000000       -1.116008         3    ;  uncertainty k = 0.461534
        15        14        13        18     9      180.000000        0.570638         4    ;  uncertainty k = 0.262850
        15        14        13        24     9        0.000000        0.018696         1    ;  uncertainty k = 0.067612
        15        14        13        24     9      180.000000        7.446532         2    ;  uncertainty k = 0.246906
        15        14        13        24     9        0.000000        1.463058         3    ;  uncertainty k = 0.239087
        15        14        13        24     9      180.000000        1.786839         4    ;  uncertainty k = 0.161485
        15        16        17        18     9        0.000000       -0.228846         1    ;  uncertainty k = 0.099621
        15        16        17        18     9      180.000000       11.519585         2    ;  uncertainty k = 0.245642
        15        16        17        18     9        0.000000       -0.708965         3    ;  uncertainty k = 0.222667
        15        16        17        18     9      180.000000        0.889608         4    ;  uncertainty k = 0.283730
        15        16        17        27     9        0.000000        0.168842         1    ;  uncertainty k = 0.107557
        15        16        17        27     9      180.000000        7.056492         2    ;  uncertainty k = 0.442030
        15        16        17        27     9        0.000000        1.360330         3    ;  uncertainty k = 0.161756
        15        16        17        27     9      180.000000        1.681350         4    ;  uncertainty k = 0.250468
        16        15        14        25     9        0.000000        0.000276         1    ;  uncertainty k = 0.169363
        16        15        14        25     9      180.000000        7.621252         2    ;  uncertainty k = 0.320005
        16        15        14        25     9        0.000000        1.446360         3    ;  uncertainty k = 0.172877
        16        15        14        25     9      180.000000        1.823296         4    ;  uncertainty k = 0.150540
        16        17        18        28     9        0.000000        0.000276         1    ;  uncertainty k = 0.169363
        16        17        18        28     9      180.000000        7.621252         2    ;  uncertainty k = 0.320005
        16        17        18        28     9        0.000000        1.446360         3    ;  uncertainty k = 0.172877
        16        17        18        28     9      180.000000        1.823296         4    ;  uncertainty k = 0.150540
        17        16        15        26     9        0.000000        0.168842         1    ;  uncertainty k = 0.107557
        17        16        15        26     9      180.000000        7.056492         2    ;  uncertainty k = 0.442030
        17        16        15        26     9        0.000000        1.360330         3    ;  uncertainty k = 0.161756
        17        16        15        26     9      180.000000        1.681350         4    ;  uncertainty k = 0.250468
        17        18        13        24     9        0.000000        0.018696         1    ;  uncertainty k = 0.067612
        17        18        13        24     9      180.000000        7.446532         2    ;  uncertainty k = 0.246906
        17        18        13        24     9        0.000000        1.463058         3    ;  uncertainty k = 0.239087
        17        18        13        24     9      180.000000        1.786839         4    ;  uncertainty k = 0.161485
        18        13        14        25     9        0.000000        0.060280         1    ;  uncertainty k = 0.046484
        18        13        14        25     9      180.000000        7.580498         2    ;  uncertainty k = 0.301291
        18        13        14        25     9        0.000000        1.432917         3    ;  uncertainty k = 0.310397
        18        13        14        25     9      180.000000        1.808653         4    ;  uncertainty k = 0.112983
        20        12        11        23     9        0.000000       -0.389838         1    ;  uncertainty k = 0.325119
        20        12        11        23     9      180.000000        6.895392         2    ;  uncertainty k = 0.201735
        20        12        11        23     9        0.000000        0.451138         3    ;  uncertainty k = 0.256273
        20        12        11        23     9      180.000000        0.852732         4    ;  uncertainty k = 0.237935
        21         8         9        22     9        0.000000       -0.389838         1    ;  uncertainty k = 0.325119
        21         8         9        22     9      180.000000        6.895392         2    ;  uncertainty k = 0.201735
        21         8         9        22     9        0.000000        0.451138         3    ;  uncertainty k = 0.256273
        21         8         9        22     9      180.000000        0.852732         4    ;  uncertainty k = 0.237935
        24        13        14        25     9        0.000000       -0.086959         1    ;  uncertainty k = 0.086880
        24        13        14        25     9      180.000000        7.713489         2    ;  uncertainty k = 0.410363
        24        13        14        25     9        0.000000       -0.420918         3    ;  uncertainty k = 0.300483
        24        13        14        25     9      180.000000        0.039571         4    ;  uncertainty k = 0.147961
        24        13        18        28     9        0.000000       -0.086959         1    ;  uncertainty k = 0.086880
        24        13        18        28     9      180.000000        7.713489         2    ;  uncertainty k = 0.410363
        24        13        18        28     9        0.000000       -0.420918         3    ;  uncertainty k = 0.300483
        24        13        18        28     9      180.000000        0.039571         4    ;  uncertainty k = 0.147961
        25        14        15        26     9        0.000000       -0.159865         1    ;  uncertainty k = 0.133584
        25        14        15        26     9      180.000000        7.859188         2    ;  uncertainty k = 0.325421
        25        14        15        26     9        0.000000       -0.450050         3    ;  uncertainty k = 0.281622
        25        14        15        26     9      180.000000        0.154829         4    ;  uncertainty k = 0.122641
        27        17        18        28     9        0.000000       -0.159865         1    ;  uncertainty k = 0.133584
        27        17        18        28     9      180.000000        7.859188         2    ;  uncertainty k = 0.325421
        27        17        18        28     9        0.000000       -0.450050         3    ;  uncertainty k = 0.281622
        27        17        18        28     9      180.000000        0.154829         4    ;  uncertainty k = 0.122641

[ dihedrals ] ; impropers
;       ai        aj        ak        al funct           phase               k        pn
         3         2         4        10     4      180.000000       21.788734         2    ;  uncertainty k = 0.147454
         3         4        10         2     4      180.000000       21.788734         2    ;  uncertainty k = 0.147454
         3        10         2         4     4      180.000000       21.788734         2    ;  uncertainty k = 0.147454
         4         3         5        16     4      180.000000       29.612210         2    ;  uncertainty k = 0.043039
         4         5        16         3     4      180.000000       29.612210         2    ;  uncertainty k = 0.043039
         4        16         3         5     4      180.000000       29.612210         2    ;  uncertainty k = 0.043039
         6         1         5        19     4      180.000000       43.323642         2    ;  uncertainty k = 0.063441
         6         5        19         1     4      180.000000       43.323642         2    ;  uncertainty k = 0.063441
         6        19         1         5     4      180.000000       43.323642         2    ;  uncertainty k = 0.063441
         8         7         9        21     4      180.000000       28.496570         2    ;  uncertainty k = 0.046375
         8         9        21         7     4      180.000000       28.496570         2    ;  uncertainty k = 0.046375
         8        21         7         9     4      180.000000       28.496570         2    ;  uncertainty k = 0.046375
         9         8        10        22     4      180.000000        3.203831         2    ;  uncertainty k = 0.228557
         9        10        22         8     4      180.000000        3.203831         2    ;  uncertainty k = 0.228557
         9        22         8        10     4      180.000000        3.203831         2    ;  uncertainty k = 0.228557
        10         3         9        11     4      180.000000       13.886279         2    ;  uncertainty k = 0.135203
        10         9        11         3     4      180.000000       13.886279         2    ;  uncertainty k = 0.135203
        10        11         3         9     4      180.000000       13.886279         2    ;  uncertainty k = 0.135203
        11        10        12        23     4      180.000000        3.203831         2    ;  uncertainty k = 0.228557
        11        12        23        10     4      180.000000        3.203831         2    ;  uncertainty k = 0.228557
        11        23        10        12     4      180.000000        3.203831         2    ;  uncertainty k = 0.228557
        12         7        11        20     4      180.000000       28.496570         2    ;  uncertainty k = 0.046375
        12        11        20         7     4      180.000000       28.496570         2    ;  uncertainty k = 0.046375
        12        20         7        11     4      180.000000       28.496570         2    ;  uncertainty k = 0.046375
        13        14        18        24     4      180.000000        4.673371         2    ;  uncertainty k = 0.190294
        13        18        24        14     4      180.000000        4.673371         2    ;  uncertainty k = 0.190294
        13        24        14        18     4      180.000000        4.673371         2    ;  uncertainty k = 0.190294
        14        13        15        25     4      180.000000        4.310918         2    ;  uncertainty k = 0.072052
        14        15        25        13     4      180.000000        4.310918         2    ;  uncertainty k = 0.072052
        14        25        13        15     4      180.000000        4.310918         2    ;  uncertainty k = 0.072052
        15        14        16        26     4      180.000000        4.275764         2    ;  uncertainty k = 0.092513
        15        16        26        14     4      180.000000        4.275764         2    ;  uncertainty k = 0.092513
        15        26        14        16     4      180.000000        4.275764         2    ;  uncertainty k = 0.092513
        16         4        15        17     4      180.000000       10.064639         2    ;  uncertainty k = 0.105291
        16        15        17         4     4      180.000000       10.064639         2    ;  uncertainty k = 0.105291
        16        17         4        15     4      180.000000       10.064639         2    ;  uncertainty k = 0.105291
        17        16        18        27     4      180.000000        4.275764         2    ;  uncertainty k = 0.092512
        17        18        27        16     4      180.000000        4.275764         2    ;  uncertainty k = 0.092512
        17        27        16        18     4      180.000000        4.275764         2    ;  uncertainty k = 0.092512
        18        13        17        28     4      180.000000        4.310919         2    ;  uncertainty k = 0.072052
        18        17        28        13     4      180.000000        4.310919         2    ;  uncertainty k = 0.072052
        18        28        13        17     4      180.000000        4.310919         2    ;  uncertainty k = 0.072052
        19         6        29        30     4      180.000000        0.390383         2    ;  uncertainty k = 0.522839
        19        29        30         6     4      180.000000        0.390383         2    ;  uncertainty k = 0.522839
        19        30         6        29     4      180.000000        0.390383         2    ;  uncertainty k = 0.522839

[ pairs ]
;       ai        aj funct
         1         4     1
         1        10     1
         1        29     1
         1        30     1
         2         5     1
         2         9     1
         2        11     1
         2        16     1
         2        19     1
         3         6     1
         3         8     1
         3        12     1
         3        15     1
         3        17     1
         3        22     1
         3        23     1
         4         9     1
         4        11     1
         4        14     1
         4        18     1
         4        19     1
         4        26     1
         4        27     1
         5        10     1
         5        15     1
         5        17     1
         5        29     1
         5        30     1
         6        16     1
         7        10     1
         7        22     1
         7        23     1
         7        31     1
         7        32     1
         7        33     1
         7        34     1
         7        35     1
         7        36     1
         8        11     1
         8        20     1
         9        12     1
         9        23     1
         9        34     1
         9        35     1
         9        36     1
        10        16     1
        10        20     1
        10        21     1
        11        22     1
        11        31     1
        11        32     1
        11        33     1
        12        21     1
        13        16     1
        13        26     1
        13        27     1
        14        17     1
        14        28     1
        15        18     1
        15        24     1
        15        27     1
        16        25     1
        16        28     1
        17        24     1
        17        26     1
        18        25     1
        20        23     1
        21        22     1
        24        25     1
        24        28     1
        25        26     1
        27        28     1
