; ITP file created by ByteFF-joint-25, 2025-07-14 11:28:11.200610

[ atomtypes ]
;name           bonded.type        at.num        mass        charge   ptype           sigma         epsilon
 n0bf                                   7      0.0000       0.00000       A     3.38457e-01     3.93065e-01    ;  uncertainty sigma = 0.000033, epsilon = 0.002906
 n1bf                                   7      0.0000       0.00000       A     3.38476e-01     3.93713e-01    ;  uncertainty sigma = 0.000022, epsilon = 0.001198
 c2bf                                   6      0.0000       0.00000       A     3.31542e-01     4.12809e-01    ;  uncertainty sigma = 0.000017, epsilon = 0.001394
 c3bf                                   6      0.0000       0.00000       A     3.31532e-01     4.12900e-01    ;  uncertainty sigma = 0.000012, epsilon = 0.000690
 n4bf                                   7      0.0000       0.00000       A     3.38467e-01     3.94052e-01    ;  uncertainty sigma = 0.000030, epsilon = 0.001987
 c5bf                                   6      0.0000       0.00000       A     3.31538e-01     4.13311e-01    ;  uncertainty sigma = 0.000020, epsilon = 0.001585
 n6bf                                   7      0.0000       0.00000       A     3.38429e-01     3.93661e-01    ;  uncertainty sigma = 0.000008, epsilon = 0.000638
 c7bf                                   6      0.0000       0.00000       A     3.31520e-01     4.13292e-01    ;  uncertainty sigma = 0.000004, epsilon = 0.000788
 c8bf                                   6      0.0000       0.00000       A     3.31522e-01     4.13566e-01    ;  uncertainty sigma = 0.000009, epsilon = 0.000967
 c9bf                                   6      0.0000       0.00000       A     3.31540e-01     4.13231e-01    ;  uncertainty sigma = 0.000015, epsilon = 0.001090
 c10bf                                  6      0.0000       0.00000       A     3.31522e-01     4.13566e-01    ;  uncertainty sigma = 0.000009, epsilon = 0.000967
 c11bf                                  6      0.0000       0.00000       A     3.31520e-01     4.13292e-01    ;  uncertainty sigma = 0.000004, epsilon = 0.000788
 c12bf                                  6      0.0000       0.00000       A     3.31519e-01     4.13373e-01    ;  uncertainty sigma = 0.000004, epsilon = 0.000632
 c13bf                                  6      0.0000       0.00000       A     3.31513e-01     4.13306e-01    ;  uncertainty sigma = 0.000009, epsilon = 0.000485
 c14bf                                  6      0.0000       0.00000       A     3.31521e-01     4.13849e-01    ;  uncertainty sigma = 0.000007, epsilon = 0.001001
 c15bf                                  6      0.0000       0.00000       A     3.31537e-01     4.13596e-01    ;  uncertainty sigma = 0.000018, epsilon = 0.000816
 c16bf                                  6      0.0000       0.00000       A     3.31515e-01     4.13588e-01    ;  uncertainty sigma = 0.000004, epsilon = 0.000932
 c17bf                                  6      0.0000       0.00000       A     3.31521e-01     4.13438e-01    ;  uncertainty sigma = 0.000003, epsilon = 0.000682
 n18bf                                  7      0.0000       0.00000       A     3.36801e-01     4.68954e-01    ;  uncertainty sigma = 0.000066, epsilon = 0.001925
 c19bf                                  6      0.0000       0.00000       A     3.39774e-01     4.50938e-01    ;  uncertainty sigma = 0.000004, epsilon = 0.000493
 c20bf                                  6      0.0000       0.00000       A     3.39774e-01     4.50938e-01    ;  uncertainty sigma = 0.000004, epsilon = 0.000493
 h21bf                                  1      0.0000       0.00000       A     2.62561e-01     6.68873e-02    ;  uncertainty sigma = 0.000007, epsilon = 0.000486
 h22bf                                  1      0.0000       0.00000       A     2.62561e-01     6.68873e-02    ;  uncertainty sigma = 0.000007, epsilon = 0.000486
 h23bf                                  1      0.0000       0.00000       A     2.62565e-01     6.71044e-02    ;  uncertainty sigma = 0.000012, epsilon = 0.000451
 f24bf                                  9      0.0000       0.00000       A     3.03438e-01     3.47923e-01    ;  uncertainty sigma = 0.000010, epsilon = 0.000792
 h25bf                                  1      0.0000       0.00000       A     2.62551e-01     6.70389e-02    ;  uncertainty sigma = 0.000014, epsilon = 0.000667
 h26bf                                  1      0.0000       0.00000       A     2.62560e-01     6.70283e-02    ;  uncertainty sigma = 0.000012, epsilon = 0.000523
 h27bf                                  1      0.0000       0.00000       A     2.62566e-01     6.69675e-02    ;  uncertainty sigma = 0.000009, epsilon = 0.000498
 h28bf                                  1      0.0000       0.00000       A     1.10728e-01     4.07631e-02    ;  uncertainty sigma = 0.000034, epsilon = 0.001087
 h29bf                                  1      0.0000       0.00000       A     1.10728e-01     4.07631e-02    ;  uncertainty sigma = 0.000034, epsilon = 0.001087
 h30bf                                  1      0.0000       0.00000       A     2.60034e-01     8.66333e-02    ;  uncertainty sigma = 0.000007, epsilon = 0.000537
 h31bf                                  1      0.0000       0.00000       A     2.60034e-01     8.66333e-02    ;  uncertainty sigma = 0.000007, epsilon = 0.000537
 h32bf                                  1      0.0000       0.00000       A     2.60034e-01     8.66333e-02    ;  uncertainty sigma = 0.000007, epsilon = 0.000537
 h33bf                                  1      0.0000       0.00000       A     2.60034e-01     8.66333e-02    ;  uncertainty sigma = 0.000007, epsilon = 0.000537
 h34bf                                  1      0.0000       0.00000       A     2.60034e-01     8.66333e-02    ;  uncertainty sigma = 0.000007, epsilon = 0.000537
 h35bf                                  1      0.0000       0.00000       A     2.60034e-01     8.66333e-02    ;  uncertainty sigma = 0.000007, epsilon = 0.000537

[ moleculetype ]
;name             nrexcl
 MOL                   3

[ atoms ]
;       nr            type      resi   res      atom      cgnr      charge          mass ; qtot
         1            n0bf         1   UNL        n0         1    -0.40685       14.0070 ; qtot   -0.407
         2            n1bf         1   UNL        n1         2    -0.24885       14.0070 ; qtot   -0.656
         3            c2bf         1   UNL        c2         3     0.25650       12.0110 ; qtot   -0.399
         4            c3bf         1   UNL        c3         4     0.46746       12.0110 ; qtot    0.068
         5            n4bf         1   UNL        n4         5    -0.73586       14.0070 ; qtot   -0.668
         6            c5bf         1   UNL        c5         6     0.82167       12.0110 ; qtot    0.154
         7            n6bf         1   UNL        n6         7    -0.67637       14.0070 ; qtot   -0.522
         8            c7bf         1   UNL        c7         8     0.42542       12.0110 ; qtot   -0.097
         9            c8bf         1   UNL        c8         9    -0.22362       12.0110 ; qtot   -0.321
        10            c9bf         1   UNL        c9        10    -0.10358       12.0110 ; qtot   -0.424
        11           c10bf         1   UNL       c10        11    -0.22362       12.0110 ; qtot   -0.648
        12           c11bf         1   UNL       c11        12     0.42542       12.0110 ; qtot   -0.222
        13           c12bf         1   UNL       c12        13    -0.15140       12.0110 ; qtot   -0.374
        14           c13bf         1   UNL       c13        14     0.12384       12.0110 ; qtot   -0.250
        15           c14bf         1   UNL       c14        15    -0.13056       12.0110 ; qtot   -0.380
        16           c15bf         1   UNL       c15        16    -0.14254       12.0110 ; qtot   -0.523
        17           c16bf         1   UNL       c16        17    -0.10458       12.0110 ; qtot   -0.628
        18           c17bf         1   UNL       c17        18    -0.10786       12.0110 ; qtot   -0.735
        19           n18bf         1   UNL       n18        19    -0.92625       14.0070 ; qtot   -1.662
        20           c19bf         1   UNL       c19        20    -0.14367       12.0110 ; qtot   -1.805
        21           c20bf         1   UNL       c20        21    -0.14367       12.0110 ; qtot   -1.949
        22           h21bf         1   UNL       h21        22     0.15442        1.0080 ; qtot   -1.795
        23           h22bf         1   UNL       h22        23     0.15442        1.0080 ; qtot   -1.640
        24           h23bf         1   UNL       h23        24     0.15369        1.0080 ; qtot   -1.486
        25           f24bf         1   UNL       f24        25    -0.14509       18.9980 ; qtot   -1.632
        26           h25bf         1   UNL       h25        26     0.16380        1.0080 ; qtot   -1.468
        27           h26bf         1   UNL       h26        27     0.14915        1.0080 ; qtot   -1.319
        28           h27bf         1   UNL       h27        28     0.14132        1.0080 ; qtot   -1.177
        29           h28bf         1   UNL       h28        29     0.43092        1.0080 ; qtot   -0.746
        30           h29bf         1   UNL       h29        30     0.43092        1.0080 ; qtot   -0.315
        31           h30bf         1   UNL       h30        31     0.05257        1.0080 ; qtot   -0.263
        32           h31bf         1   UNL       h31        32     0.05257        1.0080 ; qtot   -0.210
        33           h32bf         1   UNL       h32        33     0.05257        1.0080 ; qtot   -0.158
        34           h33bf         1   UNL       h33        34     0.05257        1.0080 ; qtot   -0.105
        35           h34bf         1   UNL       h34        35     0.05257        1.0080 ; qtot   -0.053
        36           h35bf         1   UNL       h35        36     0.05257        1.0080 ; qtot    0.000

[ bonds ]
;       ai        aj funct               r               k
         1         2     1        0.130778   361370.603955    ;  uncertainty r = 0.000176, k = 32.459970
         1         6     1        0.135400   366916.906592    ;  uncertainty r = 0.000241, k = 17.361955
         2         3     1        0.133388   332706.373389    ;  uncertainty r = 0.000442, k = 14.108441
         3         4     1        0.140323   325121.443311    ;  uncertainty r = 0.000214, k = 12.790621
         3        10     1        0.147840   270525.835938    ;  uncertainty r = 0.000161, k = 16.807698
         4         5     1        0.132979   419792.078906    ;  uncertainty r = 0.000133, k = 22.244083
         4        16     1        0.147776   267717.034814    ;  uncertainty r = 0.000124, k = 2.606343
         5         6     1        0.136102   532915.906348    ;  uncertainty r = 0.000140, k = 13.557526
         6        19     1        0.140058   625071.519727    ;  uncertainty r = 0.000422, k = 22.781256
         7         8     1        0.134356   381128.154736    ;  uncertainty r = 0.000055, k = 10.020677
         7        12     1        0.134356   381128.154736    ;  uncertainty r = 0.000055, k = 10.020677
         8         9     1        0.140085   355169.095703    ;  uncertainty r = 0.000040, k = 10.371912
         8        21     1        0.150959   260110.857861    ;  uncertainty r = 0.000008, k = 5.531583
         9        10     1        0.139483   362741.921191    ;  uncertainty r = 0.000059, k = 9.578120
         9        22     1        0.108794   338359.548828    ;  uncertainty r = 0.000026, k = 1.057088
        10        11     1        0.139483   362741.921191    ;  uncertainty r = 0.000059, k = 9.578120
        11        12     1        0.140085   355169.095703    ;  uncertainty r = 0.000040, k = 10.371912
        11        23     1        0.108794   338359.548828    ;  uncertainty r = 0.000026, k = 1.057088
        12        20     1        0.150959   260110.857861    ;  uncertainty r = 0.000008, k = 5.531583
        13        14     1        0.139011   360330.043359    ;  uncertainty r = 0.000020, k = 2.975555
        13        18     1        0.139511   377137.904785    ;  uncertainty r = 0.000021, k = 1.613675
        13        24     1        0.108779   336730.740918    ;  uncertainty r = 0.000011, k = 0.599634
        14        15     1        0.138790   355519.056250    ;  uncertainty r = 0.000031, k = 2.135153
        14        25     1        0.135715   338807.214355    ;  uncertainty r = 0.000032, k = 1.467237
        15        16     1        0.139817   352851.194434    ;  uncertainty r = 0.000017, k = 4.083725
        15        26     1        0.108709   335103.924902    ;  uncertainty r = 0.000031, k = 1.119498
        16        17     1        0.139928   345054.485107    ;  uncertainty r = 0.000063, k = 2.375458
        17        18     1        0.139435   364416.466064    ;  uncertainty r = 0.000026, k = 1.426923
        17        27     1        0.108687   333062.181934    ;  uncertainty r = 0.000022, k = 1.041319
        18        28     1        0.108756   333007.813428    ;  uncertainty r = 0.000009, k = 1.313868
        19        29     1        0.102196   439793.713379    ;  uncertainty r = 0.000076, k = 4.088413
        19        30     1        0.102196   439793.713379    ;  uncertainty r = 0.000076, k = 4.088413
        20        31     1        0.109471   310407.165186    ;  uncertainty r = 0.000016, k = 1.610809
        20        32     1        0.109471   310407.165186    ;  uncertainty r = 0.000016, k = 1.610809
        20        33     1        0.109471   310407.165186    ;  uncertainty r = 0.000016, k = 1.610809
        21        34     1        0.109471   310407.165186    ;  uncertainty r = 0.000016, k = 1.610809
        21        35     1        0.109471   310407.165186    ;  uncertainty r = 0.000016, k = 1.610803
        21        36     1        0.109471   310407.165186    ;  uncertainty r = 0.000016, k = 1.610803

[ angles ]
;       ai        aj        ak funct           theta             cth
         1         2         3     1      119.692001      625.298915    ;  uncertainty theta = 0.005630, k = 0.078949
         1         6         5     1      125.473976      667.166559    ;  uncertainty theta = 0.004399, k = 0.260032
         1         6        19     1      122.667969      687.926313    ;  uncertainty theta = 0.008559, k = 0.200162
         2         1         6     1      112.117577      575.313599    ;  uncertainty theta = 0.004635, k = 0.210273
         2         3         4     1      122.410019      528.088876    ;  uncertainty theta = 0.005762, k = 0.160084
         2         3        10     1      116.396561      445.672037    ;  uncertainty theta = 0.007754, k = 0.203584
         3         4         5     1      120.245407      518.219357    ;  uncertainty theta = 0.005741, k = 0.328328
         3         4        16     1      120.826126      336.125116    ;  uncertainty theta = 0.004647, k = 0.290648
         3        10         9     1      121.051476      378.597606    ;  uncertainty theta = 0.006048, k = 0.099508
         3        10        11     1      121.051476      378.597606    ;  uncertainty theta = 0.006048, k = 0.099508
         4         3        10     1      121.128319      355.321999    ;  uncertainty theta = 0.005480, k = 0.259290
         4         5         6     1      117.261429      427.883557    ;  uncertainty theta = 0.017435, k = 0.286357
         4        16        15     1      118.061134      367.384612    ;  uncertainty theta = 0.002271, k = 0.175122
         4        16        17     1      118.775070      366.613998    ;  uncertainty theta = 0.002650, k = 0.159071
         5         4        16     1      120.298683      467.599699    ;  uncertainty theta = 0.005321, k = 0.129883
         5         6        19     1      125.763504      798.173718    ;  uncertainty theta = 0.006180, k = 0.064188
         6        19        29     1      118.262405      443.776577    ;  uncertainty theta = 0.004875, k = 0.045402
         6        19        30     1      118.262405      443.776577    ;  uncertainty theta = 0.004875, k = 0.045402
         7         8         9     1      122.121727      635.534061    ;  uncertainty theta = 0.002621, k = 0.082703
         7         8        21     1      118.127304      487.346620    ;  uncertainty theta = 0.001754, k = 0.221484
         7        12        11     1      122.121727      635.534061    ;  uncertainty theta = 0.002621, k = 0.082703
         7        12        20     1      118.127304      487.346620    ;  uncertainty theta = 0.001754, k = 0.221484
         8         7        12     1      116.393188      423.384876    ;  uncertainty theta = 0.004201, k = 0.274560
         8         9        10     1      118.055344      501.971276    ;  uncertainty theta = 0.001741, k = 0.060548
         8         9        22     1      120.932030      282.476245    ;  uncertainty theta = 0.001427, k = 0.072626
         8        21        34     1      109.216797      388.822760    ;  uncertainty theta = 0.001485, k = 0.033038
         8        21        35     1      109.216797      388.822760    ;  uncertainty theta = 0.001485, k = 0.033038
         8        21        36     1      109.216797      388.822760    ;  uncertainty theta = 0.001485, k = 0.033038
         9         8        21     1      120.446915      416.722499    ;  uncertainty theta = 0.003266, k = 0.118363
         9        10        11     1      118.670937      440.934360    ;  uncertainty theta = 0.004949, k = 0.139917
        10         9        22     1      120.435989      270.791358    ;  uncertainty theta = 0.003023, k = 0.088622
        10        11        12     1      118.055344      501.971276    ;  uncertainty theta = 0.001741, k = 0.060548
        10        11        23     1      120.435997      270.791358    ;  uncertainty theta = 0.003023, k = 0.088622
        11        12        20     1      120.446915      416.722467    ;  uncertainty theta = 0.003266, k = 0.118363
        12        11        23     1      120.932030      282.476214    ;  uncertainty theta = 0.001427, k = 0.072626
        12        20        31     1      109.216782      388.822760    ;  uncertainty theta = 0.001485, k = 0.033038
        12        20        32     1      109.216782      388.822760    ;  uncertainty theta = 0.001485, k = 0.033038
        12        20        33     1      109.216782      388.822760    ;  uncertainty theta = 0.001485, k = 0.033038
        13        14        15     1      122.687210      360.966530    ;  uncertainty theta = 0.004164, k = 0.122710
        13        14        25     1      119.125107      513.845968    ;  uncertainty theta = 0.001581, k = 0.061152
        13        18        17     1      120.720398      514.780818    ;  uncertainty theta = 0.002111, k = 0.067350
        13        18        28     1      119.896095      284.361618    ;  uncertainty theta = 0.000332, k = 0.029329
        14        13        18     1      116.838280      498.184154    ;  uncertainty theta = 0.001319, k = 0.049055
        14        13        24     1      120.900406      283.242614    ;  uncertainty theta = 0.002085, k = 0.036590
        14        15        16     1      118.990135      502.376677    ;  uncertainty theta = 0.003600, k = 0.119296
        14        15        26     1      120.837631      287.671834    ;  uncertainty theta = 0.001705, k = 0.073310
        15        14        25     1      118.598434      503.107454    ;  uncertainty theta = 0.001693, k = 0.036570
        15        16        17     1      121.860031      433.017441    ;  uncertainty theta = 0.005701, k = 0.079233
        16        15        26     1      120.378845      268.190435    ;  uncertainty theta = 0.003169, k = 0.050899
        16        17        18     1      120.295425      530.440748    ;  uncertainty theta = 0.001982, k = 0.043441
        16        17        27     1      118.825157      274.209117    ;  uncertainty theta = 0.002917, k = 0.041005
        17        18        28     1      120.067650      282.178770    ;  uncertainty theta = 0.001224, k = 0.023767
        18        13        24     1      121.922195      281.971313    ;  uncertainty theta = 0.001635, k = 0.021544
        18        17        27     1      120.453613      293.565288    ;  uncertainty theta = 0.002371, k = 0.023394
        29        19        30     1      107.926712      266.053474    ;  uncertainty theta = 0.004368, k = 0.064560
        31        20        32     1      107.070175      313.433734    ;  uncertainty theta = 0.001291, k = 0.025972
        31        20        33     1      107.070175      313.433734    ;  uncertainty theta = 0.001291, k = 0.025972
        32        20        33     1      107.070175      313.433734    ;  uncertainty theta = 0.001291, k = 0.025972
        34        21        35     1      107.070175      313.433734    ;  uncertainty theta = 0.001291, k = 0.025972
        34        21        36     1      107.070175      313.433734    ;  uncertainty theta = 0.001291, k = 0.025972
        35        21        36     1      107.070175      313.433702    ;  uncertainty theta = 0.001291, k = 0.025972

[ dihedrals ] ; propers for gromacs 4.5 or higher, use funct 9
;       ai        aj        ak        al funct           phase               k        pn
         1         2         3         4     9        0.000000        1.867683         1    ;  uncertainty k = 1.431509
         1         2         3         4     9      180.000000       12.094286         2    ;  uncertainty k = 0.306782
         1         2         3         4     9        0.000000        2.105711         3    ;  uncertainty k = 0.306142
         1         2         3         4     9      180.000000        1.366383         4    ;  uncertainty k = 0.141558
         1         2         3        10     9        0.000000        0.864338         1    ;  uncertainty k = 0.766563
         1         2         3        10     9      180.000000       17.764934         2    ;  uncertainty k = 0.227887
         1         2         3        10     9        0.000000        2.942407         3    ;  uncertainty k = 0.436572
         1         2         3        10     9      180.000000        1.570100         4    ;  uncertainty k = 0.403037
         1         6         5         4     9        0.000000       -0.096535         1    ;  uncertainty k = 2.092917
         1         6         5         4     9      180.000000        3.768182         2    ;  uncertainty k = 1.652637
         1         6         5         4     9        0.000000        1.189820         3    ;  uncertainty k = 0.520827
         1         6         5         4     9      180.000000        0.561140         4    ;  uncertainty k = 0.468003
         1         6        19        29     9        0.000000       13.129111         1    ;  uncertainty k = 0.629667
         1         6        19        29     9      180.000000        9.756533         2    ;  uncertainty k = 0.245450
         1         6        19        29     9        0.000000        0.714123         3    ;  uncertainty k = 0.172606
         1         6        19        29     9      180.000000       -0.412217         4    ;  uncertainty k = 0.285718
         1         6        19        30     9        0.000000       13.129111         1    ;  uncertainty k = 0.629667
         1         6        19        30     9      180.000000        9.756533         2    ;  uncertainty k = 0.245450
         1         6        19        30     9        0.000000        0.714123         3    ;  uncertainty k = 0.172606
         1         6        19        30     9      180.000000       -0.412217         4    ;  uncertainty k = 0.285718
         2         1         6         5     9        0.000000        1.968898         1    ;  uncertainty k = 1.303642
         2         1         6         5     9      180.000000        5.539831         2    ;  uncertainty k = 1.934359
         2         1         6         5     9        0.000000        1.215088         3    ;  uncertainty k = 0.650296
         2         1         6         5     9      180.000000        1.068040         4    ;  uncertainty k = 0.490493
         2         1         6        19     9        0.000000        2.793109         1    ;  uncertainty k = 1.767061
         2         1         6        19     9      180.000000       10.325178         2    ;  uncertainty k = 0.754001
         2         1         6        19     9        0.000000        2.692809         3    ;  uncertainty k = 0.395811
         2         1         6        19     9      180.000000        0.982486         4    ;  uncertainty k = 0.243420
         2         3         4         5     9        0.000000       -0.764191         1    ;  uncertainty k = 0.727696
         2         3         4         5     9      180.000000        3.561211         2    ;  uncertainty k = 1.056286
         2         3         4         5     9        0.000000       -0.454548         3    ;  uncertainty k = 1.024133
         2         3         4         5     9      180.000000        0.558802         4    ;  uncertainty k = 0.613818
         2         3         4        16     9        0.000000       -1.413185         1    ;  uncertainty k = 1.139671
         2         3         4        16     9      180.000000        2.492878         2    ;  uncertainty k = 0.610322
         2         3         4        16     9        0.000000        0.089893         3    ;  uncertainty k = 0.769500
         2         3         4        16     9      180.000000        0.829806         4    ;  uncertainty k = 0.483785
         2         3        10         9     9        0.000000       -0.426516         1    ;  uncertainty k = 0.593538
         2         3        10         9     9      180.000000        4.535066         2    ;  uncertainty k = 0.159556
         2         3        10         9     9        0.000000        0.439766         3    ;  uncertainty k = 0.179802
         2         3        10         9     9      180.000000        0.072927         4    ;  uncertainty k = 0.052829
         2         3        10        11     9        0.000000       -0.426516         1    ;  uncertainty k = 0.593538
         2         3        10        11     9      180.000000        4.535066         2    ;  uncertainty k = 0.159556
         2         3        10        11     9        0.000000        0.439766         3    ;  uncertainty k = 0.179802
         2         3        10        11     9      180.000000        0.072927         4    ;  uncertainty k = 0.052829
         3         2         1         6     9        0.000000       -3.191300         1    ;  uncertainty k = 3.503993
         3         2         1         6     9      180.000000       31.196985         2    ;  uncertainty k = 0.534871
         3         2         1         6     9        0.000000       -0.075406         3    ;  uncertainty k = 1.318487
         3         2         1         6     9      180.000000       -0.511487         4    ;  uncertainty k = 1.475688
         3         4         5         6     9        0.000000        0.240901         1    ;  uncertainty k = 0.996298
         3         4         5         6     9      180.000000       13.830499         2    ;  uncertainty k = 0.554415
         3         4         5         6     9        0.000000        0.401676         3    ;  uncertainty k = 0.895326
         3         4         5         6     9      180.000000        1.364049         4    ;  uncertainty k = 0.484587
         3         4        16        15     9        0.000000       -0.284674         1    ;  uncertainty k = 1.050001
         3         4        16        15     9      180.000000        3.440076         2    ;  uncertainty k = 0.288574
         3         4        16        15     9        0.000000        0.545310         3    ;  uncertainty k = 0.153066
         3         4        16        15     9      180.000000        0.021413         4    ;  uncertainty k = 0.096376
         3         4        16        17     9        0.000000       -0.187856         1    ;  uncertainty k = 0.966433
         3         4        16        17     9      180.000000        3.410469         2    ;  uncertainty k = 0.378341
         3         4        16        17     9        0.000000        0.471801         3    ;  uncertainty k = 0.153993
         3         4        16        17     9      180.000000        0.008588         4    ;  uncertainty k = 0.103028
         3        10         9         8     9        0.000000        0.198013         1    ;  uncertainty k = 0.174709
         3        10         9         8     9      180.000000        8.670988         2    ;  uncertainty k = 0.503237
         3        10         9         8     9        0.000000        0.963461         3    ;  uncertainty k = 0.194196
         3        10         9         8     9      180.000000        1.745352         4    ;  uncertainty k = 0.198229
         3        10         9        22     9        0.000000       -0.069934         1    ;  uncertainty k = 0.448525
         3        10         9        22     9      180.000000        7.480866         2    ;  uncertainty k = 0.473246
         3        10         9        22     9        0.000000        0.803877         3    ;  uncertainty k = 0.141042
         3        10         9        22     9      180.000000        1.209135         4    ;  uncertainty k = 0.160132
         3        10        11        12     9        0.000000        0.198013         1    ;  uncertainty k = 0.174709
         3        10        11        12     9      180.000000        8.670988         2    ;  uncertainty k = 0.503237
         3        10        11        12     9        0.000000        0.963461         3    ;  uncertainty k = 0.194196
         3        10        11        12     9      180.000000        1.745352         4    ;  uncertainty k = 0.198229
         3        10        11        23     9        0.000000       -0.069934         1    ;  uncertainty k = 0.448525
         3        10        11        23     9      180.000000        7.480866         2    ;  uncertainty k = 0.473246
         3        10        11        23     9        0.000000        0.803877         3    ;  uncertainty k = 0.141042
         3        10        11        23     9      180.000000        1.209135         4    ;  uncertainty k = 0.160132
         4         3        10         9     9        0.000000        0.328979         1    ;  uncertainty k = 0.878504
         4         3        10         9     9      180.000000        2.406226         2    ;  uncertainty k = 0.351222
         4         3        10         9     9        0.000000        0.588069         3    ;  uncertainty k = 0.246573
         4         3        10         9     9      180.000000       -0.012722         4    ;  uncertainty k = 0.123328
         4         3        10        11     9        0.000000        0.328979         1    ;  uncertainty k = 0.878504
         4         3        10        11     9      180.000000        2.406226         2    ;  uncertainty k = 0.351222
         4         3        10        11     9        0.000000        0.588069         3    ;  uncertainty k = 0.246573
         4         3        10        11     9      180.000000       -0.012722         4    ;  uncertainty k = 0.123328
         4         5         6        19     9        0.000000        0.343489         1    ;  uncertainty k = 0.590972
         4         5         6        19     9      180.000000        8.336219         2    ;  uncertainty k = 0.721684
         4         5         6        19     9        0.000000        2.103361         3    ;  uncertainty k = 0.346611
         4         5         6        19     9      180.000000        0.963619         4    ;  uncertainty k = 0.413826
         4        16        15        14     9        0.000000        0.293360         1    ;  uncertainty k = 0.171222
         4        16        15        14     9      180.000000        8.531313         2    ;  uncertainty k = 0.482433
         4        16        15        14     9        0.000000        1.246177         3    ;  uncertainty k = 0.279540
         4        16        15        14     9      180.000000        1.887834         4    ;  uncertainty k = 0.227953
         4        16        15        26     9        0.000000       -0.315192         1    ;  uncertainty k = 0.221049
         4        16        15        26     9      180.000000        7.132512         2    ;  uncertainty k = 0.444422
         4        16        15        26     9        0.000000        0.716153         3    ;  uncertainty k = 0.165382
         4        16        15        26     9      180.000000        1.221302         4    ;  uncertainty k = 0.144010
         4        16        17        18     9        0.000000        0.244044         1    ;  uncertainty k = 0.395750
         4        16        17        18     9      180.000000        8.803327         2    ;  uncertainty k = 0.572735
         4        16        17        18     9        0.000000        1.199283         3    ;  uncertainty k = 0.304682
         4        16        17        18     9      180.000000        1.936244         4    ;  uncertainty k = 0.238942
         4        16        17        27     9        0.000000       -0.276373         1    ;  uncertainty k = 0.176489
         4        16        17        27     9      180.000000        7.354218         2    ;  uncertainty k = 0.536993
         4        16        17        27     9        0.000000        0.751214         3    ;  uncertainty k = 0.142729
         4        16        17        27     9      180.000000        1.232776         4    ;  uncertainty k = 0.139451
         5         4         3        10     9        0.000000       -0.249817         1    ;  uncertainty k = 0.721959
         5         4         3        10     9      180.000000        3.886335         2    ;  uncertainty k = 1.105387
         5         4         3        10     9        0.000000        0.058653         3    ;  uncertainty k = 0.527906
         5         4         3        10     9      180.000000        0.694219         4    ;  uncertainty k = 0.643205
         5         4        16        15     9        0.000000        0.425400         1    ;  uncertainty k = 1.021975
         5         4        16        15     9      180.000000        5.278069         2    ;  uncertainty k = 0.385534
         5         4        16        15     9        0.000000        0.473174         3    ;  uncertainty k = 0.130049
         5         4        16        15     9      180.000000        0.153738         4    ;  uncertainty k = 0.107750
         5         4        16        17     9        0.000000        0.838807         1    ;  uncertainty k = 0.836782
         5         4        16        17     9      180.000000        5.074526         2    ;  uncertainty k = 0.382963
         5         4        16        17     9        0.000000        0.441275         3    ;  uncertainty k = 0.147033
         5         4        16        17     9      180.000000        0.139129         4    ;  uncertainty k = 0.094668
         5         6        19        29     9        0.000000       20.010442         1    ;  uncertainty k = 0.259650
         5         6        19        29     9      180.000000       10.182111         2    ;  uncertainty k = 0.370307
         5         6        19        29     9        0.000000        0.832804         3    ;  uncertainty k = 0.221692
         5         6        19        29     9      180.000000       -0.316472         4    ;  uncertainty k = 0.214044
         5         6        19        30     9        0.000000       20.010442         1    ;  uncertainty k = 0.259650
         5         6        19        30     9      180.000000       10.182111         2    ;  uncertainty k = 0.370307
         5         6        19        30     9        0.000000        0.832804         3    ;  uncertainty k = 0.221692
         5         6        19        30     9      180.000000       -0.316472         4    ;  uncertainty k = 0.214044
         6         5         4        16     9        0.000000        0.677742         1    ;  uncertainty k = 0.653820
         6         5         4        16     9      180.000000       16.035543         2    ;  uncertainty k = 0.735034
         6         5         4        16     9        0.000000        2.098423         3    ;  uncertainty k = 0.629971
         6         5         4        16     9      180.000000        1.688115         4    ;  uncertainty k = 0.459074
         7         8         9        10     9        0.000000       -0.247548         1    ;  uncertainty k = 0.212996
         7         8         9        10     9      180.000000       12.417170         2    ;  uncertainty k = 0.409840
         7         8         9        10     9        0.000000       -0.713291         3    ;  uncertainty k = 0.616676
         7         8         9        10     9      180.000000        0.908891         4    ;  uncertainty k = 0.215303
         7         8         9        22     9        0.000000       -0.099837         1    ;  uncertainty k = 0.393601
         7         8         9        22     9      180.000000        7.551306         2    ;  uncertainty k = 0.620532
         7         8         9        22     9        0.000000        1.144726         3    ;  uncertainty k = 0.157875
         7         8         9        22     9      180.000000        1.669149         4    ;  uncertainty k = 0.110261
         7         8        21        34     9        0.000000        0.444187         1    ;  uncertainty k = 0.210872
         7         8        21        34     9      180.000000        3.117688         2    ;  uncertainty k = 0.273912
         7         8        21        34     9        0.000000        0.493688         3    ;  uncertainty k = 0.033192
         7         8        21        34     9      180.000000        0.272198         4    ;  uncertainty k = 0.046776
         7         8        21        35     9        0.000000        0.444187         1    ;  uncertainty k = 0.210872
         7         8        21        35     9      180.000000        3.117688         2    ;  uncertainty k = 0.273912
         7         8        21        35     9        0.000000        0.493688         3    ;  uncertainty k = 0.033192
         7         8        21        35     9      180.000000        0.272198         4    ;  uncertainty k = 0.046776
         7         8        21        36     9        0.000000        0.444187         1    ;  uncertainty k = 0.210872
         7         8        21        36     9      180.000000        3.117688         2    ;  uncertainty k = 0.273912
         7         8        21        36     9        0.000000        0.493688         3    ;  uncertainty k = 0.033192
         7         8        21        36     9      180.000000        0.272198         4    ;  uncertainty k = 0.046776
         7        12        11        10     9        0.000000       -0.247548         1    ;  uncertainty k = 0.212996
         7        12        11        10     9      180.000000       12.417170         2    ;  uncertainty k = 0.409840
         7        12        11        10     9        0.000000       -0.713291         3    ;  uncertainty k = 0.616676
         7        12        11        10     9      180.000000        0.908891         4    ;  uncertainty k = 0.215303
         7        12        11        23     9        0.000000       -0.099837         1    ;  uncertainty k = 0.393601
         7        12        11        23     9      180.000000        7.551306         2    ;  uncertainty k = 0.620532
         7        12        11        23     9        0.000000        1.144726         3    ;  uncertainty k = 0.157875
         7        12        11        23     9      180.000000        1.669149         4    ;  uncertainty k = 0.110261
         7        12        20        31     9        0.000000        0.444187         1    ;  uncertainty k = 0.210872
         7        12        20        31     9      180.000000        3.117688         2    ;  uncertainty k = 0.273912
         7        12        20        31     9        0.000000        0.493688         3    ;  uncertainty k = 0.033192
         7        12        20        31     9      180.000000        0.272198         4    ;  uncertainty k = 0.046776
         7        12        20        32     9        0.000000        0.444187         1    ;  uncertainty k = 0.210872
         7        12        20        32     9      180.000000        3.117688         2    ;  uncertainty k = 0.273912
         7        12        20        32     9        0.000000        0.493688         3    ;  uncertainty k = 0.033192
         7        12        20        32     9      180.000000        0.272198         4    ;  uncertainty k = 0.046776
         7        12        20        33     9        0.000000        0.444187         1    ;  uncertainty k = 0.210872
         7        12        20        33     9      180.000000        3.117688         2    ;  uncertainty k = 0.273912
         7        12        20        33     9        0.000000        0.493688         3    ;  uncertainty k = 0.033192
         7        12        20        33     9      180.000000        0.272198         4    ;  uncertainty k = 0.046776
         8         7        12        11     9        0.000000       -0.565629         1    ;  uncertainty k = 0.650780
         8         7        12        11     9      180.000000       12.347624         2    ;  uncertainty k = 0.537591
         8         7        12        11     9        0.000000        1.339337         3    ;  uncertainty k = 0.426004
         8         7        12        11     9      180.000000        1.091161         4    ;  uncertainty k = 0.199787
         8         7        12        20     9        0.000000        0.099267         1    ;  uncertainty k = 0.879242
         8         7        12        20     9      180.000000       14.035773         2    ;  uncertainty k = 0.525969
         8         7        12        20     9        0.000000        2.550116         3    ;  uncertainty k = 0.362824
         8         7        12        20     9      180.000000        1.790022         4    ;  uncertainty k = 0.476853
         8         9        10        11     9        0.000000       -0.011614         1    ;  uncertainty k = 0.289902
         8         9        10        11     9      180.000000       11.719252         2    ;  uncertainty k = 0.295481
         8         9        10        11     9        0.000000       -0.932272         3    ;  uncertainty k = 0.195592
         8         9        10        11     9      180.000000        0.835720         4    ;  uncertainty k = 0.230636
         9         8         7        12     9        0.000000       -0.565629         1    ;  uncertainty k = 0.650780
         9         8         7        12     9      180.000000       12.347624         2    ;  uncertainty k = 0.537591
         9         8         7        12     9        0.000000        1.339337         3    ;  uncertainty k = 0.426004
         9         8         7        12     9      180.000000        1.091161         4    ;  uncertainty k = 0.199787
         9         8        21        34     9        0.000000       -0.052970         1    ;  uncertainty k = 0.246702
         9         8        21        34     9      180.000000        1.847984         2    ;  uncertainty k = 0.177157
         9         8        21        34     9        0.000000        0.307680         3    ;  uncertainty k = 0.047981
         9         8        21        34     9      180.000000        0.148111         4    ;  uncertainty k = 0.026536
         9         8        21        35     9        0.000000       -0.052970         1    ;  uncertainty k = 0.246702
         9         8        21        35     9      180.000000        1.847984         2    ;  uncertainty k = 0.177157
         9         8        21        35     9        0.000000        0.307680         3    ;  uncertainty k = 0.047981
         9         8        21        35     9      180.000000        0.148111         4    ;  uncertainty k = 0.026536
         9         8        21        36     9        0.000000       -0.052970         1    ;  uncertainty k = 0.246702
         9         8        21        36     9      180.000000        1.847984         2    ;  uncertainty k = 0.177157
         9         8        21        36     9        0.000000        0.307680         3    ;  uncertainty k = 0.047981
         9         8        21        36     9      180.000000        0.148111         4    ;  uncertainty k = 0.026536
         9        10        11        12     9        0.000000       -0.011614         1    ;  uncertainty k = 0.289902
         9        10        11        12     9      180.000000       11.719252         2    ;  uncertainty k = 0.295481
         9        10        11        12     9        0.000000       -0.932272         3    ;  uncertainty k = 0.195592
         9        10        11        12     9      180.000000        0.835720         4    ;  uncertainty k = 0.230636
         9        10        11        23     9        0.000000        0.345156         1    ;  uncertainty k = 0.189632
         9        10        11        23     9      180.000000        7.554771         2    ;  uncertainty k = 0.620682
         9        10        11        23     9        0.000000        1.556026         3    ;  uncertainty k = 0.231243
         9        10        11        23     9      180.000000        1.705455         4    ;  uncertainty k = 0.241515
        10         3         4        16     9        0.000000       -0.330825         1    ;  uncertainty k = 1.050364
        10         3         4        16     9      180.000000        3.458575         2    ;  uncertainty k = 0.530913
        10         3         4        16     9        0.000000        0.750446         3    ;  uncertainty k = 0.338143
        10         3         4        16     9      180.000000        0.434286         4    ;  uncertainty k = 0.309314
        10         9         8        21     9        0.000000        0.226850         1    ;  uncertainty k = 0.289686
        10         9         8        21     9      180.000000        7.753011         2    ;  uncertainty k = 0.441756
        10         9         8        21     9        0.000000        1.213197         3    ;  uncertainty k = 0.117198
        10         9         8        21     9      180.000000        1.599285         4    ;  uncertainty k = 0.127773
        10        11        12        20     9        0.000000        0.226850         1    ;  uncertainty k = 0.289686
        10        11        12        20     9      180.000000        7.753011         2    ;  uncertainty k = 0.441756
        10        11        12        20     9        0.000000        1.213197         3    ;  uncertainty k = 0.117198
        10        11        12        20     9      180.000000        1.599285         4    ;  uncertainty k = 0.127773
        11        10         9        22     9        0.000000        0.345156         1    ;  uncertainty k = 0.189632
        11        10         9        22     9      180.000000        7.554771         2    ;  uncertainty k = 0.620682
        11        10         9        22     9        0.000000        1.556026         3    ;  uncertainty k = 0.231243
        11        10         9        22     9      180.000000        1.705455         4    ;  uncertainty k = 0.241515
        11        12        20        31     9        0.000000       -0.052970         1    ;  uncertainty k = 0.246702
        11        12        20        31     9      180.000000        1.847984         2    ;  uncertainty k = 0.177157
        11        12        20        31     9        0.000000        0.307680         3    ;  uncertainty k = 0.047981
        11        12        20        31     9      180.000000        0.148111         4    ;  uncertainty k = 0.026536
        11        12        20        32     9        0.000000       -0.052970         1    ;  uncertainty k = 0.246702
        11        12        20        32     9      180.000000        1.847984         2    ;  uncertainty k = 0.177157
        11        12        20        32     9        0.000000        0.307680         3    ;  uncertainty k = 0.047981
        11        12        20        32     9      180.000000        0.148111         4    ;  uncertainty k = 0.026536
        11        12        20        33     9        0.000000       -0.052970         1    ;  uncertainty k = 0.246702
        11        12        20        33     9      180.000000        1.847984         2    ;  uncertainty k = 0.177157
        11        12        20        33     9        0.000000        0.307680         3    ;  uncertainty k = 0.047981
        11        12        20        33     9      180.000000        0.148111         4    ;  uncertainty k = 0.026536
        12         7         8        21     9        0.000000        0.099267         1    ;  uncertainty k = 0.879242
        12         7         8        21     9      180.000000       14.035773         2    ;  uncertainty k = 0.525969
        12         7         8        21     9        0.000000        2.550116         3    ;  uncertainty k = 0.362824
        12         7         8        21     9      180.000000        1.790022         4    ;  uncertainty k = 0.476853
        13        14        15        16     9        0.000000       -0.046981         1    ;  uncertainty k = 0.122243
        13        14        15        16     9      180.000000        8.576933         2    ;  uncertainty k = 0.670600
        13        14        15        16     9        0.000000        0.099173         3    ;  uncertainty k = 0.357111
        13        14        15        16     9      180.000000        1.262657         4    ;  uncertainty k = 0.344776
        13        14        15        26     9        0.000000        0.042095         1    ;  uncertainty k = 0.192315
        13        14        15        26     9      180.000000        5.773075         2    ;  uncertainty k = 0.686603
        13        14        15        26     9        0.000000        1.283304         3    ;  uncertainty k = 0.302692
        13        14        15        26     9      180.000000        1.613211         4    ;  uncertainty k = 0.167046
        13        18        17        16     9        0.000000       -0.109971         1    ;  uncertainty k = 0.115744
        13        18        17        16     9      180.000000       13.749299         2    ;  uncertainty k = 0.280901
        13        18        17        16     9        0.000000       -0.811773         3    ;  uncertainty k = 0.476094
        13        18        17        16     9      180.000000        0.758558         4    ;  uncertainty k = 0.265678
        13        18        17        27     9        0.000000        0.065178         1    ;  uncertainty k = 0.058160
        13        18        17        27     9      180.000000        7.887909         2    ;  uncertainty k = 0.224754
        13        18        17        27     9        0.000000        1.384213         3    ;  uncertainty k = 0.325663
        13        18        17        27     9      180.000000        1.894197         4    ;  uncertainty k = 0.149185
        14        13        18        17     9        0.000000       -0.062201         1    ;  uncertainty k = 0.168995
        14        13        18        17     9      180.000000       14.434508         2    ;  uncertainty k = 0.234455
        14        13        18        17     9        0.000000       -0.987293         3    ;  uncertainty k = 0.518429
        14        13        18        17     9      180.000000        0.746454         4    ;  uncertainty k = 0.235294
        14        13        18        28     9        0.000000       -0.067690         1    ;  uncertainty k = 0.123119
        14        13        18        28     9      180.000000        7.613212         2    ;  uncertainty k = 0.369861
        14        13        18        28     9        0.000000        1.386609         3    ;  uncertainty k = 0.277041
        14        13        18        28     9      180.000000        1.770219         4    ;  uncertainty k = 0.174300
        14        15        16        17     9        0.000000       -0.028693         1    ;  uncertainty k = 0.246565
        14        15        16        17     9      180.000000       11.606034         2    ;  uncertainty k = 0.266127
        14        15        16        17     9        0.000000       -0.604778         3    ;  uncertainty k = 0.324811
        14        15        16        17     9      180.000000        0.966993         4    ;  uncertainty k = 0.309666
        15        14        13        18     9        0.000000        0.060598         1    ;  uncertainty k = 0.222563
        15        14        13        18     9      180.000000        9.308701         2    ;  uncertainty k = 0.481429
        15        14        13        18     9        0.000000       -0.153804         3    ;  uncertainty k = 0.458465
        15        14        13        18     9      180.000000        1.139818         4    ;  uncertainty k = 0.314731
        15        14        13        24     9        0.000000        0.052889         1    ;  uncertainty k = 0.161379
        15        14        13        24     9      180.000000        5.567915         2    ;  uncertainty k = 0.609099
        15        14        13        24     9        0.000000        1.273873         3    ;  uncertainty k = 0.305945
        15        14        13        24     9      180.000000        1.495865         4    ;  uncertainty k = 0.140995
        15        16        17        18     9        0.000000       -0.303742         1    ;  uncertainty k = 0.140351
        15        16        17        18     9      180.000000       11.596970         2    ;  uncertainty k = 0.262113
        15        16        17        18     9        0.000000       -0.707251         3    ;  uncertainty k = 0.283593
        15        16        17        18     9      180.000000        0.921623         4    ;  uncertainty k = 0.250122
        15        16        17        27     9        0.000000        0.220003         1    ;  uncertainty k = 0.118982
        15        16        17        27     9      180.000000        7.055826         2    ;  uncertainty k = 0.557446
        15        16        17        27     9        0.000000        1.373750         3    ;  uncertainty k = 0.178762
        15        16        17        27     9      180.000000        1.693446         4    ;  uncertainty k = 0.260207
        16        15        14        25     9        0.000000       -0.087524         1    ;  uncertainty k = 0.193683
        16        15        14        25     9      180.000000       12.569673         2    ;  uncertainty k = 0.508590
        16        15        14        25     9        0.000000        1.511267         3    ;  uncertainty k = 0.285206
        16        15        14        25     9      180.000000        1.509581         4    ;  uncertainty k = 0.152424
        16        17        18        28     9        0.000000        0.023216         1    ;  uncertainty k = 0.212523
        16        17        18        28     9      180.000000        7.492491         2    ;  uncertainty k = 0.273632
        16        17        18        28     9        0.000000        1.426568         3    ;  uncertainty k = 0.159921
        16        17        18        28     9      180.000000        1.819166         4    ;  uncertainty k = 0.139227
        17        16        15        26     9        0.000000        0.269948         1    ;  uncertainty k = 0.117674
        17        16        15        26     9      180.000000        7.015047         2    ;  uncertainty k = 0.506171
        17        16        15        26     9        0.000000        1.402549         3    ;  uncertainty k = 0.200251
        17        16        15        26     9      180.000000        1.682051         4    ;  uncertainty k = 0.260843
        17        18        13        24     9        0.000000        0.069822         1    ;  uncertainty k = 0.131854
        17        18        13        24     9      180.000000        7.465078         2    ;  uncertainty k = 0.336160
        17        18        13        24     9        0.000000        1.535977         3    ;  uncertainty k = 0.241879
        17        18        13        24     9      180.000000        1.794553         4    ;  uncertainty k = 0.183055
        18        13        14        25     9        0.000000       -0.046282         1    ;  uncertainty k = 0.365667
        18        13        14        25     9      180.000000       12.485756         2    ;  uncertainty k = 0.661191
        18        13        14        25     9        0.000000        1.452823         3    ;  uncertainty k = 0.294668
        18        13        14        25     9      180.000000        1.489590         4    ;  uncertainty k = 0.280375
        20        12        11        23     9        0.000000       -0.389838         1    ;  uncertainty k = 0.325119
        20        12        11        23     9      180.000000        6.895392         2    ;  uncertainty k = 0.201735
        20        12        11        23     9        0.000000        0.451138         3    ;  uncertainty k = 0.256273
        20        12        11        23     9      180.000000        0.852732         4    ;  uncertainty k = 0.237935
        21         8         9        22     9        0.000000       -0.389838         1    ;  uncertainty k = 0.325119
        21         8         9        22     9      180.000000        6.895392         2    ;  uncertainty k = 0.201735
        21         8         9        22     9        0.000000        0.451138         3    ;  uncertainty k = 0.256273
        21         8         9        22     9      180.000000        0.852732         4    ;  uncertainty k = 0.237935
        24        13        14        25     9        0.000000       -0.312121         1    ;  uncertainty k = 0.232950
        24        13        14        25     9      180.000000        8.833436         2    ;  uncertainty k = 0.281033
        24        13        14        25     9        0.000000        0.774751         3    ;  uncertainty k = 0.235714
        24        13        14        25     9      180.000000        0.929474         4    ;  uncertainty k = 0.136767
        24        13        18        28     9        0.000000       -0.063688         1    ;  uncertainty k = 0.092431
        24        13        18        28     9      180.000000        7.607955         2    ;  uncertainty k = 0.527944
        24        13        18        28     9        0.000000       -0.422706         3    ;  uncertainty k = 0.276658
        24        13        18        28     9      180.000000        0.026933         4    ;  uncertainty k = 0.165668
        25        14        15        26     9        0.000000       -0.363281         1    ;  uncertainty k = 0.156001
        25        14        15        26     9      180.000000        9.052035         2    ;  uncertainty k = 0.374217
        25        14        15        26     9        0.000000        0.794075         3    ;  uncertainty k = 0.204975
        25        14        15        26     9      180.000000        1.056334         4    ;  uncertainty k = 0.179198
        27        17        18        28     9        0.000000       -0.136374         1    ;  uncertainty k = 0.142437
        27        17        18        28     9      180.000000        7.815651         2    ;  uncertainty k = 0.372768
        27        17        18        28     9        0.000000       -0.426217         3    ;  uncertainty k = 0.274512
        27        17        18        28     9      180.000000        0.149265         4    ;  uncertainty k = 0.125603

[ dihedrals ] ; impropers
;       ai        aj        ak        al funct           phase               k        pn
         3         2         4        10     4      180.000000       21.845855         2    ;  uncertainty k = 0.152659
         3         4        10         2     4      180.000000       21.845855         2    ;  uncertainty k = 0.152659
         3        10         2         4     4      180.000000       21.845855         2    ;  uncertainty k = 0.152659
         4         3         5        16     4      180.000000       29.169832         2    ;  uncertainty k = 0.044056
         4         5        16         3     4      180.000000       29.169832         2    ;  uncertainty k = 0.044056
         4        16         3         5     4      180.000000       29.169832         2    ;  uncertainty k = 0.044056
         6         1         5        19     4      180.000000       43.323642         2    ;  uncertainty k = 0.063441
         6         5        19         1     4      180.000000       43.323642         2    ;  uncertainty k = 0.063441
         6        19         1         5     4      180.000000       43.323642         2    ;  uncertainty k = 0.063441
         8         7         9        21     4      180.000000       28.496570         2    ;  uncertainty k = 0.046375
         8         9        21         7     4      180.000000       28.496570         2    ;  uncertainty k = 0.046375
         8        21         7         9     4      180.000000       28.496570         2    ;  uncertainty k = 0.046375
         9         8        10        22     4      180.000000        3.203831         2    ;  uncertainty k = 0.228557
         9        10        22         8     4      180.000000        3.203831         2    ;  uncertainty k = 0.228557
         9        22         8        10     4      180.000000        3.203831         2    ;  uncertainty k = 0.228557
        10         3         9        11     4      180.000000       13.886279         2    ;  uncertainty k = 0.135203
        10         9        11         3     4      180.000000       13.886279         2    ;  uncertainty k = 0.135203
        10        11         3         9     4      180.000000       13.886279         2    ;  uncertainty k = 0.135203
        11        10        12        23     4      180.000000        3.203831         2    ;  uncertainty k = 0.228557
        11        12        23        10     4      180.000000        3.203831         2    ;  uncertainty k = 0.228557
        11        23        10        12     4      180.000000        3.203831         2    ;  uncertainty k = 0.228557
        12         7        11        20     4      180.000000       28.496570         2    ;  uncertainty k = 0.046375
        12        11        20         7     4      180.000000       28.496570         2    ;  uncertainty k = 0.046375
        12        20         7        11     4      180.000000       28.496570         2    ;  uncertainty k = 0.046375
        13        14        18        24     4      180.000000        2.325547         2    ;  uncertainty k = 0.275516
        13        18        24        14     4      180.000000        2.325547         2    ;  uncertainty k = 0.275516
        13        24        14        18     4      180.000000        2.325547         2    ;  uncertainty k = 0.275516
        14        13        15        25     4      180.000000       17.187754         2    ;  uncertainty k = 0.026354
        14        15        25        13     4      180.000000       17.187754         2    ;  uncertainty k = 0.026354
        14        25        13        15     4      180.000000       17.187754         2    ;  uncertainty k = 0.026354
        15        14        16        26     4      180.000000        2.989014         2    ;  uncertainty k = 0.160145
        15        16        26        14     4      180.000000        2.989014         2    ;  uncertainty k = 0.160145
        15        26        14        16     4      180.000000        2.989014         2    ;  uncertainty k = 0.160145
        16         4        15        17     4      180.000000       11.317786         2    ;  uncertainty k = 0.105116
        16        15        17         4     4      180.000000       11.317786         2    ;  uncertainty k = 0.105116
        16        17         4        15     4      180.000000       11.317786         2    ;  uncertainty k = 0.105116
        17        16        18        27     4      180.000000        3.900824         2    ;  uncertainty k = 0.076428
        17        18        27        16     4      180.000000        3.900824         2    ;  uncertainty k = 0.076428
        17        27        16        18     4      180.000000        3.900824         2    ;  uncertainty k = 0.076428
        18        13        17        28     4      180.000000        4.868149         2    ;  uncertainty k = 0.104785
        18        17        28        13     4      180.000000        4.868149         2    ;  uncertainty k = 0.104785
        18        28        13        17     4      180.000000        4.868149         2    ;  uncertainty k = 0.104785
        19         6        29        30     4      180.000000        0.390383         2    ;  uncertainty k = 0.522839
        19        29        30         6     4      180.000000        0.390383         2    ;  uncertainty k = 0.522839
        19        30         6        29     4      180.000000        0.390383         2    ;  uncertainty k = 0.522839

[ pairs ]
;       ai        aj funct
         1         4     1
         1        10     1
         1        29     1
         1        30     1
         2         5     1
         2         9     1
         2        11     1
         2        16     1
         2        19     1
         3         6     1
         3         8     1
         3        12     1
         3        15     1
         3        17     1
         3        22     1
         3        23     1
         4         9     1
         4        11     1
         4        14     1
         4        18     1
         4        19     1
         4        26     1
         4        27     1
         5        10     1
         5        15     1
         5        17     1
         5        29     1
         5        30     1
         6        16     1
         7        10     1
         7        22     1
         7        23     1
         7        31     1
         7        32     1
         7        33     1
         7        34     1
         7        35     1
         7        36     1
         8        11     1
         8        20     1
         9        12     1
         9        23     1
         9        34     1
         9        35     1
         9        36     1
        10        16     1
        10        20     1
        10        21     1
        11        22     1
        11        31     1
        11        32     1
        11        33     1
        12        21     1
        13        16     1
        13        26     1
        13        27     1
        14        17     1
        14        28     1
        15        18     1
        15        24     1
        15        27     1
        16        25     1
        16        28     1
        17        24     1
        17        26     1
        18        25     1
        20        23     1
        21        22     1
        24        25     1
        24        28     1
        25        26     1
        27        28     1
