; ITP file created by ByteFF-joint-25, 2025-07-14 11:28:15.603795

[ atomtypes ]
;name           bonded.type        at.num        mass        charge   ptype           sigma         epsilon
 n0bf                                   7      0.0000       0.00000       A     3.38457e-01     3.93065e-01    ;  uncertainty sigma = 0.000033, epsilon = 0.002906
 n1bf                                   7      0.0000       0.00000       A     3.38476e-01     3.93713e-01    ;  uncertainty sigma = 0.000022, epsilon = 0.001198
 c2bf                                   6      0.0000       0.00000       A     3.31542e-01     4.12809e-01    ;  uncertainty sigma = 0.000017, epsilon = 0.001394
 c3bf                                   6      0.0000       0.00000       A     3.31532e-01     4.12868e-01    ;  uncertainty sigma = 0.000013, epsilon = 0.000681
 n4bf                                   7      0.0000       0.00000       A     3.38467e-01     3.94052e-01    ;  uncertainty sigma = 0.000030, epsilon = 0.001987
 c5bf                                   6      0.0000       0.00000       A     3.31538e-01     4.13311e-01    ;  uncertainty sigma = 0.000020, epsilon = 0.001585
 n6bf                                   7      0.0000       0.00000       A     3.38416e-01     3.93257e-01    ;  uncertainty sigma = 0.000010, epsilon = 0.001496
 c7bf                                   6      0.0000       0.00000       A     3.31514e-01     4.13269e-01    ;  uncertainty sigma = 0.000005, epsilon = 0.000870
 c8bf                                   6      0.0000       0.00000       A     3.31522e-01     4.13566e-01    ;  uncertainty sigma = 0.000009, epsilon = 0.000967
 c9bf                                   6      0.0000       0.00000       A     3.31542e-01     4.13167e-01    ;  uncertainty sigma = 0.000015, epsilon = 0.001048
 c10bf                                  6      0.0000       0.00000       A     3.31538e-01     4.13392e-01    ;  uncertainty sigma = 0.000010, epsilon = 0.001313
 c11bf                                  6      0.0000       0.00000       A     3.31504e-01     4.13720e-01    ;  uncertainty sigma = 0.000013, epsilon = 0.001136
 c12bf                                  6      0.0000       0.00000       A     3.31522e-01     4.13270e-01    ;  uncertainty sigma = 0.000003, epsilon = 0.000629
 c13bf                                  6      0.0000       0.00000       A     3.31517e-01     4.13353e-01    ;  uncertainty sigma = 0.000004, epsilon = 0.000645
 c14bf                                  6      0.0000       0.00000       A     3.31525e-01     4.13707e-01    ;  uncertainty sigma = 0.000004, epsilon = 0.000846
 c15bf                                  6      0.0000       0.00000       A     3.31546e-01     4.13441e-01    ;  uncertainty sigma = 0.000018, epsilon = 0.000958
 c16bf                                  6      0.0000       0.00000       A     3.31525e-01     4.13707e-01    ;  uncertainty sigma = 0.000004, epsilon = 0.000846
 c17bf                                  6      0.0000       0.00000       A     3.31517e-01     4.13353e-01    ;  uncertainty sigma = 0.000004, epsilon = 0.000645
 n18bf                                  7      0.0000       0.00000       A     3.36801e-01     4.68954e-01    ;  uncertainty sigma = 0.000066, epsilon = 0.001925
 c19bf                                  6      0.0000       0.00000       A     3.39785e-01     4.50085e-01    ;  uncertainty sigma = 0.000004, epsilon = 0.001538
 c20bf                                  6      0.0000       0.00000       A     3.39774e-01     4.50938e-01    ;  uncertainty sigma = 0.000004, epsilon = 0.000493
 h21bf                                  1      0.0000       0.00000       A     2.62561e-01     6.68873e-02    ;  uncertainty sigma = 0.000007, epsilon = 0.000486
 h22bf                                  1      0.0000       0.00000       A     2.62571e-01     6.69389e-02    ;  uncertainty sigma = 0.000019, epsilon = 0.000690
 f23bf                                  9      0.0000       0.00000       A     3.03439e-01     3.47939e-01    ;  uncertainty sigma = 0.000014, epsilon = 0.000730
 h24bf                                  1      0.0000       0.00000       A     2.62567e-01     6.70835e-02    ;  uncertainty sigma = 0.000012, epsilon = 0.000443
 h25bf                                  1      0.0000       0.00000       A     2.62564e-01     6.70273e-02    ;  uncertainty sigma = 0.000012, epsilon = 0.000610
 h26bf                                  1      0.0000       0.00000       A     2.62564e-01     6.70273e-02    ;  uncertainty sigma = 0.000012, epsilon = 0.000610
 h27bf                                  1      0.0000       0.00000       A     2.62567e-01     6.70835e-02    ;  uncertainty sigma = 0.000012, epsilon = 0.000443
 h28bf                                  1      0.0000       0.00000       A     1.10728e-01     4.07631e-02    ;  uncertainty sigma = 0.000034, epsilon = 0.001087
 h29bf                                  1      0.0000       0.00000       A     1.10728e-01     4.07631e-02    ;  uncertainty sigma = 0.000034, epsilon = 0.001087
 f30bf                                  9      0.0000       0.00000       A     3.03422e-01     3.47876e-01    ;  uncertainty sigma = 0.000009, epsilon = 0.001355
 f31bf                                  9      0.0000       0.00000       A     3.03422e-01     3.47876e-01    ;  uncertainty sigma = 0.000009, epsilon = 0.001355
 f32bf                                  9      0.0000       0.00000       A     3.03422e-01     3.47876e-01    ;  uncertainty sigma = 0.000009, epsilon = 0.001355
 h33bf                                  1      0.0000       0.00000       A     2.60034e-01     8.66333e-02    ;  uncertainty sigma = 0.000007, epsilon = 0.000537
 h34bf                                  1      0.0000       0.00000       A     2.60034e-01     8.66333e-02    ;  uncertainty sigma = 0.000007, epsilon = 0.000537
 h35bf                                  1      0.0000       0.00000       A     2.60034e-01     8.66333e-02    ;  uncertainty sigma = 0.000007, epsilon = 0.000537

[ moleculetype ]
;name             nrexcl
 MOL                   3

[ atoms ]
;       nr            type      resi   res      atom      cgnr      charge          mass ; qtot
         1            n0bf         1   UNL        n0         1    -0.40685       14.0070 ; qtot   -0.407
         2            n1bf         1   UNL        n1         2    -0.24885       14.0070 ; qtot   -0.656
         3            c2bf         1   UNL        c2         3     0.24913       12.0110 ; qtot   -0.407
         4            c3bf         1   UNL        c3         4     0.47235       12.0110 ; qtot    0.066
         5            n4bf         1   UNL        n4         5    -0.73822       14.0070 ; qtot   -0.672
         6            c5bf         1   UNL        c5         6     0.82167       12.0110 ; qtot    0.149
         7            n6bf         1   UNL        n6         7    -0.63183       14.0070 ; qtot   -0.483
         8            c7bf         1   UNL        c7         8     0.42807       12.0110 ; qtot   -0.055
         9            c8bf         1   UNL        c8         9    -0.20268       12.0110 ; qtot   -0.257
        10            c9bf         1   UNL        c9        10    -0.09748       12.0110 ; qtot   -0.355
        11           c10bf         1   UNL       c10        11    -0.15544       12.0110 ; qtot   -0.510
        12           c11bf         1   UNL       c11        12     0.32581       12.0110 ; qtot   -0.184
        13           c12bf         1   UNL       c12        13     0.14140       12.0110 ; qtot   -0.043
        14           c13bf         1   UNL       c13        14    -0.17230       12.0110 ; qtot   -0.215
        15           c14bf         1   UNL       c14        15    -0.06478       12.0110 ; qtot   -0.280
        16           c15bf         1   UNL       c15        16    -0.18367       12.0110 ; qtot   -0.464
        17           c16bf         1   UNL       c16        17    -0.06478       12.0110 ; qtot   -0.528
        18           c17bf         1   UNL       c17        18    -0.17230       12.0110 ; qtot   -0.701
        19           n18bf         1   UNL       n18        19    -0.92625       14.0070 ; qtot   -1.627
        20           c19bf         1   UNL       c19        20     0.61596       12.0110 ; qtot   -1.011
        21           c20bf         1   UNL       c20        21    -0.14246       12.0110 ; qtot   -1.154
        22           h21bf         1   UNL       h21        22     0.15442        1.0080 ; qtot   -0.999
        23           h22bf         1   UNL       h22        23     0.17517        1.0080 ; qtot   -0.824
        24           f23bf         1   UNL       f23        24    -0.14344       18.9980 ; qtot   -0.967
        25           h24bf         1   UNL       h24        25     0.15454        1.0080 ; qtot   -0.813
        26           h25bf         1   UNL       h25        26     0.15052        1.0080 ; qtot   -0.662
        27           h26bf         1   UNL       h26        27     0.15052        1.0080 ; qtot   -0.512
        28           h27bf         1   UNL       h27        28     0.15454        1.0080 ; qtot   -0.357
        29           h28bf         1   UNL       h28        29     0.43092        1.0080 ; qtot    0.074
        30           h29bf         1   UNL       h29        30     0.43092        1.0080 ; qtot    0.505
        31           f30bf         1   UNL       f30        31    -0.22077       18.9980 ; qtot    0.284
        32           f31bf         1   UNL       f31        32    -0.22077       18.9980 ; qtot    0.063
        33           f32bf         1   UNL       f32        33    -0.22077       18.9980 ; qtot   -0.158
        34           h33bf         1   UNL       h33        34     0.05257        1.0080 ; qtot   -0.105
        35           h34bf         1   UNL       h34        35     0.05257        1.0080 ; qtot   -0.053
        36           h35bf         1   UNL       h35        36     0.05256        1.0080 ; qtot   -0.000

[ bonds ]
;       ai        aj funct               r               k
         1         2     1        0.130778   361370.603955    ;  uncertainty r = 0.000176, k = 32.459970
         1         6     1        0.135400   366916.906592    ;  uncertainty r = 0.000241, k = 17.361955
         2         3     1        0.133388   332706.373389    ;  uncertainty r = 0.000442, k = 14.108441
         3         4     1        0.140438   327002.072656    ;  uncertainty r = 0.000194, k = 14.890359
         3        10     1        0.147753   270521.801074    ;  uncertainty r = 0.000159, k = 18.155205
         4         5     1        0.133035   420127.381152    ;  uncertainty r = 0.000119, k = 20.872352
         4        16     1        0.147693   267252.948926    ;  uncertainty r = 0.000153, k = 2.859943
         5         6     1        0.136102   532915.906348    ;  uncertainty r = 0.000140, k = 13.557526
         6        19     1        0.140058   625071.519727    ;  uncertainty r = 0.000422, k = 22.781256
         7         8     1        0.134197   378948.485840    ;  uncertainty r = 0.000092, k = 4.522755
         7        12     1        0.132091   396370.055078    ;  uncertainty r = 0.000156, k = 8.733442
         8         9     1        0.140165   351228.055762    ;  uncertainty r = 0.000049, k = 4.484143
         8        21     1        0.150773   257643.002686    ;  uncertainty r = 0.000041, k = 5.251042
         9        10     1        0.139314   363001.225000    ;  uncertainty r = 0.000057, k = 13.185275
         9        22     1        0.108794   338359.548828    ;  uncertainty r = 0.000026, k = 1.057074
        10        11     1        0.139286   361969.040576    ;  uncertainty r = 0.000032, k = 8.930899
        11        12     1        0.138664   334241.383496    ;  uncertainty r = 0.000073, k = 5.715946
        11        23     1        0.108654   335917.179687    ;  uncertainty r = 0.000029, k = 1.126897
        12        20     1        0.149182   225640.203662    ;  uncertainty r = 0.000101, k = 5.785588
        13        14     1        0.139044   362655.682373    ;  uncertainty r = 0.000010, k = 1.233216
        13        18     1        0.139044   362655.682373    ;  uncertainty r = 0.000010, k = 1.233216
        13        24     1        0.135626   340851.102441    ;  uncertainty r = 0.000032, k = 2.026568
        14        15     1        0.139212   368817.837939    ;  uncertainty r = 0.000036, k = 3.203449
        14        25     1        0.108807   336192.571875    ;  uncertainty r = 0.000018, k = 0.481920
        15        16     1        0.140084   345582.720215    ;  uncertainty r = 0.000027, k = 1.898945
        15        26     1        0.108630   332812.122559    ;  uncertainty r = 0.000021, k = 0.888838
        16        17     1        0.140084   345582.720215    ;  uncertainty r = 0.000027, k = 1.898945
        17        18     1        0.139212   368817.837939    ;  uncertainty r = 0.000036, k = 3.203449
        17        27     1        0.108630   332812.122559    ;  uncertainty r = 0.000021, k = 0.888838
        18        28     1        0.108807   336192.571875    ;  uncertainty r = 0.000018, k = 0.481920
        19        29     1        0.102196   439793.713379    ;  uncertainty r = 0.000076, k = 4.088413
        19        30     1        0.102196   439793.713379    ;  uncertainty r = 0.000076, k = 4.088413
        20        31     1        0.134646   290712.308008    ;  uncertainty r = 0.000046, k = 3.961892
        20        32     1        0.134646   290712.308008    ;  uncertainty r = 0.000046, k = 3.961892
        20        33     1        0.134646   290712.308008    ;  uncertainty r = 0.000046, k = 3.961892
        21        34     1        0.109471   310407.139648    ;  uncertainty r = 0.000016, k = 1.610803
        21        35     1        0.109471   310407.139648    ;  uncertainty r = 0.000016, k = 1.610810
        21        36     1        0.109471   310407.139648    ;  uncertainty r = 0.000016, k = 1.610810

[ angles ]
;       ai        aj        ak funct           theta             cth
         1         2         3     1      119.692001      625.298915    ;  uncertainty theta = 0.005630, k = 0.078949
         1         6         5     1      125.473976      667.166559    ;  uncertainty theta = 0.004399, k = 0.260032
         1         6        19     1      122.667969      687.926313    ;  uncertainty theta = 0.008559, k = 0.200162
         2         1         6     1      112.117577      575.313599    ;  uncertainty theta = 0.004635, k = 0.210273
         2         3         4     1      122.483521      528.592467    ;  uncertainty theta = 0.006188, k = 0.157889
         2         3        10     1      115.975365      445.503364    ;  uncertainty theta = 0.007723, k = 0.188746
         3         4         5     1      120.132217      518.295809    ;  uncertainty theta = 0.006174, k = 0.326455
         3         4        16     1      120.773605      336.615268    ;  uncertainty theta = 0.005607, k = 0.291430
         3        10         9     1      121.162415      377.154185    ;  uncertainty theta = 0.006823, k = 0.076060
         3        10        11     1      120.547256      377.910562    ;  uncertainty theta = 0.006191, k = 0.071717
         4         3        10     1      120.859390      356.559623    ;  uncertainty theta = 0.005325, k = 0.256103
         4         5         6     1      117.333641      426.968275    ;  uncertainty theta = 0.017496, k = 0.318744
         4        16        15     1      118.699478      363.589383    ;  uncertainty theta = 0.002794, k = 0.154673
         4        16        17     1      118.699478      363.589383    ;  uncertainty theta = 0.002794, k = 0.154673
         5         4        16     1      120.500366      471.375967    ;  uncertainty theta = 0.005801, k = 0.133227
         5         6        19     1      125.763504      798.173718    ;  uncertainty theta = 0.006180, k = 0.064188
         6        19        29     1      118.262405      443.776577    ;  uncertainty theta = 0.004875, k = 0.045402
         6        19        30     1      118.262405      443.776577    ;  uncertainty theta = 0.004875, k = 0.045402
         7         8         9     1      122.562088      636.326924    ;  uncertainty theta = 0.003642, k = 0.082239
         7         8        21     1      118.315102      501.013411    ;  uncertainty theta = 0.002691, k = 0.107313
         7        12        11     1      125.848892      652.640285    ;  uncertainty theta = 0.003202, k = 0.101236
         7        12        20     1      108.989952      389.387482    ;  uncertainty theta = 0.005491, k = 0.153437
         8         7        12     1      116.228188      408.309522    ;  uncertainty theta = 0.007887, k = 0.082601
         8         9        10     1      118.273293      503.995283    ;  uncertainty theta = 0.002306, k = 0.102890
         8         9        22     1      120.703880      283.018749    ;  uncertainty theta = 0.001552, k = 0.064811
         8        21        34     1      109.022865      387.587881    ;  uncertainty theta = 0.001770, k = 0.037213
         8        21        35     1      109.022865      387.587881    ;  uncertainty theta = 0.001770, k = 0.037213
         8        21        36     1      109.022865      387.587881    ;  uncertainty theta = 0.001770, k = 0.037213
         9         8        21     1      120.721008      412.224808    ;  uncertainty theta = 0.003907, k = 0.135399
         9        10        11     1      118.923172      443.440668    ;  uncertainty theta = 0.003882, k = 0.122707
        10         9        22     1      120.072464      269.731408    ;  uncertainty theta = 0.003254, k = 0.081724
        10        11        12     1      117.418800      484.729003    ;  uncertainty theta = 0.001440, k = 0.180021
        10        11        23     1      120.756004      266.927625    ;  uncertainty theta = 0.002817, k = 0.066524
        11        12        20     1      117.090004      344.786154    ;  uncertainty theta = 0.006531, k = 0.142902
        12        11        23     1      121.199013      279.981653    ;  uncertainty theta = 0.002867, k = 0.109477
        12        20        31     1      112.155983      593.549201    ;  uncertainty theta = 0.002160, k = 0.102780
        12        20        32     1      112.155983      593.549201    ;  uncertainty theta = 0.002160, k = 0.102780
        12        20        33     1      112.155983      593.549201    ;  uncertainty theta = 0.002160, k = 0.102780
        13        14        15     1      118.019653      491.103640    ;  uncertainty theta = 0.002382, k = 0.081068
        13        14        25     1      120.998985      283.639620    ;  uncertainty theta = 0.001240, k = 0.031241
        13        18        17     1      118.019653      491.103640    ;  uncertainty theta = 0.002382, k = 0.081068
        13        18        28     1      120.998985      283.639620    ;  uncertainty theta = 0.001240, k = 0.031241
        14        13        18     1      121.617393      366.360064    ;  uncertainty theta = 0.004526, k = 0.135902
        14        13        24     1      119.126053      518.336573    ;  uncertainty theta = 0.001495, k = 0.045458
        14        15        16     1      121.719009      523.238006    ;  uncertainty theta = 0.002539, k = 0.049620
        14        15        26     1      119.546707      288.991528    ;  uncertainty theta = 0.001599, k = 0.052113
        15        14        25     1      121.429825      278.975427    ;  uncertainty theta = 0.001236, k = 0.024406
        15        16        17     1      121.051613      446.010052    ;  uncertainty theta = 0.004550, k = 0.089196
        16        15        26     1      118.686623      274.478310    ;  uncertainty theta = 0.002634, k = 0.053557
        16        17        18     1      121.719009      523.238006    ;  uncertainty theta = 0.002539, k = 0.049620
        16        17        27     1      118.686623      274.478310    ;  uncertainty theta = 0.002634, k = 0.053557
        17        18        28     1      121.429825      278.975427    ;  uncertainty theta = 0.001236, k = 0.024406
        18        13        24     1      119.126053      518.336573    ;  uncertainty theta = 0.001495, k = 0.045458
        18        17        27     1      119.546707      288.991528    ;  uncertainty theta = 0.001599, k = 0.052113
        29        19        30     1      107.926712      266.053474    ;  uncertainty theta = 0.004368, k = 0.064560
        31        20        32     1      108.559586      788.291622    ;  uncertainty theta = 0.000979, k = 0.021788
        31        20        33     1      108.559586      788.291622    ;  uncertainty theta = 0.000979, k = 0.021788
        32        20        33     1      108.559586      788.291622    ;  uncertainty theta = 0.000979, k = 0.021788
        34        21        35     1      107.070175      313.433702    ;  uncertainty theta = 0.001291, k = 0.025972
        34        21        36     1      107.070175      313.433702    ;  uncertainty theta = 0.001291, k = 0.025972
        35        21        36     1      107.070175      313.433702    ;  uncertainty theta = 0.001291, k = 0.025972

[ dihedrals ] ; propers for gromacs 4.5 or higher, use funct 9
;       ai        aj        ak        al funct           phase               k        pn
         1         2         3         4     9        0.000000        1.853049         1    ;  uncertainty k = 1.469544
         1         2         3         4     9      180.000000       12.172563         2    ;  uncertainty k = 0.303915
         1         2         3         4     9        0.000000        2.117083         3    ;  uncertainty k = 0.302652
         1         2         3         4     9      180.000000        1.351819         4    ;  uncertainty k = 0.132806
         1         2         3        10     9        0.000000        0.885870         1    ;  uncertainty k = 0.831631
         1         2         3        10     9      180.000000       17.622217         2    ;  uncertainty k = 0.192388
         1         2         3        10     9        0.000000        2.951316         3    ;  uncertainty k = 0.380010
         1         2         3        10     9      180.000000        1.592402         4    ;  uncertainty k = 0.368938
         1         6         5         4     9        0.000000       -0.159502         1    ;  uncertainty k = 2.061285
         1         6         5         4     9      180.000000        3.831664         2    ;  uncertainty k = 1.625385
         1         6         5         4     9        0.000000        1.173384         3    ;  uncertainty k = 0.518495
         1         6         5         4     9      180.000000        0.562840         4    ;  uncertainty k = 0.479066
         1         6        19        29     9        0.000000       13.129111         1    ;  uncertainty k = 0.629667
         1         6        19        29     9      180.000000        9.756533         2    ;  uncertainty k = 0.245450
         1         6        19        29     9        0.000000        0.714123         3    ;  uncertainty k = 0.172606
         1         6        19        29     9      180.000000       -0.412217         4    ;  uncertainty k = 0.285718
         1         6        19        30     9        0.000000       13.129111         1    ;  uncertainty k = 0.629667
         1         6        19        30     9      180.000000        9.756533         2    ;  uncertainty k = 0.245450
         1         6        19        30     9        0.000000        0.714123         3    ;  uncertainty k = 0.172606
         1         6        19        30     9      180.000000       -0.412217         4    ;  uncertainty k = 0.285718
         2         1         6         5     9        0.000000        1.968898         1    ;  uncertainty k = 1.303642
         2         1         6         5     9      180.000000        5.539831         2    ;  uncertainty k = 1.934359
         2         1         6         5     9        0.000000        1.215088         3    ;  uncertainty k = 0.650296
         2         1         6         5     9      180.000000        1.068040         4    ;  uncertainty k = 0.490493
         2         1         6        19     9        0.000000        2.793109         1    ;  uncertainty k = 1.767061
         2         1         6        19     9      180.000000       10.325178         2    ;  uncertainty k = 0.754001
         2         1         6        19     9        0.000000        2.692809         3    ;  uncertainty k = 0.395811
         2         1         6        19     9      180.000000        0.982486         4    ;  uncertainty k = 0.243420
         2         3         4         5     9        0.000000       -0.738741         1    ;  uncertainty k = 0.684120
         2         3         4         5     9      180.000000        3.480709         2    ;  uncertainty k = 1.061352
         2         3         4         5     9        0.000000       -0.418949         3    ;  uncertainty k = 1.026514
         2         3         4         5     9      180.000000        0.548978         4    ;  uncertainty k = 0.601939
         2         3         4        16     9        0.000000       -1.387573         1    ;  uncertainty k = 1.178328
         2         3         4        16     9      180.000000        2.362508         2    ;  uncertainty k = 0.786353
         2         3         4        16     9        0.000000        0.100712         3    ;  uncertainty k = 0.847352
         2         3         4        16     9      180.000000        0.838379         4    ;  uncertainty k = 0.482560
         2         3        10         9     9        0.000000       -0.514613         1    ;  uncertainty k = 0.535061
         2         3        10         9     9      180.000000        4.566617         2    ;  uncertainty k = 0.165355
         2         3        10         9     9        0.000000        0.438629         3    ;  uncertainty k = 0.179786
         2         3        10         9     9      180.000000        0.074387         4    ;  uncertainty k = 0.040212
         2         3        10        11     9        0.000000       -0.039109         1    ;  uncertainty k = 0.667528
         2         3        10        11     9      180.000000        4.651520         2    ;  uncertainty k = 0.213475
         2         3        10        11     9        0.000000        0.460567         3    ;  uncertainty k = 0.106345
         2         3        10        11     9      180.000000        0.093933         4    ;  uncertainty k = 0.032562
         3         2         1         6     9        0.000000       -3.191300         1    ;  uncertainty k = 3.503993
         3         2         1         6     9      180.000000       31.196985         2    ;  uncertainty k = 0.534871
         3         2         1         6     9        0.000000       -0.075406         3    ;  uncertainty k = 1.318487
         3         2         1         6     9      180.000000       -0.511487         4    ;  uncertainty k = 1.475688
         3         4         5         6     9        0.000000        0.274083         1    ;  uncertainty k = 0.979507
         3         4         5         6     9      180.000000       13.757312         2    ;  uncertainty k = 0.567464
         3         4         5         6     9        0.000000        0.419694         3    ;  uncertainty k = 0.882769
         3         4         5         6     9      180.000000        1.357347         4    ;  uncertainty k = 0.490157
         3         4        16        15     9        0.000000       -0.169205         1    ;  uncertainty k = 0.881247
         3         4        16        15     9      180.000000        3.630140         2    ;  uncertainty k = 0.319265
         3         4        16        15     9        0.000000        0.552444         3    ;  uncertainty k = 0.150833
         3         4        16        15     9      180.000000        0.014774         4    ;  uncertainty k = 0.101826
         3         4        16        17     9        0.000000       -0.169205         1    ;  uncertainty k = 0.881247
         3         4        16        17     9      180.000000        3.630140         2    ;  uncertainty k = 0.319265
         3         4        16        17     9        0.000000        0.552444         3    ;  uncertainty k = 0.150833
         3         4        16        17     9      180.000000        0.014774         4    ;  uncertainty k = 0.101826
         3        10         9         8     9        0.000000        0.167011         1    ;  uncertainty k = 0.261686
         3        10         9         8     9      180.000000        8.690580         2    ;  uncertainty k = 0.378998
         3        10         9         8     9        0.000000        0.988347         3    ;  uncertainty k = 0.183720
         3        10         9         8     9      180.000000        1.762876         4    ;  uncertainty k = 0.160556
         3        10         9        22     9        0.000000       -0.007598         1    ;  uncertainty k = 0.411043
         3        10         9        22     9      180.000000        7.608740         2    ;  uncertainty k = 0.499071
         3        10         9        22     9        0.000000        0.808363         3    ;  uncertainty k = 0.139673
         3        10         9        22     9      180.000000        1.224334         4    ;  uncertainty k = 0.154425
         3        10        11        12     9        0.000000        0.226508         1    ;  uncertainty k = 0.187642
         3        10        11        12     9      180.000000        8.271680         2    ;  uncertainty k = 0.593113
         3        10        11        12     9        0.000000        1.081187         3    ;  uncertainty k = 0.182237
         3        10        11        12     9      180.000000        1.762007         4    ;  uncertainty k = 0.196767
         3        10        11        23     9        0.000000        0.025395         1    ;  uncertainty k = 0.440153
         3        10        11        23     9      180.000000        7.346695         2    ;  uncertainty k = 0.370501
         3        10        11        23     9        0.000000        0.810578         3    ;  uncertainty k = 0.142431
         3        10        11        23     9      180.000000        1.274969         4    ;  uncertainty k = 0.113590
         4         3        10         9     9        0.000000        0.363287         1    ;  uncertainty k = 0.867837
         4         3        10         9     9      180.000000        2.390222         2    ;  uncertainty k = 0.308996
         4         3        10         9     9        0.000000        0.590338         3    ;  uncertainty k = 0.247104
         4         3        10         9     9      180.000000       -0.006815         4    ;  uncertainty k = 0.118835
         4         3        10        11     9        0.000000        0.504796         1    ;  uncertainty k = 0.807735
         4         3        10        11     9      180.000000        2.526051         2    ;  uncertainty k = 0.353479
         4         3        10        11     9        0.000000        0.579778         3    ;  uncertainty k = 0.302258
         4         3        10        11     9      180.000000        0.008525         4    ;  uncertainty k = 0.110356
         4         5         6        19     9        0.000000        0.323492         1    ;  uncertainty k = 0.573575
         4         5         6        19     9      180.000000        8.427377         2    ;  uncertainty k = 0.712989
         4         5         6        19     9        0.000000        2.103340         3    ;  uncertainty k = 0.347201
         4         5         6        19     9      180.000000        0.966007         4    ;  uncertainty k = 0.424542
         4        16        15        14     9        0.000000        0.230849         1    ;  uncertainty k = 0.383332
         4        16        15        14     9      180.000000        8.773955         2    ;  uncertainty k = 0.381991
         4        16        15        14     9        0.000000        1.169723         3    ;  uncertainty k = 0.201002
         4        16        15        14     9      180.000000        1.933074         4    ;  uncertainty k = 0.181814
         4        16        15        26     9        0.000000       -0.315018         1    ;  uncertainty k = 0.183957
         4        16        15        26     9      180.000000        7.405388         2    ;  uncertainty k = 0.518819
         4        16        15        26     9        0.000000        0.741957         3    ;  uncertainty k = 0.133402
         4        16        15        26     9      180.000000        1.213590         4    ;  uncertainty k = 0.151769
         4        16        17        18     9        0.000000        0.230849         1    ;  uncertainty k = 0.383332
         4        16        17        18     9      180.000000        8.773955         2    ;  uncertainty k = 0.381991
         4        16        17        18     9        0.000000        1.169723         3    ;  uncertainty k = 0.201002
         4        16        17        18     9      180.000000        1.933074         4    ;  uncertainty k = 0.181814
         4        16        17        27     9        0.000000       -0.315018         1    ;  uncertainty k = 0.183957
         4        16        17        27     9      180.000000        7.405388         2    ;  uncertainty k = 0.518819
         4        16        17        27     9        0.000000        0.741957         3    ;  uncertainty k = 0.133402
         4        16        17        27     9      180.000000        1.213590         4    ;  uncertainty k = 0.151769
         5         4         3        10     9        0.000000       -0.060443         1    ;  uncertainty k = 0.802545
         5         4         3        10     9      180.000000        3.720431         2    ;  uncertainty k = 1.065013
         5         4         3        10     9        0.000000        0.136231         3    ;  uncertainty k = 0.515197
         5         4         3        10     9      180.000000        0.691358         4    ;  uncertainty k = 0.630205
         5         4        16        15     9        0.000000        0.754198         1    ;  uncertainty k = 0.872345
         5         4        16        15     9      180.000000        5.472757         2    ;  uncertainty k = 0.349700
         5         4        16        15     9        0.000000        0.484971         3    ;  uncertainty k = 0.142576
         5         4        16        15     9      180.000000        0.157555         4    ;  uncertainty k = 0.111757
         5         4        16        17     9        0.000000        0.754198         1    ;  uncertainty k = 0.872345
         5         4        16        17     9      180.000000        5.472757         2    ;  uncertainty k = 0.349700
         5         4        16        17     9        0.000000        0.484971         3    ;  uncertainty k = 0.142576
         5         4        16        17     9      180.000000        0.157555         4    ;  uncertainty k = 0.111757
         5         6        19        29     9        0.000000       20.010442         1    ;  uncertainty k = 0.259650
         5         6        19        29     9      180.000000       10.182111         2    ;  uncertainty k = 0.370307
         5         6        19        29     9        0.000000        0.832804         3    ;  uncertainty k = 0.221692
         5         6        19        29     9      180.000000       -0.316472         4    ;  uncertainty k = 0.214044
         5         6        19        30     9        0.000000       20.010442         1    ;  uncertainty k = 0.259650
         5         6        19        30     9      180.000000       10.182111         2    ;  uncertainty k = 0.370307
         5         6        19        30     9        0.000000        0.832804         3    ;  uncertainty k = 0.221692
         5         6        19        30     9      180.000000       -0.316472         4    ;  uncertainty k = 0.214044
         6         5         4        16     9        0.000000        0.640948         1    ;  uncertainty k = 0.637409
         6         5         4        16     9      180.000000       16.055894         2    ;  uncertainty k = 0.730420
         6         5         4        16     9        0.000000        2.092061         3    ;  uncertainty k = 0.721693
         6         5         4        16     9      180.000000        1.633967         4    ;  uncertainty k = 0.454218
         7         8         9        10     9        0.000000       -0.153028         1    ;  uncertainty k = 0.167944
         7         8         9        10     9      180.000000       12.315840         2    ;  uncertainty k = 0.509352
         7         8         9        10     9        0.000000       -0.532881         3    ;  uncertainty k = 0.515320
         7         8         9        10     9      180.000000        0.972047         4    ;  uncertainty k = 0.246954
         7         8         9        22     9        0.000000        0.068421         1    ;  uncertainty k = 0.251353
         7         8         9        22     9      180.000000        7.516926         2    ;  uncertainty k = 0.831948
         7         8         9        22     9        0.000000        1.159971         3    ;  uncertainty k = 0.153170
         7         8         9        22     9      180.000000        1.709358         4    ;  uncertainty k = 0.158530
         7         8        21        34     9        0.000000        0.397154         1    ;  uncertainty k = 0.225763
         7         8        21        34     9      180.000000        3.235494         2    ;  uncertainty k = 0.342252
         7         8        21        34     9        0.000000        0.508222         3    ;  uncertainty k = 0.076284
         7         8        21        34     9      180.000000        0.282236         4    ;  uncertainty k = 0.058108
         7         8        21        35     9        0.000000        0.397154         1    ;  uncertainty k = 0.225763
         7         8        21        35     9      180.000000        3.235494         2    ;  uncertainty k = 0.342252
         7         8        21        35     9        0.000000        0.508222         3    ;  uncertainty k = 0.076284
         7         8        21        35     9      180.000000        0.282236         4    ;  uncertainty k = 0.058108
         7         8        21        36     9        0.000000        0.397154         1    ;  uncertainty k = 0.225763
         7         8        21        36     9      180.000000        3.235494         2    ;  uncertainty k = 0.342252
         7         8        21        36     9        0.000000        0.508222         3    ;  uncertainty k = 0.076284
         7         8        21        36     9      180.000000        0.282236         4    ;  uncertainty k = 0.058108
         7        12        11        10     9        0.000000       -0.337542         1    ;  uncertainty k = 0.297346
         7        12        11        10     9      180.000000       12.751157         2    ;  uncertainty k = 0.358990
         7        12        11        10     9        0.000000       -0.593144         3    ;  uncertainty k = 0.593372
         7        12        11        10     9      180.000000        1.004134         4    ;  uncertainty k = 0.172595
         7        12        11        23     9        0.000000       -0.124949         1    ;  uncertainty k = 0.474627
         7        12        11        23     9      180.000000        7.933916         2    ;  uncertainty k = 0.490557
         7        12        11        23     9        0.000000        1.142050         3    ;  uncertainty k = 0.125192
         7        12        11        23     9      180.000000        1.710593         4    ;  uncertainty k = 0.202665
         7        12        20        31     9        0.000000        6.627205         1    ;  uncertainty k = 1.029713
         7        12        20        31     9      180.000000        3.636766         2    ;  uncertainty k = 0.281416
         7        12        20        31     9        0.000000        0.720268         3    ;  uncertainty k = 0.061194
         7        12        20        31     9      180.000000        0.135245         4    ;  uncertainty k = 0.126591
         7        12        20        32     9        0.000000        6.627205         1    ;  uncertainty k = 1.029713
         7        12        20        32     9      180.000000        3.636766         2    ;  uncertainty k = 0.281416
         7        12        20        32     9        0.000000        0.720268         3    ;  uncertainty k = 0.061194
         7        12        20        32     9      180.000000        0.135245         4    ;  uncertainty k = 0.126591
         7        12        20        33     9        0.000000        6.627205         1    ;  uncertainty k = 1.029713
         7        12        20        33     9      180.000000        3.636766         2    ;  uncertainty k = 0.281416
         7        12        20        33     9        0.000000        0.720268         3    ;  uncertainty k = 0.061194
         7        12        20        33     9      180.000000        0.135245         4    ;  uncertainty k = 0.126591
         8         7        12        11     9        0.000000       -0.221229         1    ;  uncertainty k = 0.399422
         8         7        12        11     9      180.000000       12.777776         2    ;  uncertainty k = 0.536444
         8         7        12        11     9        0.000000        1.294107         3    ;  uncertainty k = 0.611997
         8         7        12        11     9      180.000000        1.197931         4    ;  uncertainty k = 0.208547
         8         7        12        20     9        0.000000        0.897225         1    ;  uncertainty k = 1.215293
         8         7        12        20     9      180.000000       15.256915         2    ;  uncertainty k = 0.573305
         8         7        12        20     9        0.000000        2.304139         3    ;  uncertainty k = 0.487729
         8         7        12        20     9      180.000000        1.622334         4    ;  uncertainty k = 0.440855
         8         9        10        11     9        0.000000       -0.071996         1    ;  uncertainty k = 0.226441
         8         9        10        11     9      180.000000       11.400200         2    ;  uncertainty k = 0.270976
         8         9        10        11     9        0.000000       -0.782204         3    ;  uncertainty k = 0.150345
         8         9        10        11     9      180.000000        0.903837         4    ;  uncertainty k = 0.232506
         9         8         7        12     9        0.000000       -0.536422         1    ;  uncertainty k = 0.843211
         9         8         7        12     9      180.000000       11.669504         2    ;  uncertainty k = 0.469303
         9         8         7        12     9        0.000000        1.827166         3    ;  uncertainty k = 0.195365
         9         8         7        12     9      180.000000        1.142457         4    ;  uncertainty k = 0.185879
         9         8        21        34     9        0.000000       -0.117126         1    ;  uncertainty k = 0.284023
         9         8        21        34     9      180.000000        1.902050         2    ;  uncertainty k = 0.163496
         9         8        21        34     9        0.000000        0.320978         3    ;  uncertainty k = 0.029769
         9         8        21        34     9      180.000000        0.153962         4    ;  uncertainty k = 0.025675
         9         8        21        35     9        0.000000       -0.117126         1    ;  uncertainty k = 0.284023
         9         8        21        35     9      180.000000        1.902050         2    ;  uncertainty k = 0.163496
         9         8        21        35     9        0.000000        0.320978         3    ;  uncertainty k = 0.029769
         9         8        21        35     9      180.000000        0.153962         4    ;  uncertainty k = 0.025675
         9         8        21        36     9        0.000000       -0.117126         1    ;  uncertainty k = 0.284023
         9         8        21        36     9      180.000000        1.902050         2    ;  uncertainty k = 0.163496
         9         8        21        36     9        0.000000        0.320978         3    ;  uncertainty k = 0.029769
         9         8        21        36     9      180.000000        0.153962         4    ;  uncertainty k = 0.025675
         9        10        11        12     9        0.000000        0.144302         1    ;  uncertainty k = 0.463808
         9        10        11        12     9      180.000000       10.957101         2    ;  uncertainty k = 0.363963
         9        10        11        12     9        0.000000       -0.650933         3    ;  uncertainty k = 0.266354
         9        10        11        12     9      180.000000        0.912211         4    ;  uncertainty k = 0.286000
         9        10        11        23     9        0.000000        0.397440         1    ;  uncertainty k = 0.184504
         9        10        11        23     9      180.000000        7.389767         2    ;  uncertainty k = 0.552968
         9        10        11        23     9        0.000000        1.464712         3    ;  uncertainty k = 0.224494
         9        10        11        23     9      180.000000        1.666570         4    ;  uncertainty k = 0.259418
        10         3         4        16     9        0.000000       -0.237852         1    ;  uncertainty k = 0.887417
        10         3         4        16     9      180.000000        3.556467         2    ;  uncertainty k = 0.417739
        10         3         4        16     9        0.000000        0.794252         3    ;  uncertainty k = 0.361305
        10         3         4        16     9      180.000000        0.421555         4    ;  uncertainty k = 0.274457
        10         9         8        21     9        0.000000        0.198388         1    ;  uncertainty k = 0.330533
        10         9         8        21     9      180.000000        7.694781         2    ;  uncertainty k = 0.541939
        10         9         8        21     9        0.000000        1.204035         3    ;  uncertainty k = 0.151351
        10         9         8        21     9      180.000000        1.604954         4    ;  uncertainty k = 0.131355
        10        11        12        20     9        0.000000        0.600961         1    ;  uncertainty k = 0.368672
        10        11        12        20     9      180.000000        8.326413         2    ;  uncertainty k = 0.515877
        10        11        12        20     9        0.000000        1.382631         3    ;  uncertainty k = 0.345385
        10        11        12        20     9      180.000000        1.792625         4    ;  uncertainty k = 0.262583
        11        10         9        22     9        0.000000        0.334530         1    ;  uncertainty k = 0.293154
        11        10         9        22     9      180.000000        7.785735         2    ;  uncertainty k = 0.569651
        11        10         9        22     9        0.000000        1.522470         3    ;  uncertainty k = 0.249045
        11        10         9        22     9      180.000000        1.675908         4    ;  uncertainty k = 0.254219
        11        12        20        31     9        0.000000       -1.082260         1    ;  uncertainty k = 0.896367
        11        12        20        31     9      180.000000        3.179072         2    ;  uncertainty k = 0.242704
        11        12        20        31     9        0.000000        0.211795         3    ;  uncertainty k = 0.066923
        11        12        20        31     9      180.000000        0.028363         4    ;  uncertainty k = 0.123429
        11        12        20        32     9        0.000000       -1.082260         1    ;  uncertainty k = 0.896367
        11        12        20        32     9      180.000000        3.179072         2    ;  uncertainty k = 0.242704
        11        12        20        32     9        0.000000        0.211795         3    ;  uncertainty k = 0.066923
        11        12        20        32     9      180.000000        0.028363         4    ;  uncertainty k = 0.123429
        11        12        20        33     9        0.000000       -1.082260         1    ;  uncertainty k = 0.896367
        11        12        20        33     9      180.000000        3.179072         2    ;  uncertainty k = 0.242704
        11        12        20        33     9        0.000000        0.211795         3    ;  uncertainty k = 0.066923
        11        12        20        33     9      180.000000        0.028363         4    ;  uncertainty k = 0.123429
        12         7         8        21     9        0.000000        0.572813         1    ;  uncertainty k = 0.741258
        12         7         8        21     9      180.000000       14.174857         2    ;  uncertainty k = 0.601948
        12         7         8        21     9        0.000000        2.660175         3    ;  uncertainty k = 0.382503
        12         7         8        21     9      180.000000        1.826765         4    ;  uncertainty k = 0.545593
        13        14        15        16     9        0.000000       -0.060518         1    ;  uncertainty k = 0.187108
        13        14        15        16     9      180.000000       13.776002         2    ;  uncertainty k = 0.207603
        13        14        15        16     9        0.000000       -0.739071         3    ;  uncertainty k = 0.379142
        13        14        15        16     9      180.000000        0.880793         4    ;  uncertainty k = 0.240569
        13        14        15        26     9        0.000000       -0.057476         1    ;  uncertainty k = 0.061158
        13        14        15        26     9      180.000000        8.079831         2    ;  uncertainty k = 0.371219
        13        14        15        26     9        0.000000        1.334367         3    ;  uncertainty k = 0.293520
        13        14        15        26     9      180.000000        1.801306         4    ;  uncertainty k = 0.154441
        13        18        17        16     9        0.000000       -0.060518         1    ;  uncertainty k = 0.187108
        13        18        17        16     9      180.000000       13.776002         2    ;  uncertainty k = 0.207603
        13        18        17        16     9        0.000000       -0.739071         3    ;  uncertainty k = 0.379142
        13        18        17        16     9      180.000000        0.880793         4    ;  uncertainty k = 0.240569
        13        18        17        27     9        0.000000       -0.057476         1    ;  uncertainty k = 0.061158
        13        18        17        27     9      180.000000        8.079831         2    ;  uncertainty k = 0.371219
        13        18        17        27     9        0.000000        1.334367         3    ;  uncertainty k = 0.293520
        13        18        17        27     9      180.000000        1.801306         4    ;  uncertainty k = 0.154441
        14        13        18        17     9        0.000000        0.029395         1    ;  uncertainty k = 0.122304
        14        13        18        17     9      180.000000        9.049447         2    ;  uncertainty k = 0.441273
        14        13        18        17     9        0.000000       -0.130161         3    ;  uncertainty k = 0.393882
        14        13        18        17     9      180.000000        1.173650         4    ;  uncertainty k = 0.285945
        14        13        18        28     9        0.000000        0.131659         1    ;  uncertainty k = 0.148672
        14        13        18        28     9      180.000000        5.670034         2    ;  uncertainty k = 0.684031
        14        13        18        28     9        0.000000        1.289462         3    ;  uncertainty k = 0.285464
        14        13        18        28     9      180.000000        1.505905         4    ;  uncertainty k = 0.181812
        14        15        16        17     9        0.000000       -0.194546         1    ;  uncertainty k = 0.108157
        14        15        16        17     9      180.000000       11.560137         2    ;  uncertainty k = 0.298012
        14        15        16        17     9        0.000000       -0.701943         3    ;  uncertainty k = 0.255184
        14        15        16        17     9      180.000000        0.919712         4    ;  uncertainty k = 0.277515
        15        14        13        18     9        0.000000        0.029395         1    ;  uncertainty k = 0.122304
        15        14        13        18     9      180.000000        9.049447         2    ;  uncertainty k = 0.441273
        15        14        13        18     9        0.000000       -0.130161         3    ;  uncertainty k = 0.393882
        15        14        13        18     9      180.000000        1.173650         4    ;  uncertainty k = 0.285945
        15        14        13        24     9        0.000000       -0.078436         1    ;  uncertainty k = 0.205218
        15        14        13        24     9      180.000000       11.982805         2    ;  uncertainty k = 0.591754
        15        14        13        24     9        0.000000        1.552960         3    ;  uncertainty k = 0.298235
        15        14        13        24     9      180.000000        1.521243         4    ;  uncertainty k = 0.285864
        15        16        17        18     9        0.000000       -0.194546         1    ;  uncertainty k = 0.108157
        15        16        17        18     9      180.000000       11.560137         2    ;  uncertainty k = 0.298012
        15        16        17        18     9        0.000000       -0.701943         3    ;  uncertainty k = 0.255184
        15        16        17        18     9      180.000000        0.919712         4    ;  uncertainty k = 0.277515
        15        16        17        27     9        0.000000        0.151862         1    ;  uncertainty k = 0.120532
        15        16        17        27     9      180.000000        6.994859         2    ;  uncertainty k = 0.440316
        15        16        17        27     9        0.000000        1.318003         3    ;  uncertainty k = 0.165054
        15        16        17        27     9      180.000000        1.647441         4    ;  uncertainty k = 0.218721
        16        15        14        25     9        0.000000        0.138611         1    ;  uncertainty k = 0.173621
        16        15        14        25     9      180.000000        7.864625         2    ;  uncertainty k = 0.397577
        16        15        14        25     9        0.000000        1.485094         3    ;  uncertainty k = 0.201530
        16        15        14        25     9      180.000000        1.850861         4    ;  uncertainty k = 0.148978
        16        17        18        28     9        0.000000        0.138611         1    ;  uncertainty k = 0.173621
        16        17        18        28     9      180.000000        7.864625         2    ;  uncertainty k = 0.397577
        16        17        18        28     9        0.000000        1.485094         3    ;  uncertainty k = 0.201530
        16        17        18        28     9      180.000000        1.850861         4    ;  uncertainty k = 0.148978
        17        16        15        26     9        0.000000        0.151862         1    ;  uncertainty k = 0.120532
        17        16        15        26     9      180.000000        6.994859         2    ;  uncertainty k = 0.440316
        17        16        15        26     9        0.000000        1.318003         3    ;  uncertainty k = 0.165054
        17        16        15        26     9      180.000000        1.647441         4    ;  uncertainty k = 0.218721
        17        18        13        24     9        0.000000       -0.078436         1    ;  uncertainty k = 0.205218
        17        18        13        24     9      180.000000       11.982805         2    ;  uncertainty k = 0.591754
        17        18        13        24     9        0.000000        1.552960         3    ;  uncertainty k = 0.298235
        17        18        13        24     9      180.000000        1.521243         4    ;  uncertainty k = 0.285864
        18        13        14        25     9        0.000000        0.131659         1    ;  uncertainty k = 0.148672
        18        13        14        25     9      180.000000        5.670034         2    ;  uncertainty k = 0.684031
        18        13        14        25     9        0.000000        1.289462         3    ;  uncertainty k = 0.285464
        18        13        14        25     9      180.000000        1.505905         4    ;  uncertainty k = 0.181812
        20        12        11        23     9        0.000000        0.206927         1    ;  uncertainty k = 0.752052
        20        12        11        23     9      180.000000        7.571137         2    ;  uncertainty k = 0.490594
        20        12        11        23     9        0.000000        0.716587         3    ;  uncertainty k = 0.363576
        20        12        11        23     9      180.000000        0.991054         4    ;  uncertainty k = 0.229046
        21         8         9        22     9        0.000000       -0.301324         1    ;  uncertainty k = 0.253335
        21         8         9        22     9      180.000000        7.012691         2    ;  uncertainty k = 0.145539
        21         8         9        22     9        0.000000        0.468862         3    ;  uncertainty k = 0.258285
        21         8         9        22     9      180.000000        0.874203         4    ;  uncertainty k = 0.217175
        24        13        14        25     9        0.000000       -0.315948         1    ;  uncertainty k = 0.261523
        24        13        14        25     9      180.000000        8.862568         2    ;  uncertainty k = 0.280367
        24        13        14        25     9        0.000000        0.765577         3    ;  uncertainty k = 0.254878
        24        13        14        25     9      180.000000        0.926578         4    ;  uncertainty k = 0.179931
        24        13        18        28     9        0.000000       -0.315948         1    ;  uncertainty k = 0.261523
        24        13        18        28     9      180.000000        8.862568         2    ;  uncertainty k = 0.280367
        24        13        18        28     9        0.000000        0.765577         3    ;  uncertainty k = 0.254878
        24        13        18        28     9      180.000000        0.926578         4    ;  uncertainty k = 0.179931
        25        14        15        26     9        0.000000       -0.106450         1    ;  uncertainty k = 0.115322
        25        14        15        26     9      180.000000        7.767526         2    ;  uncertainty k = 0.343496
        25        14        15        26     9        0.000000       -0.451943         3    ;  uncertainty k = 0.262512
        25        14        15        26     9      180.000000        0.150164         4    ;  uncertainty k = 0.122485
        27        17        18        28     9        0.000000       -0.106450         1    ;  uncertainty k = 0.115322
        27        17        18        28     9      180.000000        7.767526         2    ;  uncertainty k = 0.343496
        27        17        18        28     9        0.000000       -0.451943         3    ;  uncertainty k = 0.262512
        27        17        18        28     9      180.000000        0.150164         4    ;  uncertainty k = 0.122485

[ dihedrals ] ; impropers
;       ai        aj        ak        al funct           phase               k        pn
         3         2         4        10     4      180.000000       21.616188         2    ;  uncertainty k = 0.156372
         3         4        10         2     4      180.000000       21.616188         2    ;  uncertainty k = 0.156372
         3        10         2         4     4      180.000000       21.616188         2    ;  uncertainty k = 0.156372
         4         3         5        16     4      180.000000       29.526964         2    ;  uncertainty k = 0.043244
         4         5        16         3     4      180.000000       29.526964         2    ;  uncertainty k = 0.043244
         4        16         3         5     4      180.000000       29.526964         2    ;  uncertainty k = 0.043244
         6         1         5        19     4      180.000000       43.323642         2    ;  uncertainty k = 0.063441
         6         5        19         1     4      180.000000       43.323642         2    ;  uncertainty k = 0.063441
         6        19         1         5     4      180.000000       43.323642         2    ;  uncertainty k = 0.063441
         8         7         9        21     4      180.000000       28.360458         2    ;  uncertainty k = 0.062689
         8         9        21         7     4      180.000000       28.360458         2    ;  uncertainty k = 0.062689
         8        21         7         9     4      180.000000       28.360458         2    ;  uncertainty k = 0.062689
         9         8        10        22     4      180.000000        3.801878         2    ;  uncertainty k = 0.206195
         9        10        22         8     4      180.000000        3.801878         2    ;  uncertainty k = 0.206195
         9        22         8        10     4      180.000000        3.801878         2    ;  uncertainty k = 0.206195
        10         3         9        11     4      180.000000       13.698709         2    ;  uncertainty k = 0.148142
        10         9        11         3     4      180.000000       13.698709         2    ;  uncertainty k = 0.148142
        10        11         3         9     4      180.000000       13.698709         2    ;  uncertainty k = 0.148142
        11        10        12        23     4      180.000000        3.902192         2    ;  uncertainty k = 0.208966
        11        12        23        10     4      180.000000        3.902192         2    ;  uncertainty k = 0.208966
        11        23        10        12     4      180.000000        3.902192         2    ;  uncertainty k = 0.208966
        12         7        11        20     4      180.000000       18.183937         2    ;  uncertainty k = 0.047731
        12        11        20         7     4      180.000000       18.183937         2    ;  uncertainty k = 0.047731
        12        20         7        11     4      180.000000       18.183937         2    ;  uncertainty k = 0.047731
        13        14        18        24     4      180.000000       17.547874         2    ;  uncertainty k = 0.059583
        13        18        24        14     4      180.000000       17.547874         2    ;  uncertainty k = 0.059583
        13        24        14        18     4      180.000000       17.547874         2    ;  uncertainty k = 0.059583
        14        13        15        25     4      180.000000        2.610618         2    ;  uncertainty k = 0.316111
        14        15        25        13     4      180.000000        2.610618         2    ;  uncertainty k = 0.316111
        14        25        13        15     4      180.000000        2.610618         2    ;  uncertainty k = 0.316111
        15        14        16        26     4      180.000000        4.920706         2    ;  uncertainty k = 0.084914
        15        16        26        14     4      180.000000        4.920706         2    ;  uncertainty k = 0.084914
        15        26        14        16     4      180.000000        4.920706         2    ;  uncertainty k = 0.084914
        16         4        15        17     4      180.000000        9.213607         2    ;  uncertainty k = 0.171149
        16        15        17         4     4      180.000000        9.213607         2    ;  uncertainty k = 0.171149
        16        17         4        15     4      180.000000        9.213607         2    ;  uncertainty k = 0.171149
        17        16        18        27     4      180.000000        4.920706         2    ;  uncertainty k = 0.084914
        17        18        27        16     4      180.000000        4.920706         2    ;  uncertainty k = 0.084914
        17        27        16        18     4      180.000000        4.920706         2    ;  uncertainty k = 0.084914
        18        13        17        28     4      180.000000        2.610618         2    ;  uncertainty k = 0.316111
        18        17        28        13     4      180.000000        2.610618         2    ;  uncertainty k = 0.316111
        18        28        13        17     4      180.000000        2.610618         2    ;  uncertainty k = 0.316111
        19         6        29        30     4      180.000000        0.390383         2    ;  uncertainty k = 0.522839
        19        29        30         6     4      180.000000        0.390383         2    ;  uncertainty k = 0.522839
        19        30         6        29     4      180.000000        0.390383         2    ;  uncertainty k = 0.522839

[ pairs ]
;       ai        aj funct
         1         4     1
         1        10     1
         1        29     1
         1        30     1
         2         5     1
         2         9     1
         2        11     1
         2        16     1
         2        19     1
         3         6     1
         3         8     1
         3        12     1
         3        15     1
         3        17     1
         3        22     1
         3        23     1
         4         9     1
         4        11     1
         4        14     1
         4        18     1
         4        19     1
         4        26     1
         4        27     1
         5        10     1
         5        15     1
         5        17     1
         5        29     1
         5        30     1
         6        16     1
         7        10     1
         7        22     1
         7        23     1
         7        31     1
         7        32     1
         7        33     1
         7        34     1
         7        35     1
         7        36     1
         8        11     1
         8        20     1
         9        12     1
         9        23     1
         9        34     1
         9        35     1
         9        36     1
        10        16     1
        10        20     1
        10        21     1
        11        22     1
        11        31     1
        11        32     1
        11        33     1
        12        21     1
        13        16     1
        13        26     1
        13        27     1
        14        17     1
        14        28     1
        15        18     1
        15        24     1
        15        27     1
        16        25     1
        16        28     1
        17        24     1
        17        26     1
        18        25     1
        20        23     1
        21        22     1
        24        25     1
        24        28     1
        25        26     1
        27        28     1
