; ITP file created by ByteFF-joint-25, 2025-07-14 11:28:14.375130

[ atomtypes ]
;name           bonded.type        at.num        mass        charge   ptype           sigma         epsilon
 n0bf                                   7      0.0000       0.00000       A     3.38457e-01     3.93065e-01    ;  uncertainty sigma = 0.000033, epsilon = 0.002906
 n1bf                                   7      0.0000       0.00000       A     3.38476e-01     3.93713e-01    ;  uncertainty sigma = 0.000022, epsilon = 0.001198
 c2bf                                   6      0.0000       0.00000       A     3.31549e-01     4.12903e-01    ;  uncertainty sigma = 0.000016, epsilon = 0.001315
 c3bf                                   6      0.0000       0.00000       A     3.31532e-01     4.12868e-01    ;  uncertainty sigma = 0.000013, epsilon = 0.000681
 n4bf                                   7      0.0000       0.00000       A     3.38467e-01     3.94052e-01    ;  uncertainty sigma = 0.000030, epsilon = 0.001987
 c5bf                                   6      0.0000       0.00000       A     3.31538e-01     4.13311e-01    ;  uncertainty sigma = 0.000020, epsilon = 0.001585
 n6bf                                   7      0.0000       0.00000       A     3.38437e-01     3.93717e-01    ;  uncertainty sigma = 0.000013, epsilon = 0.000888
 c7bf                                   6      0.0000       0.00000       A     3.31526e-01     4.12874e-01    ;  uncertainty sigma = 0.000008, epsilon = 0.000586
 c8bf                                   6      0.0000       0.00000       A     3.31538e-01     4.13872e-01    ;  uncertainty sigma = 0.000009, epsilon = 0.001061
 c9bf                                   6      0.0000       0.00000       A     3.31526e-01     4.13245e-01    ;  uncertainty sigma = 0.000012, epsilon = 0.000966
 c10bf                                  6      0.0000       0.00000       A     3.31538e-01     4.13872e-01    ;  uncertainty sigma = 0.000009, epsilon = 0.001061
 c11bf                                  6      0.0000       0.00000       A     3.31526e-01     4.12874e-01    ;  uncertainty sigma = 0.000008, epsilon = 0.000586
 c12bf                                  6      0.0000       0.00000       A     3.31518e-01     4.13340e-01    ;  uncertainty sigma = 0.000003, epsilon = 0.000580
 c13bf                                  6      0.0000       0.00000       A     3.31519e-01     4.13380e-01    ;  uncertainty sigma = 0.000002, epsilon = 0.000627
 c14bf                                  6      0.0000       0.00000       A     3.31517e-01     4.13568e-01    ;  uncertainty sigma = 0.000002, epsilon = 0.000944
 c15bf                                  6      0.0000       0.00000       A     3.31548e-01     4.13550e-01    ;  uncertainty sigma = 0.000019, epsilon = 0.000920
 c16bf                                  6      0.0000       0.00000       A     3.31517e-01     4.13568e-01    ;  uncertainty sigma = 0.000002, epsilon = 0.000944
 c17bf                                  6      0.0000       0.00000       A     3.31519e-01     4.13380e-01    ;  uncertainty sigma = 0.000002, epsilon = 0.000627
 n18bf                                  7      0.0000       0.00000       A     3.36800e-01     4.68954e-01    ;  uncertainty sigma = 0.000066, epsilon = 0.001925
 cl19bf                                17      0.0000       0.00000       A     3.46639e-01     1.10423e+00    ;  uncertainty sigma = 0.000027, epsilon = 0.001619
 cl20bf                                17      0.0000       0.00000       A     3.46639e-01     1.10423e+00    ;  uncertainty sigma = 0.000027, epsilon = 0.001619
 h21bf                                  1      0.0000       0.00000       A     2.62559e-01     6.69551e-02    ;  uncertainty sigma = 0.000016, epsilon = 0.000756
 h22bf                                  1      0.0000       0.00000       A     2.62559e-01     6.69551e-02    ;  uncertainty sigma = 0.000016, epsilon = 0.000756
 h23bf                                  1      0.0000       0.00000       A     2.62552e-01     6.70645e-02    ;  uncertainty sigma = 0.000011, epsilon = 0.000453
 h24bf                                  1      0.0000       0.00000       A     2.62559e-01     6.70250e-02    ;  uncertainty sigma = 0.000010, epsilon = 0.000440
 h25bf                                  1      0.0000       0.00000       A     2.62560e-01     6.70283e-02    ;  uncertainty sigma = 0.000012, epsilon = 0.000523
 h26bf                                  1      0.0000       0.00000       A     2.62560e-01     6.70283e-02    ;  uncertainty sigma = 0.000012, epsilon = 0.000523
 h27bf                                  1      0.0000       0.00000       A     2.62559e-01     6.70250e-02    ;  uncertainty sigma = 0.000010, epsilon = 0.000440
 h28bf                                  1      0.0000       0.00000       A     1.10728e-01     4.07630e-02    ;  uncertainty sigma = 0.000034, epsilon = 0.001087
 h29bf                                  1      0.0000       0.00000       A     1.10728e-01     4.07630e-02    ;  uncertainty sigma = 0.000034, epsilon = 0.001087

[ moleculetype ]
;name             nrexcl
 MOL                   3

[ atoms ]
;       nr            type      resi   res      atom      cgnr      charge          mass ; qtot
         1            n0bf         1   UNL        n0         1    -0.40685       14.0070 ; qtot   -0.407
         2            n1bf         1   UNL        n1         2    -0.24416       14.0070 ; qtot   -0.651
         3            c2bf         1   UNL        c2         3     0.24145       12.0110 ; qtot   -0.410
         4            c3bf         1   UNL        c3         4     0.47914       12.0110 ; qtot    0.070
         5            n4bf         1   UNL        n4         5    -0.73822       14.0070 ; qtot   -0.669
         6            c5bf         1   UNL        c5         6     0.82167       12.0110 ; qtot    0.153
         7            n6bf         1   UNL        n6         7    -0.64010       14.0070 ; qtot   -0.487
         8            c7bf         1   UNL        c7         8     0.52426       12.0110 ; qtot    0.037
         9            c8bf         1   UNL        c8         9    -0.20295       12.0110 ; qtot   -0.166
        10            c9bf         1   UNL        c9        10    -0.08562       12.0110 ; qtot   -0.251
        11           c10bf         1   UNL       c10        11    -0.20295       12.0110 ; qtot   -0.454
        12           c11bf         1   UNL       c11        12     0.52426       12.0110 ; qtot    0.070
        13           c12bf         1   UNL       c12        13    -0.11402       12.0110 ; qtot   -0.044
        14           c13bf         1   UNL       c13        14    -0.13628       12.0110 ; qtot   -0.180
        15           c14bf         1   UNL       c14        15    -0.09093       12.0110 ; qtot   -0.271
        16           c15bf         1   UNL       c15        16    -0.17251       12.0110 ; qtot   -0.444
        17           c16bf         1   UNL       c16        17    -0.09093       12.0110 ; qtot   -0.535
        18           c17bf         1   UNL       c17        18    -0.13628       12.0110 ; qtot   -0.671
        19           n18bf         1   UNL       n18        19    -0.92625       14.0070 ; qtot   -1.597
        20          cl19bf         1   UNL      cl19        20    -0.15566       35.4530 ; qtot   -1.753
        21          cl20bf         1   UNL      cl20        21    -0.15566       35.4530 ; qtot   -1.909
        22           h21bf         1   UNL       h21        22     0.17790        1.0080 ; qtot   -1.731
        23           h22bf         1   UNL       h22        23     0.17790        1.0080 ; qtot   -1.553
        24           h23bf         1   UNL       h23        24     0.13373        1.0080 ; qtot   -1.419
        25           h24bf         1   UNL       h24        25     0.13437        1.0080 ; qtot   -1.285
        26           h25bf         1   UNL       h25        26     0.14424        1.0080 ; qtot   -1.140
        27           h26bf         1   UNL       h26        27     0.14424        1.0080 ; qtot   -0.996
        28           h27bf         1   UNL       h27        28     0.13437        1.0080 ; qtot   -0.862
        29           h28bf         1   UNL       h28        29     0.43092        1.0080 ; qtot   -0.431
        30           h29bf         1   UNL       h29        30     0.43092        1.0080 ; qtot    0.000

[ bonds ]
;       ai        aj funct               r               k
         1         2     1        0.130778   361370.603955    ;  uncertainty r = 0.000176, k = 32.459970
         1         6     1        0.135400   366916.906592    ;  uncertainty r = 0.000241, k = 17.361955
         2         3     1        0.133429   333442.225195    ;  uncertainty r = 0.000467, k = 14.434884
         3         4     1        0.140343   323737.817188    ;  uncertainty r = 0.000226, k = 13.533438
         3        10     1        0.147880   271862.295020    ;  uncertainty r = 0.000159, k = 18.233264
         4         5     1        0.133035   420127.381152    ;  uncertainty r = 0.000119, k = 20.872352
         4        16     1        0.147775   265849.735840    ;  uncertainty r = 0.000153, k = 2.016089
         5         6     1        0.136102   532915.906348    ;  uncertainty r = 0.000140, k = 13.557526
         6        19     1        0.140058   625071.519727    ;  uncertainty r = 0.000422, k = 22.781256
         7         8     1        0.132414   367568.000732    ;  uncertainty r = 0.000048, k = 8.785109
         7        12     1        0.132414   367568.000732    ;  uncertainty r = 0.000048, k = 8.785109
         8         9     1        0.139566   356985.626904    ;  uncertainty r = 0.000054, k = 4.861978
         8        21     1        0.175400   187745.457227    ;  uncertainty r = 0.000079, k = 3.268624
         9        10     1        0.139254   368883.391699    ;  uncertainty r = 0.000062, k = 11.023282
         9        22     1        0.108693   339050.021191    ;  uncertainty r = 0.000021, k = 2.087622
        10        11     1        0.139254   368883.391699    ;  uncertainty r = 0.000062, k = 11.023282
        11        12     1        0.139566   356985.626904    ;  uncertainty r = 0.000054, k = 4.861978
        11        23     1        0.108693   339050.021191    ;  uncertainty r = 0.000021, k = 2.087622
        12        20     1        0.175400   187745.457227    ;  uncertainty r = 0.000079, k = 3.268624
        13        14     1        0.139638   371681.952441    ;  uncertainty r = 0.000015, k = 0.978306
        13        18     1        0.139638   371681.952441    ;  uncertainty r = 0.000015, k = 0.978306
        13        24     1        0.108841   334518.920801    ;  uncertainty r = 0.000012, k = 0.635598
        14        15     1        0.139410   364403.723047    ;  uncertainty r = 0.000027, k = 1.125537
        14        25     1        0.108844   333597.720654    ;  uncertainty r = 0.000013, k = 0.737651
        15        16     1        0.140052   345029.586426    ;  uncertainty r = 0.000032, k = 1.520525
        15        26     1        0.108717   333226.053564    ;  uncertainty r = 0.000015, k = 0.733478
        16        17     1        0.140052   345029.586426    ;  uncertainty r = 0.000032, k = 1.520525
        17        18     1        0.139410   364403.723047    ;  uncertainty r = 0.000027, k = 1.125537
        17        27     1        0.108717   333226.053564    ;  uncertainty r = 0.000015, k = 0.733478
        18        28     1        0.108844   333597.720654    ;  uncertainty r = 0.000013, k = 0.737651
        19        29     1        0.102196   439793.713379    ;  uncertainty r = 0.000076, k = 4.088413
        19        30     1        0.102196   439793.713379    ;  uncertainty r = 0.000076, k = 4.088413

[ angles ]
;       ai        aj        ak funct           theta             cth
         1         2         3     1      119.769577      620.993550    ;  uncertainty theta = 0.006176, k = 0.087111
         1         6         5     1      125.473976      667.166559    ;  uncertainty theta = 0.004399, k = 0.260032
         1         6        19     1      122.667969      687.926313    ;  uncertainty theta = 0.008559, k = 0.200162
         2         1         6     1      112.117577      575.313599    ;  uncertainty theta = 0.004635, k = 0.210273
         2         3         4     1      122.682632      526.928022    ;  uncertainty theta = 0.005868, k = 0.153429
         2         3        10     1      116.073135      442.642186    ;  uncertainty theta = 0.009240, k = 0.198936
         3         4         5     1      120.041519      516.931776    ;  uncertainty theta = 0.005238, k = 0.313573
         3         4        16     1      120.728371      338.708833    ;  uncertainty theta = 0.005028, k = 0.282096
         3        10         9     1      120.715805      380.137589    ;  uncertainty theta = 0.007681, k = 0.145493
         3        10        11     1      120.715805      380.137589    ;  uncertainty theta = 0.007681, k = 0.145493
         4         3        10     1      120.881287      358.753548    ;  uncertainty theta = 0.006042, k = 0.227052
         4         5         6     1      117.333641      426.968275    ;  uncertainty theta = 0.017496, k = 0.318744
         4        16        15     1      118.619736      365.704334    ;  uncertainty theta = 0.003070, k = 0.150298
         4        16        17     1      118.619736      365.704334    ;  uncertainty theta = 0.003070, k = 0.150298
         5         4        16     1      120.498230      469.984514    ;  uncertainty theta = 0.005482, k = 0.142607
         5         6        19     1      125.763504      798.173718    ;  uncertainty theta = 0.006180, k = 0.064188
         6        19        29     1      118.262405      443.776577    ;  uncertainty theta = 0.004875, k = 0.045402
         6        19        30     1      118.262405      443.776577    ;  uncertainty theta = 0.004875, k = 0.045402
         7         8         9     1      124.404503      555.999691    ;  uncertainty theta = 0.004593, k = 0.224110
         7         8        21     1      117.241051      507.762518    ;  uncertainty theta = 0.005513, k = 0.102397
         7        12        11     1      124.404503      555.999691    ;  uncertainty theta = 0.004593, k = 0.224110
         7        12        20     1      117.241051      507.762518    ;  uncertainty theta = 0.005513, k = 0.102397
         8         7        12     1      114.289574      336.244948    ;  uncertainty theta = 0.008407, k = 0.411368
         8         9        10     1      115.880836      493.951187    ;  uncertainty theta = 0.002711, k = 0.103416
         8         9        22     1      123.146317      291.215332    ;  uncertainty theta = 0.001218, k = 0.118417
         9         8        21     1      120.370560      401.389253    ;  uncertainty theta = 0.004187, k = 0.219481
         9        10        11     1      119.603722      429.813811    ;  uncertainty theta = 0.006898, k = 0.195782
        10         9        22     1      121.231735      267.455350    ;  uncertainty theta = 0.002956, k = 0.062215
        10        11        12     1      115.880836      493.951187    ;  uncertainty theta = 0.002711, k = 0.103416
        10        11        23     1      121.231735      267.455350    ;  uncertainty theta = 0.002956, k = 0.062215
        11        12        20     1      120.370560      401.389253    ;  uncertainty theta = 0.004187, k = 0.219481
        12        11        23     1      123.146317      291.215332    ;  uncertainty theta = 0.001218, k = 0.118417
        13        14        15     1      119.529297      515.813762    ;  uncertainty theta = 0.001865, k = 0.035586
        13        14        25     1      120.660217      288.604066    ;  uncertainty theta = 0.001135, k = 0.015010
        13        18        17     1      119.529297      515.813762    ;  uncertainty theta = 0.001865, k = 0.035586
        13        18        28     1      120.660217      288.604066    ;  uncertainty theta = 0.001135, k = 0.015010
        14        13        18     1      118.344101      527.921193    ;  uncertainty theta = 0.001138, k = 0.026327
        14        13        24     1      120.585655      288.470922    ;  uncertainty theta = 0.001777, k = 0.013074
        14        15        16     1      120.766884      528.404514    ;  uncertainty theta = 0.002344, k = 0.034155
        14        15        26     1      120.422874      292.742706    ;  uncertainty theta = 0.001561, k = 0.018301
        15        14        25     1      120.046219      284.619543    ;  uncertainty theta = 0.001720, k = 0.015559
        15        16        17     1      121.273514      438.081450    ;  uncertainty theta = 0.004734, k = 0.088958
        16        15        26     1      118.758041      275.494336    ;  uncertainty theta = 0.002279, k = 0.045416
        16        17        18     1      120.766884      528.404514    ;  uncertainty theta = 0.002344, k = 0.034155
        16        17        27     1      118.758041      275.494336    ;  uncertainty theta = 0.002279, k = 0.045416
        17        18        28     1      120.046219      284.619543    ;  uncertainty theta = 0.001720, k = 0.015559
        18        13        24     1      120.585655      288.470922    ;  uncertainty theta = 0.001777, k = 0.013074
        18        17        27     1      120.422874      292.742706    ;  uncertainty theta = 0.001561, k = 0.018301
        29        19        30     1      107.926712      266.053522    ;  uncertainty theta = 0.004368, k = 0.064560

[ dihedrals ] ; propers for gromacs 4.5 or higher, use funct 9
;       ai        aj        ak        al funct           phase               k        pn
         1         2         3         4     9        0.000000        1.798071         1    ;  uncertainty k = 1.485403
         1         2         3         4     9      180.000000       12.278132         2    ;  uncertainty k = 0.306983
         1         2         3         4     9        0.000000        2.101221         3    ;  uncertainty k = 0.332240
         1         2         3         4     9      180.000000        1.346955         4    ;  uncertainty k = 0.142188
         1         2         3        10     9        0.000000        0.964623         1    ;  uncertainty k = 0.831185
         1         2         3        10     9      180.000000       17.755557         2    ;  uncertainty k = 0.203451
         1         2         3        10     9        0.000000        2.994412         3    ;  uncertainty k = 0.379772
         1         2         3        10     9      180.000000        1.575185         4    ;  uncertainty k = 0.372194
         1         6         5         4     9        0.000000       -0.159502         1    ;  uncertainty k = 2.061285
         1         6         5         4     9      180.000000        3.831664         2    ;  uncertainty k = 1.625385
         1         6         5         4     9        0.000000        1.173384         3    ;  uncertainty k = 0.518495
         1         6         5         4     9      180.000000        0.562840         4    ;  uncertainty k = 0.479066
         1         6        19        29     9        0.000000       13.129111         1    ;  uncertainty k = 0.629667
         1         6        19        29     9      180.000000        9.756533         2    ;  uncertainty k = 0.245450
         1         6        19        29     9        0.000000        0.714123         3    ;  uncertainty k = 0.172606
         1         6        19        29     9      180.000000       -0.412217         4    ;  uncertainty k = 0.285718
         1         6        19        30     9        0.000000       13.129111         1    ;  uncertainty k = 0.629667
         1         6        19        30     9      180.000000        9.756533         2    ;  uncertainty k = 0.245450
         1         6        19        30     9        0.000000        0.714123         3    ;  uncertainty k = 0.172606
         1         6        19        30     9      180.000000       -0.412217         4    ;  uncertainty k = 0.285718
         2         1         6         5     9        0.000000        1.968898         1    ;  uncertainty k = 1.303642
         2         1         6         5     9      180.000000        5.539831         2    ;  uncertainty k = 1.934359
         2         1         6         5     9        0.000000        1.215088         3    ;  uncertainty k = 0.650296
         2         1         6         5     9      180.000000        1.068040         4    ;  uncertainty k = 0.490493
         2         1         6        19     9        0.000000        2.793109         1    ;  uncertainty k = 1.767061
         2         1         6        19     9      180.000000       10.325178         2    ;  uncertainty k = 0.754001
         2         1         6        19     9        0.000000        2.692809         3    ;  uncertainty k = 0.395811
         2         1         6        19     9      180.000000        0.982486         4    ;  uncertainty k = 0.243420
         2         3         4         5     9        0.000000       -0.710838         1    ;  uncertainty k = 0.792308
         2         3         4         5     9      180.000000        3.515749         2    ;  uncertainty k = 1.055957
         2         3         4         5     9        0.000000       -0.463228         3    ;  uncertainty k = 1.028295
         2         3         4         5     9      180.000000        0.559160         4    ;  uncertainty k = 0.603068
         2         3         4        16     9        0.000000       -1.491354         1    ;  uncertainty k = 1.172986
         2         3         4        16     9      180.000000        2.429972         2    ;  uncertainty k = 0.842256
         2         3         4        16     9        0.000000        0.090251         3    ;  uncertainty k = 0.840813
         2         3         4        16     9      180.000000        0.810771         4    ;  uncertainty k = 0.482092
         2         3        10         9     9        0.000000       -0.182220         1    ;  uncertainty k = 0.490350
         2         3        10         9     9      180.000000        4.555162         2    ;  uncertainty k = 0.246546
         2         3        10         9     9        0.000000        0.465529         3    ;  uncertainty k = 0.139106
         2         3        10         9     9      180.000000        0.082137         4    ;  uncertainty k = 0.052308
         2         3        10        11     9        0.000000       -0.182220         1    ;  uncertainty k = 0.490350
         2         3        10        11     9      180.000000        4.555162         2    ;  uncertainty k = 0.246546
         2         3        10        11     9        0.000000        0.465529         3    ;  uncertainty k = 0.139106
         2         3        10        11     9      180.000000        0.082137         4    ;  uncertainty k = 0.052308
         3         2         1         6     9        0.000000       -3.219000         1    ;  uncertainty k = 3.337991
         3         2         1         6     9      180.000000       31.339843         2    ;  uncertainty k = 0.519924
         3         2         1         6     9        0.000000       -0.016937         3    ;  uncertainty k = 1.304291
         3         2         1         6     9      180.000000       -0.563486         4    ;  uncertainty k = 1.469410
         3         4         5         6     9        0.000000        0.339875         1    ;  uncertainty k = 0.960588
         3         4         5         6     9      180.000000       13.881666         2    ;  uncertainty k = 0.555838
         3         4         5         6     9        0.000000        0.411503         3    ;  uncertainty k = 0.859602
         3         4         5         6     9      180.000000        1.401362         4    ;  uncertainty k = 0.471148
         3         4        16        15     9        0.000000       -0.271044         1    ;  uncertainty k = 0.984221
         3         4        16        15     9      180.000000        3.656409         2    ;  uncertainty k = 0.326245
         3         4        16        15     9        0.000000        0.520194         3    ;  uncertainty k = 0.164788
         3         4        16        15     9      180.000000        0.004240         4    ;  uncertainty k = 0.094299
         3         4        16        17     9        0.000000       -0.271044         1    ;  uncertainty k = 0.984221
         3         4        16        17     9      180.000000        3.656409         2    ;  uncertainty k = 0.326245
         3         4        16        17     9        0.000000        0.520194         3    ;  uncertainty k = 0.164788
         3         4        16        17     9      180.000000        0.004240         4    ;  uncertainty k = 0.094299
         3        10         9         8     9        0.000000        0.234268         1    ;  uncertainty k = 0.265420
         3        10         9         8     9      180.000000        9.159492         2    ;  uncertainty k = 0.660340
         3        10         9         8     9        0.000000        1.025373         3    ;  uncertainty k = 0.240886
         3        10         9         8     9      180.000000        1.730816         4    ;  uncertainty k = 0.253239
         3        10         9        22     9        0.000000       -0.051691         1    ;  uncertainty k = 0.460473
         3        10         9        22     9      180.000000        7.452519         2    ;  uncertainty k = 0.449218
         3        10         9        22     9        0.000000        0.826228         3    ;  uncertainty k = 0.151706
         3        10         9        22     9      180.000000        1.240216         4    ;  uncertainty k = 0.118658
         3        10        11        12     9        0.000000        0.234268         1    ;  uncertainty k = 0.265420
         3        10        11        12     9      180.000000        9.159492         2    ;  uncertainty k = 0.660340
         3        10        11        12     9        0.000000        1.025373         3    ;  uncertainty k = 0.240886
         3        10        11        12     9      180.000000        1.730816         4    ;  uncertainty k = 0.253239
         3        10        11        23     9        0.000000       -0.051691         1    ;  uncertainty k = 0.460473
         3        10        11        23     9      180.000000        7.452519         2    ;  uncertainty k = 0.449218
         3        10        11        23     9        0.000000        0.826228         3    ;  uncertainty k = 0.151706
         3        10        11        23     9      180.000000        1.240216         4    ;  uncertainty k = 0.118658
         4         3        10         9     9        0.000000        0.470472         1    ;  uncertainty k = 0.987890
         4         3        10         9     9      180.000000        2.485763         2    ;  uncertainty k = 0.364356
         4         3        10         9     9        0.000000        0.587995         3    ;  uncertainty k = 0.194070
         4         3        10         9     9      180.000000       -0.002498         4    ;  uncertainty k = 0.089380
         4         3        10        11     9        0.000000        0.470472         1    ;  uncertainty k = 0.987890
         4         3        10        11     9      180.000000        2.485763         2    ;  uncertainty k = 0.364356
         4         3        10        11     9        0.000000        0.587995         3    ;  uncertainty k = 0.194070
         4         3        10        11     9      180.000000       -0.002498         4    ;  uncertainty k = 0.089380
         4         5         6        19     9        0.000000        0.323492         1    ;  uncertainty k = 0.573575
         4         5         6        19     9      180.000000        8.427377         2    ;  uncertainty k = 0.712989
         4         5         6        19     9        0.000000        2.103340         3    ;  uncertainty k = 0.347201
         4         5         6        19     9      180.000000        0.966007         4    ;  uncertainty k = 0.424542
         4        16        15        14     9        0.000000        0.244623         1    ;  uncertainty k = 0.364587
         4        16        15        14     9      180.000000        8.777576         2    ;  uncertainty k = 0.506605
         4        16        15        14     9        0.000000        1.204611         3    ;  uncertainty k = 0.317859
         4        16        15        14     9      180.000000        1.930500         4    ;  uncertainty k = 0.212294
         4        16        15        26     9        0.000000       -0.281068         1    ;  uncertainty k = 0.166996
         4        16        15        26     9      180.000000        7.429076         2    ;  uncertainty k = 0.523888
         4        16        15        26     9        0.000000        0.740308         3    ;  uncertainty k = 0.138975
         4        16        15        26     9      180.000000        1.219405         4    ;  uncertainty k = 0.164843
         4        16        17        18     9        0.000000        0.244623         1    ;  uncertainty k = 0.364587
         4        16        17        18     9      180.000000        8.777576         2    ;  uncertainty k = 0.506605
         4        16        17        18     9        0.000000        1.204611         3    ;  uncertainty k = 0.317859
         4        16        17        18     9      180.000000        1.930500         4    ;  uncertainty k = 0.212294
         4        16        17        27     9        0.000000       -0.281068         1    ;  uncertainty k = 0.166996
         4        16        17        27     9      180.000000        7.429076         2    ;  uncertainty k = 0.523888
         4        16        17        27     9        0.000000        0.740308         3    ;  uncertainty k = 0.138975
         4        16        17        27     9      180.000000        1.219405         4    ;  uncertainty k = 0.164843
         5         4         3        10     9        0.000000        0.136044         1    ;  uncertainty k = 0.816483
         5         4         3        10     9      180.000000        3.939243         2    ;  uncertainty k = 1.058960
         5         4         3        10     9        0.000000        0.120675         3    ;  uncertainty k = 0.472106
         5         4         3        10     9      180.000000        0.678134         4    ;  uncertainty k = 0.627402
         5         4        16        15     9        0.000000        0.577089         1    ;  uncertainty k = 0.771269
         5         4        16        15     9      180.000000        5.298508         2    ;  uncertainty k = 0.334426
         5         4        16        15     9        0.000000        0.480066         3    ;  uncertainty k = 0.134057
         5         4        16        15     9      180.000000        0.149158         4    ;  uncertainty k = 0.112879
         5         4        16        17     9        0.000000        0.577089         1    ;  uncertainty k = 0.771269
         5         4        16        17     9      180.000000        5.298508         2    ;  uncertainty k = 0.334426
         5         4        16        17     9        0.000000        0.480066         3    ;  uncertainty k = 0.134057
         5         4        16        17     9      180.000000        0.149158         4    ;  uncertainty k = 0.112879
         5         6        19        29     9        0.000000       20.010442         1    ;  uncertainty k = 0.259650
         5         6        19        29     9      180.000000       10.182111         2    ;  uncertainty k = 0.370307
         5         6        19        29     9        0.000000        0.832804         3    ;  uncertainty k = 0.221692
         5         6        19        29     9      180.000000       -0.316472         4    ;  uncertainty k = 0.214044
         5         6        19        30     9        0.000000       20.010442         1    ;  uncertainty k = 0.259650
         5         6        19        30     9      180.000000       10.182111         2    ;  uncertainty k = 0.370307
         5         6        19        30     9        0.000000        0.832804         3    ;  uncertainty k = 0.221692
         5         6        19        30     9      180.000000       -0.316472         4    ;  uncertainty k = 0.214044
         6         5         4        16     9        0.000000        0.671482         1    ;  uncertainty k = 0.595294
         6         5         4        16     9      180.000000       15.998898         2    ;  uncertainty k = 0.727265
         6         5         4        16     9        0.000000        2.088123         3    ;  uncertainty k = 0.689736
         6         5         4        16     9      180.000000        1.669828         4    ;  uncertainty k = 0.442946
         7         8         9        10     9        0.000000       -0.174027         1    ;  uncertainty k = 0.271243
         7         8         9        10     9      180.000000       10.292805         2    ;  uncertainty k = 0.556100
         7         8         9        10     9        0.000000       -0.505449         3    ;  uncertainty k = 0.673227
         7         8         9        10     9      180.000000        1.124852         4    ;  uncertainty k = 0.251337
         7         8         9        22     9        0.000000       -0.192856         1    ;  uncertainty k = 0.482790
         7         8         9        22     9      180.000000        6.459091         2    ;  uncertainty k = 0.873390
         7         8         9        22     9        0.000000        1.177747         3    ;  uncertainty k = 0.228935
         7         8         9        22     9      180.000000        1.637927         4    ;  uncertainty k = 0.243662
         7        12        11        10     9        0.000000       -0.174027         1    ;  uncertainty k = 0.271243
         7        12        11        10     9      180.000000       10.292805         2    ;  uncertainty k = 0.556100
         7        12        11        10     9        0.000000       -0.505449         3    ;  uncertainty k = 0.673227
         7        12        11        10     9      180.000000        1.124852         4    ;  uncertainty k = 0.251337
         7        12        11        23     9        0.000000       -0.192856         1    ;  uncertainty k = 0.482790
         7        12        11        23     9      180.000000        6.459091         2    ;  uncertainty k = 0.873390
         7        12        11        23     9        0.000000        1.177747         3    ;  uncertainty k = 0.228935
         7        12        11        23     9      180.000000        1.637927         4    ;  uncertainty k = 0.243662
         8         7        12        11     9        0.000000       -0.405493         1    ;  uncertainty k = 0.556284
         8         7        12        11     9      180.000000       10.711067         2    ;  uncertainty k = 0.621285
         8         7        12        11     9        0.000000        1.351407         3    ;  uncertainty k = 0.712217
         8         7        12        11     9      180.000000        1.000224         4    ;  uncertainty k = 0.200993
         8         7        12        20     9        0.000000        0.070948         1    ;  uncertainty k = 1.064193
         8         7        12        20     9      180.000000       14.248372         2    ;  uncertainty k = 0.397561
         8         7        12        20     9        0.000000        2.430721         3    ;  uncertainty k = 0.471433
         8         7        12        20     9      180.000000        1.599415         4    ;  uncertainty k = 0.241933
         8         9        10        11     9        0.000000       -0.122573         1    ;  uncertainty k = 0.326144
         8         9        10        11     9      180.000000       12.048587         2    ;  uncertainty k = 0.418352
         8         9        10        11     9        0.000000       -0.841385         3    ;  uncertainty k = 0.160626
         8         9        10        11     9      180.000000        0.886964         4    ;  uncertainty k = 0.305814
         9         8         7        12     9        0.000000       -0.405493         1    ;  uncertainty k = 0.556284
         9         8         7        12     9      180.000000       10.711067         2    ;  uncertainty k = 0.621285
         9         8         7        12     9        0.000000        1.351407         3    ;  uncertainty k = 0.712217
         9         8         7        12     9      180.000000        1.000224         4    ;  uncertainty k = 0.200993
         9        10        11        12     9        0.000000       -0.122573         1    ;  uncertainty k = 0.326144
         9        10        11        12     9      180.000000       12.048587         2    ;  uncertainty k = 0.418352
         9        10        11        12     9        0.000000       -0.841385         3    ;  uncertainty k = 0.160626
         9        10        11        12     9      180.000000        0.886964         4    ;  uncertainty k = 0.305814
         9        10        11        23     9        0.000000        0.275100         1    ;  uncertainty k = 0.266370
         9        10        11        23     9      180.000000        7.571090         2    ;  uncertainty k = 0.617454
         9        10        11        23     9        0.000000        1.530963         3    ;  uncertainty k = 0.267406
         9        10        11        23     9      180.000000        1.657152         4    ;  uncertainty k = 0.216905
        10         3         4        16     9        0.000000       -0.198440         1    ;  uncertainty k = 1.095059
        10         3         4        16     9      180.000000        3.507369         2    ;  uncertainty k = 0.517247
        10         3         4        16     9        0.000000        0.789358         3    ;  uncertainty k = 0.351049
        10         3         4        16     9      180.000000        0.414045         4    ;  uncertainty k = 0.303997
        10         9         8        21     9        0.000000       -0.139329         1    ;  uncertainty k = 0.219709
        10         9         8        21     9      180.000000        7.225683         2    ;  uncertainty k = 0.400849
        10         9         8        21     9        0.000000        1.194211         3    ;  uncertainty k = 0.348021
        10         9         8        21     9      180.000000        1.482631         4    ;  uncertainty k = 0.182390
        10        11        12        20     9        0.000000       -0.139329         1    ;  uncertainty k = 0.219709
        10        11        12        20     9      180.000000        7.225683         2    ;  uncertainty k = 0.400849
        10        11        12        20     9        0.000000        1.194211         3    ;  uncertainty k = 0.348021
        10        11        12        20     9      180.000000        1.482631         4    ;  uncertainty k = 0.182390
        11        10         9        22     9        0.000000        0.275100         1    ;  uncertainty k = 0.266370
        11        10         9        22     9      180.000000        7.571090         2    ;  uncertainty k = 0.617454
        11        10         9        22     9        0.000000        1.530963         3    ;  uncertainty k = 0.267406
        11        10         9        22     9      180.000000        1.657152         4    ;  uncertainty k = 0.216905
        12         7         8        21     9        0.000000        0.070948         1    ;  uncertainty k = 1.064193
        12         7         8        21     9      180.000000       14.248372         2    ;  uncertainty k = 0.397561
        12         7         8        21     9        0.000000        2.430721         3    ;  uncertainty k = 0.471433
        12         7         8        21     9      180.000000        1.599415         4    ;  uncertainty k = 0.241933
        13        14        15        16     9        0.000000       -0.085156         1    ;  uncertainty k = 0.101326
        13        14        15        16     9      180.000000       13.800477         2    ;  uncertainty k = 0.268312
        13        14        15        16     9        0.000000       -0.771380         3    ;  uncertainty k = 0.430279
        13        14        15        16     9      180.000000        0.763186         4    ;  uncertainty k = 0.221620
        13        14        15        26     9        0.000000        0.040792         1    ;  uncertainty k = 0.098340
        13        14        15        26     9      180.000000        7.829050         2    ;  uncertainty k = 0.220837
        13        14        15        26     9        0.000000        1.377807         3    ;  uncertainty k = 0.305455
        13        14        15        26     9      180.000000        1.862040         4    ;  uncertainty k = 0.175515
        13        18        17        16     9        0.000000       -0.085156         1    ;  uncertainty k = 0.101326
        13        18        17        16     9      180.000000       13.800477         2    ;  uncertainty k = 0.268312
        13        18        17        16     9        0.000000       -0.771380         3    ;  uncertainty k = 0.430279
        13        18        17        16     9      180.000000        0.763186         4    ;  uncertainty k = 0.221620
        13        18        17        27     9        0.000000        0.040792         1    ;  uncertainty k = 0.098340
        13        18        17        27     9      180.000000        7.829050         2    ;  uncertainty k = 0.220837
        13        18        17        27     9        0.000000        1.377807         3    ;  uncertainty k = 0.305455
        13        18        17        27     9      180.000000        1.862040         4    ;  uncertainty k = 0.175515
        14        13        18        17     9        0.000000       -0.039609         1    ;  uncertainty k = 0.058508
        14        13        18        17     9      180.000000       14.728850         2    ;  uncertainty k = 0.270498
        14        13        18        17     9        0.000000       -1.116008         3    ;  uncertainty k = 0.461534
        14        13        18        17     9      180.000000        0.570638         4    ;  uncertainty k = 0.262850
        14        13        18        28     9        0.000000        0.060280         1    ;  uncertainty k = 0.046484
        14        13        18        28     9      180.000000        7.580498         2    ;  uncertainty k = 0.301291
        14        13        18        28     9        0.000000        1.432917         3    ;  uncertainty k = 0.310397
        14        13        18        28     9      180.000000        1.808653         4    ;  uncertainty k = 0.112983
        14        15        16        17     9        0.000000       -0.228846         1    ;  uncertainty k = 0.099621
        14        15        16        17     9      180.000000       11.519585         2    ;  uncertainty k = 0.245642
        14        15        16        17     9        0.000000       -0.708965         3    ;  uncertainty k = 0.222667
        14        15        16        17     9      180.000000        0.889608         4    ;  uncertainty k = 0.283730
        15        14        13        18     9        0.000000       -0.039609         1    ;  uncertainty k = 0.058508
        15        14        13        18     9      180.000000       14.728850         2    ;  uncertainty k = 0.270498
        15        14        13        18     9        0.000000       -1.116008         3    ;  uncertainty k = 0.461534
        15        14        13        18     9      180.000000        0.570638         4    ;  uncertainty k = 0.262850
        15        14        13        24     9        0.000000        0.018696         1    ;  uncertainty k = 0.067612
        15        14        13        24     9      180.000000        7.446532         2    ;  uncertainty k = 0.246906
        15        14        13        24     9        0.000000        1.463058         3    ;  uncertainty k = 0.239087
        15        14        13        24     9      180.000000        1.786839         4    ;  uncertainty k = 0.161485
        15        16        17        18     9        0.000000       -0.228846         1    ;  uncertainty k = 0.099621
        15        16        17        18     9      180.000000       11.519585         2    ;  uncertainty k = 0.245642
        15        16        17        18     9        0.000000       -0.708965         3    ;  uncertainty k = 0.222667
        15        16        17        18     9      180.000000        0.889608         4    ;  uncertainty k = 0.283730
        15        16        17        27     9        0.000000        0.168842         1    ;  uncertainty k = 0.107557
        15        16        17        27     9      180.000000        7.056492         2    ;  uncertainty k = 0.442030
        15        16        17        27     9        0.000000        1.360330         3    ;  uncertainty k = 0.161756
        15        16        17        27     9      180.000000        1.681350         4    ;  uncertainty k = 0.250468
        16        15        14        25     9        0.000000        0.000276         1    ;  uncertainty k = 0.169363
        16        15        14        25     9      180.000000        7.621252         2    ;  uncertainty k = 0.320005
        16        15        14        25     9        0.000000        1.446360         3    ;  uncertainty k = 0.172877
        16        15        14        25     9      180.000000        1.823296         4    ;  uncertainty k = 0.150540
        16        17        18        28     9        0.000000        0.000276         1    ;  uncertainty k = 0.169363
        16        17        18        28     9      180.000000        7.621252         2    ;  uncertainty k = 0.320005
        16        17        18        28     9        0.000000        1.446360         3    ;  uncertainty k = 0.172877
        16        17        18        28     9      180.000000        1.823296         4    ;  uncertainty k = 0.150540
        17        16        15        26     9        0.000000        0.168842         1    ;  uncertainty k = 0.107557
        17        16        15        26     9      180.000000        7.056492         2    ;  uncertainty k = 0.442030
        17        16        15        26     9        0.000000        1.360330         3    ;  uncertainty k = 0.161756
        17        16        15        26     9      180.000000        1.681350         4    ;  uncertainty k = 0.250468
        17        18        13        24     9        0.000000        0.018696         1    ;  uncertainty k = 0.067612
        17        18        13        24     9      180.000000        7.446532         2    ;  uncertainty k = 0.246906
        17        18        13        24     9        0.000000        1.463058         3    ;  uncertainty k = 0.239087
        17        18        13        24     9      180.000000        1.786839         4    ;  uncertainty k = 0.161485
        18        13        14        25     9        0.000000        0.060280         1    ;  uncertainty k = 0.046484
        18        13        14        25     9      180.000000        7.580498         2    ;  uncertainty k = 0.301291
        18        13        14        25     9        0.000000        1.432917         3    ;  uncertainty k = 0.310397
        18        13        14        25     9      180.000000        1.808653         4    ;  uncertainty k = 0.112983
        20        12        11        23     9        0.000000       -0.320250         1    ;  uncertainty k = 0.318374
        20        12        11        23     9      180.000000        6.196734         2    ;  uncertainty k = 0.302924
        20        12        11        23     9        0.000000        0.486433         3    ;  uncertainty k = 0.263689
        20        12        11        23     9      180.000000        0.901728         4    ;  uncertainty k = 0.184589
        21         8         9        22     9        0.000000       -0.320250         1    ;  uncertainty k = 0.318374
        21         8         9        22     9      180.000000        6.196734         2    ;  uncertainty k = 0.302924
        21         8         9        22     9        0.000000        0.486433         3    ;  uncertainty k = 0.263689
        21         8         9        22     9      180.000000        0.901728         4    ;  uncertainty k = 0.184589
        24        13        14        25     9        0.000000       -0.086959         1    ;  uncertainty k = 0.086880
        24        13        14        25     9      180.000000        7.713489         2    ;  uncertainty k = 0.410363
        24        13        14        25     9        0.000000       -0.420918         3    ;  uncertainty k = 0.300483
        24        13        14        25     9      180.000000        0.039571         4    ;  uncertainty k = 0.147961
        24        13        18        28     9        0.000000       -0.086959         1    ;  uncertainty k = 0.086880
        24        13        18        28     9      180.000000        7.713489         2    ;  uncertainty k = 0.410363
        24        13        18        28     9        0.000000       -0.420918         3    ;  uncertainty k = 0.300483
        24        13        18        28     9      180.000000        0.039571         4    ;  uncertainty k = 0.147961
        25        14        15        26     9        0.000000       -0.159865         1    ;  uncertainty k = 0.133584
        25        14        15        26     9      180.000000        7.859188         2    ;  uncertainty k = 0.325421
        25        14        15        26     9        0.000000       -0.450050         3    ;  uncertainty k = 0.281622
        25        14        15        26     9      180.000000        0.154829         4    ;  uncertainty k = 0.122641
        27        17        18        28     9        0.000000       -0.159865         1    ;  uncertainty k = 0.133584
        27        17        18        28     9      180.000000        7.859188         2    ;  uncertainty k = 0.325421
        27        17        18        28     9        0.000000       -0.450050         3    ;  uncertainty k = 0.281622
        27        17        18        28     9      180.000000        0.154829         4    ;  uncertainty k = 0.122641

[ dihedrals ] ; impropers
;       ai        aj        ak        al funct           phase               k        pn
         3         2         4        10     4      180.000000       20.854547         2    ;  uncertainty k = 0.142255
         3         4        10         2     4      180.000000       20.854547         2    ;  uncertainty k = 0.142255
         3        10         2         4     4      180.000000       20.854547         2    ;  uncertainty k = 0.142255
         4         3         5        16     4      180.000000       29.770433         2    ;  uncertainty k = 0.046510
         4         5        16         3     4      180.000000       29.770433         2    ;  uncertainty k = 0.046510
         4        16         3         5     4      180.000000       29.770433         2    ;  uncertainty k = 0.046510
         6         1         5        19     4      180.000000       43.323642         2    ;  uncertainty k = 0.063441
         6         5        19         1     4      180.000000       43.323642         2    ;  uncertainty k = 0.063441
         6        19         1         5     4      180.000000       43.323642         2    ;  uncertainty k = 0.063441
         8         7         9        21     4      180.000000       24.615441         2    ;  uncertainty k = 0.044278
         8         9        21         7     4      180.000000       24.615441         2    ;  uncertainty k = 0.044278
         8        21         7         9     4      180.000000       24.615441         2    ;  uncertainty k = 0.044278
         9         8        10        22     4      180.000000        3.346710         2    ;  uncertainty k = 0.217902
         9        10        22         8     4      180.000000        3.346710         2    ;  uncertainty k = 0.217902
         9        22         8        10     4      180.000000        3.346710         2    ;  uncertainty k = 0.217902
        10         3         9        11     4      180.000000       14.649743         2    ;  uncertainty k = 0.106409
        10         9        11         3     4      180.000000       14.649743         2    ;  uncertainty k = 0.106409
        10        11         3         9     4      180.000000       14.649743         2    ;  uncertainty k = 0.106409
        11        10        12        23     4      180.000000        3.346710         2    ;  uncertainty k = 0.217902
        11        12        23        10     4      180.000000        3.346710         2    ;  uncertainty k = 0.217902
        11        23        10        12     4      180.000000        3.346710         2    ;  uncertainty k = 0.217902
        12         7        11        20     4      180.000000       24.615441         2    ;  uncertainty k = 0.044278
        12        11        20         7     4      180.000000       24.615441         2    ;  uncertainty k = 0.044278
        12        20         7        11     4      180.000000       24.615441         2    ;  uncertainty k = 0.044278
        13        14        18        24     4      180.000000        4.673371         2    ;  uncertainty k = 0.190294
        13        18        24        14     4      180.000000        4.673371         2    ;  uncertainty k = 0.190294
        13        24        14        18     4      180.000000        4.673371         2    ;  uncertainty k = 0.190294
        14        13        15        25     4      180.000000        4.310918         2    ;  uncertainty k = 0.072052
        14        15        25        13     4      180.000000        4.310918         2    ;  uncertainty k = 0.072052
        14        25        13        15     4      180.000000        4.310918         2    ;  uncertainty k = 0.072052
        15        14        16        26     4      180.000000        4.275764         2    ;  uncertainty k = 0.092513
        15        16        26        14     4      180.000000        4.275764         2    ;  uncertainty k = 0.092513
        15        26        14        16     4      180.000000        4.275764         2    ;  uncertainty k = 0.092513
        16         4        15        17     4      180.000000       10.064639         2    ;  uncertainty k = 0.105291
        16        15        17         4     4      180.000000       10.064639         2    ;  uncertainty k = 0.105291
        16        17         4        15     4      180.000000       10.064639         2    ;  uncertainty k = 0.105291
        17        16        18        27     4      180.000000        4.275764         2    ;  uncertainty k = 0.092512
        17        18        27        16     4      180.000000        4.275764         2    ;  uncertainty k = 0.092512
        17        27        16        18     4      180.000000        4.275764         2    ;  uncertainty k = 0.092512
        18        13        17        28     4      180.000000        4.310919         2    ;  uncertainty k = 0.072052
        18        17        28        13     4      180.000000        4.310919         2    ;  uncertainty k = 0.072052
        18        28        13        17     4      180.000000        4.310919         2    ;  uncertainty k = 0.072052
        19         6        29        30     4      180.000000        0.390383         2    ;  uncertainty k = 0.522839
        19        29        30         6     4      180.000000        0.390383         2    ;  uncertainty k = 0.522839
        19        30         6        29     4      180.000000        0.390383         2    ;  uncertainty k = 0.522839

[ pairs ]
;       ai        aj funct
         1         4     1
         1        10     1
         1        29     1
         1        30     1
         2         5     1
         2         9     1
         2        11     1
         2        16     1
         2        19     1
         3         6     1
         3         8     1
         3        12     1
         3        15     1
         3        17     1
         3        22     1
         3        23     1
         4         9     1
         4        11     1
         4        14     1
         4        18     1
         4        19     1
         4        26     1
         4        27     1
         5        10     1
         5        15     1
         5        17     1
         5        29     1
         5        30     1
         6        16     1
         7        10     1
         7        22     1
         7        23     1
         8        11     1
         8        20     1
         9        12     1
         9        23     1
        10        16     1
        10        20     1
        10        21     1
        11        22     1
        12        21     1
        13        16     1
        13        26     1
        13        27     1
        14        17     1
        14        28     1
        15        18     1
        15        24     1
        15        27     1
        16        25     1
        16        28     1
        17        24     1
        17        26     1
        18        25     1
        20        23     1
        21        22     1
        24        25     1
        24        28     1
        25        26     1
        27        28     1
