; ITP file created by ByteFF-joint-25, 2025-07-14 11:28:17.359407

[ atomtypes ]
;name           bonded.type        at.num        mass        charge   ptype           sigma         epsilon
 n0bf                                   7      0.0000       0.00000       A     3.38457e-01     3.93065e-01    ;  uncertainty sigma = 0.000033, epsilon = 0.002906
 n1bf                                   7      0.0000       0.00000       A     3.38476e-01     3.93713e-01    ;  uncertainty sigma = 0.000022, epsilon = 0.001198
 c2bf                                   6      0.0000       0.00000       A     3.31529e-01     4.12722e-01    ;  uncertainty sigma = 0.000023, epsilon = 0.001405
 c3bf                                   6      0.0000       0.00000       A     3.31532e-01     4.12868e-01    ;  uncertainty sigma = 0.000013, epsilon = 0.000681
 n4bf                                   7      0.0000       0.00000       A     3.38467e-01     3.94052e-01    ;  uncertainty sigma = 0.000030, epsilon = 0.001987
 c5bf                                   6      0.0000       0.00000       A     3.31538e-01     4.13311e-01    ;  uncertainty sigma = 0.000020, epsilon = 0.001585
 c6bf                                   6      0.0000       0.00000       A     3.31546e-01     4.14174e-01    ;  uncertainty sigma = 0.000019, epsilon = 0.002092
 c7bf                                   6      0.0000       0.00000       A     3.31502e-01     4.13023e-01    ;  uncertainty sigma = 0.000014, epsilon = 0.002019
 c8bf                                   6      0.0000       0.00000       A     3.31564e-01     4.13157e-01    ;  uncertainty sigma = 0.000011, epsilon = 0.001887
 c9bf                                   6      0.0000       0.00000       A     3.31433e-01     4.10115e-01    ;  uncertainty sigma = 0.000143, epsilon = 0.001080
 c10bf                                  6      0.0000       0.00000       A     3.31564e-01     4.13157e-01    ;  uncertainty sigma = 0.000011, epsilon = 0.001887
 c11bf                                  6      0.0000       0.00000       A     3.31502e-01     4.13023e-01    ;  uncertainty sigma = 0.000014, epsilon = 0.002019
 c12bf                                  6      0.0000       0.00000       A     3.31518e-01     4.13340e-01    ;  uncertainty sigma = 0.000003, epsilon = 0.000580
 c13bf                                  6      0.0000       0.00000       A     3.31519e-01     4.13380e-01    ;  uncertainty sigma = 0.000002, epsilon = 0.000627
 c14bf                                  6      0.0000       0.00000       A     3.31517e-01     4.13568e-01    ;  uncertainty sigma = 0.000002, epsilon = 0.000944
 c15bf                                  6      0.0000       0.00000       A     3.31548e-01     4.13550e-01    ;  uncertainty sigma = 0.000019, epsilon = 0.000920
 c16bf                                  6      0.0000       0.00000       A     3.31517e-01     4.13568e-01    ;  uncertainty sigma = 0.000002, epsilon = 0.000944
 c17bf                                  6      0.0000       0.00000       A     3.31519e-01     4.13380e-01    ;  uncertainty sigma = 0.000002, epsilon = 0.000627
 n18bf                                  7      0.0000       0.00000       A     3.36800e-01     4.68954e-01    ;  uncertainty sigma = 0.000066, epsilon = 0.001925
 o19bf                                  8      0.0000       0.00000       A     3.04932e-01     6.10528e-01    ;  uncertainty sigma = 0.000007, epsilon = 0.003516
 h20bf                                  1      0.0000       0.00000       A     2.62471e-01     6.75031e-02    ;  uncertainty sigma = 0.000038, epsilon = 0.000717
 h21bf                                  1      0.0000       0.00000       A     2.62585e-01     6.79538e-02    ;  uncertainty sigma = 0.000069, epsilon = 0.001581
 h22bf                                  1      0.0000       0.00000       A     2.62585e-01     6.79538e-02    ;  uncertainty sigma = 0.000069, epsilon = 0.001581
 h23bf                                  1      0.0000       0.00000       A     2.62471e-01     6.75031e-02    ;  uncertainty sigma = 0.000038, epsilon = 0.000717
 h24bf                                  1      0.0000       0.00000       A     2.62552e-01     6.70645e-02    ;  uncertainty sigma = 0.000011, epsilon = 0.000453
 h25bf                                  1      0.0000       0.00000       A     2.62559e-01     6.70250e-02    ;  uncertainty sigma = 0.000010, epsilon = 0.000440
 h26bf                                  1      0.0000       0.00000       A     2.62560e-01     6.70283e-02    ;  uncertainty sigma = 0.000012, epsilon = 0.000523
 h27bf                                  1      0.0000       0.00000       A     2.62560e-01     6.70283e-02    ;  uncertainty sigma = 0.000012, epsilon = 0.000523
 h28bf                                  1      0.0000       0.00000       A     2.62559e-01     6.70249e-02    ;  uncertainty sigma = 0.000010, epsilon = 0.000440
 h29bf                                  1      0.0000       0.00000       A     1.10728e-01     4.07630e-02    ;  uncertainty sigma = 0.000034, epsilon = 0.001087
 h30bf                                  1      0.0000       0.00000       A     1.10728e-01     4.07630e-02    ;  uncertainty sigma = 0.000034, epsilon = 0.001087

[ moleculetype ]
;name             nrexcl
 MOL                   3

[ atoms ]
;       nr            type      resi   res      atom      cgnr      charge          mass ; qtot
         1            n0bf         1   UNL        n0         1    -0.40685       14.0070 ; qtot   -0.407
         2            n1bf         1   UNL        n1         2    -0.25589       14.0070 ; qtot   -0.663
         3            c2bf         1   UNL        c2         3     0.27705       12.0110 ; qtot   -0.386
         4            c3bf         1   UNL        c3         4     0.46617       12.0110 ; qtot    0.080
         5            n4bf         1   UNL        n4         5    -0.73822       14.0070 ; qtot   -0.658
         6            c5bf         1   UNL        c5         6     0.82167       12.0110 ; qtot    0.164
         7            c6bf         1   UNL        c6         7     0.53063       12.0110 ; qtot    0.695
         8            c7bf         1   UNL        c7         8    -0.35129       12.0110 ; qtot    0.343
         9            c8bf         1   UNL        c8         9    -0.03706       12.0110 ; qtot    0.306
        10            c9bf         1   UNL        c9        10    -0.34616       12.0110 ; qtot   -0.040
        11           c10bf         1   UNL       c10        11    -0.03706       12.0110 ; qtot   -0.077
        12           c11bf         1   UNL       c11        12    -0.35129       12.0110 ; qtot   -0.428
        13           c12bf         1   UNL       c12        13    -0.11402       12.0110 ; qtot   -0.542
        14           c13bf         1   UNL       c13        14    -0.13628       12.0110 ; qtot   -0.679
        15           c14bf         1   UNL       c14        15    -0.09093       12.0110 ; qtot   -0.770
        16           c15bf         1   UNL       c15        16    -0.17251       12.0110 ; qtot   -0.942
        17           c16bf         1   UNL       c16        17    -0.09093       12.0110 ; qtot   -1.033
        18           c17bf         1   UNL       c17        18    -0.13628       12.0110 ; qtot   -1.169
        19           n18bf         1   UNL       n18        19    -0.92625       14.0070 ; qtot   -2.095
        20           o19bf         1   UNL       o19        20    -0.78909       15.9990 ; qtot   -2.885
        21           h20bf         1   UNL       h20        21     0.08482        1.0080 ; qtot   -2.800
        22           h21bf         1   UNL       h21        22     0.08107        1.0080 ; qtot   -2.719
        23           h22bf         1   UNL       h22        23     0.08107        1.0080 ; qtot   -2.638
        24           h23bf         1   UNL       h23        24     0.08482        1.0080 ; qtot   -2.553
        25           h24bf         1   UNL       h24        25     0.13373        1.0080 ; qtot   -2.419
        26           h25bf         1   UNL       h25        26     0.13437        1.0080 ; qtot   -2.285
        27           h26bf         1   UNL       h26        27     0.14424        1.0080 ; qtot   -2.140
        28           h27bf         1   UNL       h27        28     0.14424        1.0080 ; qtot   -1.996
        29           h28bf         1   UNL       h28        29     0.13437        1.0080 ; qtot   -1.862
        30           h29bf         1   UNL       h29        30     0.43092        1.0080 ; qtot   -1.431
        31           h30bf         1   UNL       h30        31     0.43094        1.0080 ; qtot   -1.000

[ bonds ]
;       ai        aj funct               r               k
         1         2     1        0.130778   361370.603955    ;  uncertainty r = 0.000176, k = 32.459970
         1         6     1        0.135400   366916.906592    ;  uncertainty r = 0.000241, k = 17.361955
         2         3     1        0.133404   330280.807666    ;  uncertainty r = 0.000360, k = 19.600216
         3         4     1        0.140609   327198.529639    ;  uncertainty r = 0.000173, k = 21.917232
         3        10     1        0.144844   271564.889844    ;  uncertainty r = 0.000242, k = 26.502270
         4         5     1        0.133035   420127.381152    ;  uncertainty r = 0.000119, k = 20.872352
         4        16     1        0.147775   265849.735840    ;  uncertainty r = 0.000153, k = 2.016089
         5         6     1        0.136102   532915.906348    ;  uncertainty r = 0.000140, k = 13.557526
         6        19     1        0.140058   625071.519727    ;  uncertainty r = 0.000422, k = 22.781256
         7         8     1        0.145395   389949.285205    ;  uncertainty r = 0.000057, k = 16.406790
         7        12     1        0.145395   389949.285205    ;  uncertainty r = 0.000057, k = 16.406790
         7        20     1        0.127255   547064.843945    ;  uncertainty r = 0.000077, k = 11.514514
         8         9     1        0.137827   375500.312109    ;  uncertainty r = 0.000217, k = 19.640134
         8        21     1        0.108879   334394.427393    ;  uncertainty r = 0.000042, k = 7.920767
         9        10     1        0.142287   342878.136035    ;  uncertainty r = 0.000147, k = 30.507313
         9        22     1        0.108852   330060.064893    ;  uncertainty r = 0.000045, k = 2.562955
        10        11     1        0.142287   342878.136035    ;  uncertainty r = 0.000147, k = 30.507313
        11        12     1        0.137827   375500.312109    ;  uncertainty r = 0.000217, k = 19.640134
        11        23     1        0.108852   330060.064893    ;  uncertainty r = 0.000045, k = 2.562955
        12        24     1        0.108879   334394.427393    ;  uncertainty r = 0.000042, k = 7.920767
        13        14     1        0.139638   371681.952441    ;  uncertainty r = 0.000015, k = 0.978306
        13        18     1        0.139638   371681.952441    ;  uncertainty r = 0.000015, k = 0.978306
        13        25     1        0.108841   334518.920801    ;  uncertainty r = 0.000012, k = 0.635598
        14        15     1        0.139410   364403.723047    ;  uncertainty r = 0.000027, k = 1.125537
        14        26     1        0.108844   333597.720654    ;  uncertainty r = 0.000013, k = 0.737651
        15        16     1        0.140052   345029.586426    ;  uncertainty r = 0.000032, k = 1.520525
        15        27     1        0.108717   333226.053564    ;  uncertainty r = 0.000015, k = 0.733478
        16        17     1        0.140052   345029.586426    ;  uncertainty r = 0.000032, k = 1.520525
        17        18     1        0.139410   364403.723047    ;  uncertainty r = 0.000027, k = 1.125537
        17        28     1        0.108717   333226.053564    ;  uncertainty r = 0.000015, k = 0.733478
        18        29     1        0.108844   333597.720654    ;  uncertainty r = 0.000013, k = 0.737651
        19        30     1        0.102196   439793.713379    ;  uncertainty r = 0.000076, k = 4.088413
        19        31     1        0.102196   439793.713379    ;  uncertainty r = 0.000076, k = 4.088413

[ angles ]
;       ai        aj        ak funct           theta             cth
         1         2         3     1      119.654541      633.866424    ;  uncertainty theta = 0.004630, k = 0.093506
         1         6         5     1      125.473976      667.166559    ;  uncertainty theta = 0.004399, k = 0.260032
         1         6        19     1      122.667969      687.926313    ;  uncertainty theta = 0.008559, k = 0.200162
         2         1         6     1      112.117577      575.313599    ;  uncertainty theta = 0.004635, k = 0.210273
         2         3         4     1      122.366104      528.295215    ;  uncertainty theta = 0.007011, k = 0.153052
         2         3        10     1      120.411949      453.591062    ;  uncertainty theta = 0.010630, k = 0.252371
         3         4         5     1      120.261086      521.304655    ;  uncertainty theta = 0.007569, k = 0.337675
         3         4        16     1      121.036331      335.028297    ;  uncertainty theta = 0.005392, k = 0.314526
         3        10         9     1      120.201927      365.438014    ;  uncertainty theta = 0.008289, k = 0.190627
         3        10        11     1      120.201927      365.438014    ;  uncertainty theta = 0.008289, k = 0.190627
         4         3        10     1      122.933083      342.188934    ;  uncertainty theta = 0.006523, k = 0.333189
         4         5         6     1      117.333641      426.968275    ;  uncertainty theta = 0.017496, k = 0.318744
         4        16        15     1      118.619736      365.704334    ;  uncertainty theta = 0.003070, k = 0.150298
         4        16        17     1      118.619736      365.704334    ;  uncertainty theta = 0.003070, k = 0.150298
         5         4        16     1      120.498230      469.984514    ;  uncertainty theta = 0.005482, k = 0.142607
         5         6        19     1      125.763504      798.173718    ;  uncertainty theta = 0.006180, k = 0.064188
         6        19        30     1      118.262405      443.776577    ;  uncertainty theta = 0.004875, k = 0.045402
         6        19        31     1      118.262405      443.776577    ;  uncertainty theta = 0.004875, k = 0.045402
         7         8         9     1      121.211304      471.224373    ;  uncertainty theta = 0.004923, k = 0.138445
         7         8        21     1      119.078468      299.263703    ;  uncertainty theta = 0.007234, k = 0.157532
         7        12        11     1      121.211304      471.224373    ;  uncertainty theta = 0.004923, k = 0.138445
         7        12        24     1      119.078468      299.263703    ;  uncertainty theta = 0.007234, k = 0.157532
         8         7        12     1      112.649734      366.839842    ;  uncertainty theta = 0.008836, k = 0.525666
         8         7        20     1      124.131081      559.458437    ;  uncertainty theta = 0.005488, k = 0.198111
         8         9        10     1      123.606361      508.760316    ;  uncertainty theta = 0.005120, k = 0.237449
         8         9        22     1      120.534508      299.897949    ;  uncertainty theta = 0.006139, k = 0.186393
         9         8        21     1      120.667587      285.333082    ;  uncertainty theta = 0.005041, k = 0.112280
         9        10        11     1      121.753983      444.087331    ;  uncertainty theta = 0.010372, k = 0.205225
        10         9        22     1      117.691330      274.530565    ;  uncertainty theta = 0.005216, k = 0.139556
        10        11        12     1      123.606361      508.760316    ;  uncertainty theta = 0.005120, k = 0.237449
        10        11        23     1      117.691330      274.530565    ;  uncertainty theta = 0.005216, k = 0.139556
        11        12        24     1      120.667587      285.333082    ;  uncertainty theta = 0.005041, k = 0.112280
        12         7        20     1      124.131081      559.458437    ;  uncertainty theta = 0.005488, k = 0.198111
        12        11        23     1      120.534508      299.897949    ;  uncertainty theta = 0.006139, k = 0.186393
        13        14        15     1      119.529297      515.813762    ;  uncertainty theta = 0.001865, k = 0.035586
        13        14        26     1      120.660217      288.604066    ;  uncertainty theta = 0.001135, k = 0.015010
        13        18        17     1      119.529297      515.813762    ;  uncertainty theta = 0.001865, k = 0.035586
        13        18        29     1      120.660217      288.604066    ;  uncertainty theta = 0.001135, k = 0.015010
        14        13        18     1      118.344101      527.921193    ;  uncertainty theta = 0.001138, k = 0.026327
        14        13        25     1      120.585655      288.470922    ;  uncertainty theta = 0.001777, k = 0.013074
        14        15        16     1      120.766884      528.404514    ;  uncertainty theta = 0.002344, k = 0.034155
        14        15        27     1      120.422874      292.742706    ;  uncertainty theta = 0.001561, k = 0.018301
        15        14        26     1      120.046219      284.619543    ;  uncertainty theta = 0.001720, k = 0.015559
        15        16        17     1      121.273514      438.081450    ;  uncertainty theta = 0.004734, k = 0.088958
        16        15        27     1      118.758041      275.494336    ;  uncertainty theta = 0.002279, k = 0.045416
        16        17        18     1      120.766884      528.404514    ;  uncertainty theta = 0.002344, k = 0.034155
        16        17        28     1      118.758041      275.494336    ;  uncertainty theta = 0.002279, k = 0.045416
        17        18        29     1      120.046219      284.619543    ;  uncertainty theta = 0.001720, k = 0.015559
        18        13        25     1      120.585655      288.470954    ;  uncertainty theta = 0.001777, k = 0.013074
        18        17        28     1      120.422874      292.742738    ;  uncertainty theta = 0.001561, k = 0.018301
        30        19        31     1      107.926712      266.053522    ;  uncertainty theta = 0.004368, k = 0.064560

[ dihedrals ] ; propers for gromacs 4.5 or higher, use funct 9
;       ai        aj        ak        al funct           phase               k        pn
         1         2         3         4     9        0.000000        1.834349         1    ;  uncertainty k = 1.470613
         1         2         3         4     9      180.000000       11.984979         2    ;  uncertainty k = 0.354946
         1         2         3         4     9        0.000000        2.162313         3    ;  uncertainty k = 0.308358
         1         2         3         4     9      180.000000        1.364663         4    ;  uncertainty k = 0.148673
         1         2         3        10     9        0.000000        1.594594         1    ;  uncertainty k = 1.100470
         1         2         3        10     9      180.000000       18.693413         2    ;  uncertainty k = 0.498441
         1         2         3        10     9        0.000000        2.887882         3    ;  uncertainty k = 0.449014
         1         2         3        10     9      180.000000        1.354482         4    ;  uncertainty k = 0.579185
         1         6         5         4     9        0.000000       -0.159502         1    ;  uncertainty k = 2.061285
         1         6         5         4     9      180.000000        3.831664         2    ;  uncertainty k = 1.625385
         1         6         5         4     9        0.000000        1.173384         3    ;  uncertainty k = 0.518495
         1         6         5         4     9      180.000000        0.562840         4    ;  uncertainty k = 0.479066
         1         6        19        30     9        0.000000       13.129111         1    ;  uncertainty k = 0.629667
         1         6        19        30     9      180.000000        9.756533         2    ;  uncertainty k = 0.245450
         1         6        19        30     9        0.000000        0.714123         3    ;  uncertainty k = 0.172606
         1         6        19        30     9      180.000000       -0.412217         4    ;  uncertainty k = 0.285718
         1         6        19        31     9        0.000000       13.129111         1    ;  uncertainty k = 0.629667
         1         6        19        31     9      180.000000        9.756533         2    ;  uncertainty k = 0.245450
         1         6        19        31     9        0.000000        0.714123         3    ;  uncertainty k = 0.172606
         1         6        19        31     9      180.000000       -0.412217         4    ;  uncertainty k = 0.285718
         2         1         6         5     9        0.000000        1.968898         1    ;  uncertainty k = 1.303642
         2         1         6         5     9      180.000000        5.539831         2    ;  uncertainty k = 1.934359
         2         1         6         5     9        0.000000        1.215088         3    ;  uncertainty k = 0.650296
         2         1         6         5     9      180.000000        1.068040         4    ;  uncertainty k = 0.490493
         2         1         6        19     9        0.000000        2.793109         1    ;  uncertainty k = 1.767061
         2         1         6        19     9      180.000000       10.325178         2    ;  uncertainty k = 0.754001
         2         1         6        19     9        0.000000        2.692809         3    ;  uncertainty k = 0.395811
         2         1         6        19     9      180.000000        0.982486         4    ;  uncertainty k = 0.243420
         2         3         4         5     9        0.000000       -0.845136         1    ;  uncertainty k = 0.523212
         2         3         4         5     9      180.000000        3.344996         2    ;  uncertainty k = 1.130031
         2         3         4         5     9        0.000000       -0.341752         3    ;  uncertainty k = 1.055539
         2         3         4         5     9      180.000000        0.520014         4    ;  uncertainty k = 0.581138
         2         3         4        16     9        0.000000       -1.433830         1    ;  uncertainty k = 1.222403
         2         3         4        16     9      180.000000        2.325184         2    ;  uncertainty k = 0.807353
         2         3         4        16     9        0.000000        0.056541         3    ;  uncertainty k = 0.837821
         2         3         4        16     9      180.000000        0.814834         4    ;  uncertainty k = 0.497228
         2         3        10         9     9        0.000000       -1.559811         1    ;  uncertainty k = 2.409090
         2         3        10         9     9      180.000000        9.090051         2    ;  uncertainty k = 0.576106
         2         3        10         9     9        0.000000        0.511160         3    ;  uncertainty k = 0.566859
         2         3        10         9     9      180.000000       -0.003157         4    ;  uncertainty k = 0.398729
         2         3        10        11     9        0.000000       -1.559811         1    ;  uncertainty k = 2.409090
         2         3        10        11     9      180.000000        9.090051         2    ;  uncertainty k = 0.576106
         2         3        10        11     9        0.000000        0.511160         3    ;  uncertainty k = 0.566859
         2         3        10        11     9      180.000000       -0.003157         4    ;  uncertainty k = 0.398729
         3         2         1         6     9        0.000000       -3.129391         1    ;  uncertainty k = 3.613406
         3         2         1         6     9      180.000000       30.933799         2    ;  uncertainty k = 0.581158
         3         2         1         6     9        0.000000       -0.070235         3    ;  uncertainty k = 1.280795
         3         2         1         6     9      180.000000       -0.516848         4    ;  uncertainty k = 1.464391
         3         4         5         6     9        0.000000        0.224718         1    ;  uncertainty k = 0.964442
         3         4         5         6     9      180.000000       13.622071         2    ;  uncertainty k = 0.554512
         3         4         5         6     9        0.000000        0.444834         3    ;  uncertainty k = 0.883595
         3         4         5         6     9      180.000000        1.339817         4    ;  uncertainty k = 0.492530
         3         4        16        15     9        0.000000       -0.213237         1    ;  uncertainty k = 0.810068
         3         4        16        15     9      180.000000        3.438673         2    ;  uncertainty k = 0.459946
         3         4        16        15     9        0.000000        0.537389         3    ;  uncertainty k = 0.198651
         3         4        16        15     9      180.000000        0.009300         4    ;  uncertainty k = 0.074075
         3         4        16        17     9        0.000000       -0.213237         1    ;  uncertainty k = 0.810068
         3         4        16        17     9      180.000000        3.438673         2    ;  uncertainty k = 0.459946
         3         4        16        17     9        0.000000        0.537389         3    ;  uncertainty k = 0.198651
         3         4        16        17     9      180.000000        0.009300         4    ;  uncertainty k = 0.074075
         3        10         9         8     9        0.000000       -0.220234         1    ;  uncertainty k = 0.123514
         3        10         9         8     9      180.000000        8.710964         2    ;  uncertainty k = 0.386842
         3        10         9         8     9        0.000000        0.854606         3    ;  uncertainty k = 0.181408
         3        10         9         8     9      180.000000        1.221095         4    ;  uncertainty k = 0.381571
         3        10         9        22     9        0.000000       -0.474658         1    ;  uncertainty k = 0.579371
         3        10         9        22     9      180.000000        7.284749         2    ;  uncertainty k = 0.536465
         3        10         9        22     9        0.000000        0.831366         3    ;  uncertainty k = 0.198180
         3        10         9        22     9      180.000000        0.523151         4    ;  uncertainty k = 0.334924
         3        10        11        12     9        0.000000       -0.220234         1    ;  uncertainty k = 0.123514
         3        10        11        12     9      180.000000        8.710964         2    ;  uncertainty k = 0.386842
         3        10        11        12     9        0.000000        0.854606         3    ;  uncertainty k = 0.181408
         3        10        11        12     9      180.000000        1.221095         4    ;  uncertainty k = 0.381571
         3        10        11        23     9        0.000000       -0.474658         1    ;  uncertainty k = 0.579371
         3        10        11        23     9      180.000000        7.284749         2    ;  uncertainty k = 0.536465
         3        10        11        23     9        0.000000        0.831366         3    ;  uncertainty k = 0.198180
         3        10        11        23     9      180.000000        0.523151         4    ;  uncertainty k = 0.334924
         4         3        10         9     9        0.000000        0.591010         1    ;  uncertainty k = 1.805750
         4         3        10         9     9      180.000000        7.894477         2    ;  uncertainty k = 0.679362
         4         3        10         9     9        0.000000        1.243207         3    ;  uncertainty k = 0.304694
         4         3        10         9     9      180.000000       -0.010285         4    ;  uncertainty k = 0.157515
         4         3        10        11     9        0.000000        0.591010         1    ;  uncertainty k = 1.805750
         4         3        10        11     9      180.000000        7.894477         2    ;  uncertainty k = 0.679362
         4         3        10        11     9        0.000000        1.243207         3    ;  uncertainty k = 0.304694
         4         3        10        11     9      180.000000       -0.010285         4    ;  uncertainty k = 0.157515
         4         5         6        19     9        0.000000        0.323492         1    ;  uncertainty k = 0.573575
         4         5         6        19     9      180.000000        8.427377         2    ;  uncertainty k = 0.712989
         4         5         6        19     9        0.000000        2.103340         3    ;  uncertainty k = 0.347201
         4         5         6        19     9      180.000000        0.966007         4    ;  uncertainty k = 0.424542
         4        16        15        14     9        0.000000        0.244623         1    ;  uncertainty k = 0.364587
         4        16        15        14     9      180.000000        8.777576         2    ;  uncertainty k = 0.506605
         4        16        15        14     9        0.000000        1.204611         3    ;  uncertainty k = 0.317859
         4        16        15        14     9      180.000000        1.930500         4    ;  uncertainty k = 0.212294
         4        16        15        27     9        0.000000       -0.281068         1    ;  uncertainty k = 0.166996
         4        16        15        27     9      180.000000        7.429076         2    ;  uncertainty k = 0.523888
         4        16        15        27     9        0.000000        0.740308         3    ;  uncertainty k = 0.138975
         4        16        15        27     9      180.000000        1.219405         4    ;  uncertainty k = 0.164843
         4        16        17        18     9        0.000000        0.244623         1    ;  uncertainty k = 0.364587
         4        16        17        18     9      180.000000        8.777576         2    ;  uncertainty k = 0.506605
         4        16        17        18     9        0.000000        1.204611         3    ;  uncertainty k = 0.317859
         4        16        17        18     9      180.000000        1.930500         4    ;  uncertainty k = 0.212294
         4        16        17        28     9        0.000000       -0.281068         1    ;  uncertainty k = 0.166996
         4        16        17        28     9      180.000000        7.429076         2    ;  uncertainty k = 0.523888
         4        16        17        28     9        0.000000        0.740308         3    ;  uncertainty k = 0.138975
         4        16        17        28     9      180.000000        1.219405         4    ;  uncertainty k = 0.164843
         5         4         3        10     9        0.000000       -1.330918         1    ;  uncertainty k = 1.030855
         5         4         3        10     9      180.000000        4.116686         2    ;  uncertainty k = 1.789395
         5         4         3        10     9        0.000000        0.214410         3    ;  uncertainty k = 0.953766
         5         4         3        10     9      180.000000        0.469295         4    ;  uncertainty k = 0.573981
         5         4        16        15     9        0.000000        0.577089         1    ;  uncertainty k = 0.771269
         5         4        16        15     9      180.000000        5.298508         2    ;  uncertainty k = 0.334426
         5         4        16        15     9        0.000000        0.480066         3    ;  uncertainty k = 0.134057
         5         4        16        15     9      180.000000        0.149158         4    ;  uncertainty k = 0.112879
         5         4        16        17     9        0.000000        0.577089         1    ;  uncertainty k = 0.771269
         5         4        16        17     9      180.000000        5.298508         2    ;  uncertainty k = 0.334426
         5         4        16        17     9        0.000000        0.480066         3    ;  uncertainty k = 0.134057
         5         4        16        17     9      180.000000        0.149158         4    ;  uncertainty k = 0.112879
         5         6        19        30     9        0.000000       20.010442         1    ;  uncertainty k = 0.259650
         5         6        19        30     9      180.000000       10.182111         2    ;  uncertainty k = 0.370307
         5         6        19        30     9        0.000000        0.832804         3    ;  uncertainty k = 0.221692
         5         6        19        30     9      180.000000       -0.316472         4    ;  uncertainty k = 0.214044
         5         6        19        31     9        0.000000       20.010442         1    ;  uncertainty k = 0.259650
         5         6        19        31     9      180.000000       10.182111         2    ;  uncertainty k = 0.370307
         5         6        19        31     9        0.000000        0.832804         3    ;  uncertainty k = 0.221692
         5         6        19        31     9      180.000000       -0.316472         4    ;  uncertainty k = 0.214044
         6         5         4        16     9        0.000000        0.671482         1    ;  uncertainty k = 0.595294
         6         5         4        16     9      180.000000       15.998898         2    ;  uncertainty k = 0.727265
         6         5         4        16     9        0.000000        2.088123         3    ;  uncertainty k = 0.689736
         6         5         4        16     9      180.000000        1.669828         4    ;  uncertainty k = 0.442946
         7         8         9        10     9        0.000000       -0.153377         1    ;  uncertainty k = 0.578701
         7         8         9        10     9      180.000000       14.995904         2    ;  uncertainty k = 0.610109
         7         8         9        10     9        0.000000       -0.398815         3    ;  uncertainty k = 1.029826
         7         8         9        10     9      180.000000        1.074482         4    ;  uncertainty k = 0.537942
         7         8         9        22     9        0.000000       -0.128712         1    ;  uncertainty k = 0.803757
         7         8         9        22     9      180.000000       11.002765         2    ;  uncertainty k = 0.374572
         7         8         9        22     9        0.000000        1.196604         3    ;  uncertainty k = 0.374732
         7         8         9        22     9      180.000000        1.238242         4    ;  uncertainty k = 0.343614
         7        12        11        10     9        0.000000       -0.153377         1    ;  uncertainty k = 0.578701
         7        12        11        10     9      180.000000       14.995904         2    ;  uncertainty k = 0.610109
         7        12        11        10     9        0.000000       -0.398815         3    ;  uncertainty k = 1.029826
         7        12        11        10     9      180.000000        1.074482         4    ;  uncertainty k = 0.537942
         7        12        11        23     9        0.000000       -0.128712         1    ;  uncertainty k = 0.803757
         7        12        11        23     9      180.000000       11.002765         2    ;  uncertainty k = 0.374572
         7        12        11        23     9        0.000000        1.196604         3    ;  uncertainty k = 0.374732
         7        12        11        23     9      180.000000        1.238242         4    ;  uncertainty k = 0.343614
         8         7        12        11     9        0.000000       -0.202568         1    ;  uncertainty k = 0.627232
         8         7        12        11     9      180.000000        3.822548         2    ;  uncertainty k = 0.783102
         8         7        12        11     9        0.000000        0.362788         3    ;  uncertainty k = 0.432935
         8         7        12        11     9      180.000000        0.619201         4    ;  uncertainty k = 0.350882
         8         7        12        24     9        0.000000        1.077935         1    ;  uncertainty k = 1.356339
         8         7        12        24     9      180.000000        5.219001         2    ;  uncertainty k = 0.836854
         8         7        12        24     9        0.000000        0.927627         3    ;  uncertainty k = 0.332181
         8         7        12        24     9      180.000000        0.511557         4    ;  uncertainty k = 0.217814
         8         9        10        11     9        0.000000       -0.348959         1    ;  uncertainty k = 0.259332
         8         9        10        11     9      180.000000       10.758332         2    ;  uncertainty k = 0.278513
         8         9        10        11     9        0.000000       -0.607997         3    ;  uncertainty k = 0.426576
         8         9        10        11     9      180.000000        1.122719         4    ;  uncertainty k = 0.258730
         9         8         7        12     9        0.000000       -0.202568         1    ;  uncertainty k = 0.627232
         9         8         7        12     9      180.000000        3.822548         2    ;  uncertainty k = 0.783102
         9         8         7        12     9        0.000000        0.362788         3    ;  uncertainty k = 0.432935
         9         8         7        12     9      180.000000        0.619201         4    ;  uncertainty k = 0.350882
         9         8         7        20     9        0.000000        1.177475         1    ;  uncertainty k = 1.402722
         9         8         7        20     9      180.000000        5.954117         2    ;  uncertainty k = 1.039967
         9         8         7        20     9        0.000000        0.582394         3    ;  uncertainty k = 0.400497
         9         8         7        20     9      180.000000        0.470932         4    ;  uncertainty k = 0.437286
         9        10        11        12     9        0.000000       -0.348959         1    ;  uncertainty k = 0.259332
         9        10        11        12     9      180.000000       10.758332         2    ;  uncertainty k = 0.278513
         9        10        11        12     9        0.000000       -0.607997         3    ;  uncertainty k = 0.426576
         9        10        11        12     9      180.000000        1.122719         4    ;  uncertainty k = 0.258730
         9        10        11        23     9        0.000000       -0.256200         1    ;  uncertainty k = 0.417729
         9        10        11        23     9      180.000000        8.574668         2    ;  uncertainty k = 0.385452
         9        10        11        23     9        0.000000        0.896195         3    ;  uncertainty k = 0.260026
         9        10        11        23     9      180.000000        0.976029         4    ;  uncertainty k = 0.184721
        10         3         4        16     9        0.000000       -0.013162         1    ;  uncertainty k = 1.151913
        10         3         4        16     9      180.000000        3.709453         2    ;  uncertainty k = 1.663389
        10         3         4        16     9        0.000000        0.699192         3    ;  uncertainty k = 0.671380
        10         3         4        16     9      180.000000        0.577540         4    ;  uncertainty k = 0.411624
        10         9         8        21     9        0.000000        0.660252         1    ;  uncertainty k = 0.766607
        10         9         8        21     9      180.000000       11.706293         2    ;  uncertainty k = 0.639176
        10         9         8        21     9        0.000000        1.235907         3    ;  uncertainty k = 0.336279
        10         9         8        21     9      180.000000        1.457885         4    ;  uncertainty k = 0.275953
        10        11        12        24     9        0.000000        0.660252         1    ;  uncertainty k = 0.766607
        10        11        12        24     9      180.000000       11.706293         2    ;  uncertainty k = 0.639176
        10        11        12        24     9        0.000000        1.235907         3    ;  uncertainty k = 0.336279
        10        11        12        24     9      180.000000        1.457885         4    ;  uncertainty k = 0.275953
        11        10         9        22     9        0.000000       -0.256200         1    ;  uncertainty k = 0.417729
        11        10         9        22     9      180.000000        8.574668         2    ;  uncertainty k = 0.385452
        11        10         9        22     9        0.000000        0.896195         3    ;  uncertainty k = 0.260026
        11        10         9        22     9      180.000000        0.976029         4    ;  uncertainty k = 0.184721
        11        12         7        20     9        0.000000        1.177475         1    ;  uncertainty k = 1.402722
        11        12         7        20     9      180.000000        5.954117         2    ;  uncertainty k = 1.039967
        11        12         7        20     9        0.000000        0.582394         3    ;  uncertainty k = 0.400497
        11        12         7        20     9      180.000000        0.470932         4    ;  uncertainty k = 0.437286
        12         7         8        21     9        0.000000        1.077935         1    ;  uncertainty k = 1.356339
        12         7         8        21     9      180.000000        5.219001         2    ;  uncertainty k = 0.836854
        12         7         8        21     9        0.000000        0.927627         3    ;  uncertainty k = 0.332181
        12         7         8        21     9      180.000000        0.511557         4    ;  uncertainty k = 0.217814
        13        14        15        16     9        0.000000       -0.085156         1    ;  uncertainty k = 0.101326
        13        14        15        16     9      180.000000       13.800477         2    ;  uncertainty k = 0.268312
        13        14        15        16     9        0.000000       -0.771380         3    ;  uncertainty k = 0.430279
        13        14        15        16     9      180.000000        0.763186         4    ;  uncertainty k = 0.221620
        13        14        15        27     9        0.000000        0.040792         1    ;  uncertainty k = 0.098340
        13        14        15        27     9      180.000000        7.829050         2    ;  uncertainty k = 0.220837
        13        14        15        27     9        0.000000        1.377807         3    ;  uncertainty k = 0.305455
        13        14        15        27     9      180.000000        1.862040         4    ;  uncertainty k = 0.175515
        13        18        17        16     9        0.000000       -0.085156         1    ;  uncertainty k = 0.101326
        13        18        17        16     9      180.000000       13.800477         2    ;  uncertainty k = 0.268312
        13        18        17        16     9        0.000000       -0.771380         3    ;  uncertainty k = 0.430279
        13        18        17        16     9      180.000000        0.763186         4    ;  uncertainty k = 0.221620
        13        18        17        28     9        0.000000        0.040792         1    ;  uncertainty k = 0.098340
        13        18        17        28     9      180.000000        7.829050         2    ;  uncertainty k = 0.220837
        13        18        17        28     9        0.000000        1.377807         3    ;  uncertainty k = 0.305455
        13        18        17        28     9      180.000000        1.862040         4    ;  uncertainty k = 0.175515
        14        13        18        17     9        0.000000       -0.039609         1    ;  uncertainty k = 0.058508
        14        13        18        17     9      180.000000       14.728850         2    ;  uncertainty k = 0.270498
        14        13        18        17     9        0.000000       -1.116008         3    ;  uncertainty k = 0.461534
        14        13        18        17     9      180.000000        0.570638         4    ;  uncertainty k = 0.262850
        14        13        18        29     9        0.000000        0.060280         1    ;  uncertainty k = 0.046484
        14        13        18        29     9      180.000000        7.580498         2    ;  uncertainty k = 0.301291
        14        13        18        29     9        0.000000        1.432917         3    ;  uncertainty k = 0.310397
        14        13        18        29     9      180.000000        1.808653         4    ;  uncertainty k = 0.112983
        14        15        16        17     9        0.000000       -0.228846         1    ;  uncertainty k = 0.099621
        14        15        16        17     9      180.000000       11.519585         2    ;  uncertainty k = 0.245642
        14        15        16        17     9        0.000000       -0.708965         3    ;  uncertainty k = 0.222667
        14        15        16        17     9      180.000000        0.889608         4    ;  uncertainty k = 0.283730
        15        14        13        18     9        0.000000       -0.039609         1    ;  uncertainty k = 0.058508
        15        14        13        18     9      180.000000       14.728850         2    ;  uncertainty k = 0.270498
        15        14        13        18     9        0.000000       -1.116008         3    ;  uncertainty k = 0.461534
        15        14        13        18     9      180.000000        0.570638         4    ;  uncertainty k = 0.262850
        15        14        13        25     9        0.000000        0.018696         1    ;  uncertainty k = 0.067612
        15        14        13        25     9      180.000000        7.446532         2    ;  uncertainty k = 0.246906
        15        14        13        25     9        0.000000        1.463058         3    ;  uncertainty k = 0.239087
        15        14        13        25     9      180.000000        1.786839         4    ;  uncertainty k = 0.161485
        15        16        17        18     9        0.000000       -0.228846         1    ;  uncertainty k = 0.099621
        15        16        17        18     9      180.000000       11.519585         2    ;  uncertainty k = 0.245642
        15        16        17        18     9        0.000000       -0.708965         3    ;  uncertainty k = 0.222667
        15        16        17        18     9      180.000000        0.889608         4    ;  uncertainty k = 0.283730
        15        16        17        28     9        0.000000        0.168842         1    ;  uncertainty k = 0.107557
        15        16        17        28     9      180.000000        7.056492         2    ;  uncertainty k = 0.442030
        15        16        17        28     9        0.000000        1.360330         3    ;  uncertainty k = 0.161756
        15        16        17        28     9      180.000000        1.681350         4    ;  uncertainty k = 0.250468
        16        15        14        26     9        0.000000        0.000276         1    ;  uncertainty k = 0.169363
        16        15        14        26     9      180.000000        7.621252         2    ;  uncertainty k = 0.320005
        16        15        14        26     9        0.000000        1.446360         3    ;  uncertainty k = 0.172877
        16        15        14        26     9      180.000000        1.823296         4    ;  uncertainty k = 0.150540
        16        17        18        29     9        0.000000        0.000276         1    ;  uncertainty k = 0.169363
        16        17        18        29     9      180.000000        7.621252         2    ;  uncertainty k = 0.320005
        16        17        18        29     9        0.000000        1.446360         3    ;  uncertainty k = 0.172877
        16        17        18        29     9      180.000000        1.823296         4    ;  uncertainty k = 0.150540
        17        16        15        27     9        0.000000        0.168842         1    ;  uncertainty k = 0.107557
        17        16        15        27     9      180.000000        7.056492         2    ;  uncertainty k = 0.442030
        17        16        15        27     9        0.000000        1.360330         3    ;  uncertainty k = 0.161756
        17        16        15        27     9      180.000000        1.681350         4    ;  uncertainty k = 0.250468
        17        18        13        25     9        0.000000        0.018696         1    ;  uncertainty k = 0.067612
        17        18        13        25     9      180.000000        7.446532         2    ;  uncertainty k = 0.246906
        17        18        13        25     9        0.000000        1.463058         3    ;  uncertainty k = 0.239087
        17        18        13        25     9      180.000000        1.786839         4    ;  uncertainty k = 0.161485
        18        13        14        26     9        0.000000        0.060280         1    ;  uncertainty k = 0.046484
        18        13        14        26     9      180.000000        7.580498         2    ;  uncertainty k = 0.301291
        18        13        14        26     9        0.000000        1.432917         3    ;  uncertainty k = 0.310397
        18        13        14        26     9      180.000000        1.808653         4    ;  uncertainty k = 0.112983
        20         7         8        21     9        0.000000        0.203350         1    ;  uncertainty k = 1.472163
        20         7         8        21     9      180.000000        7.547925         2    ;  uncertainty k = 0.887296
        20         7         8        21     9        0.000000        0.850649         3    ;  uncertainty k = 0.401765
        20         7         8        21     9      180.000000        0.530964         4    ;  uncertainty k = 0.352576
        20         7        12        24     9        0.000000        0.203350         1    ;  uncertainty k = 1.472163
        20         7        12        24     9      180.000000        7.547925         2    ;  uncertainty k = 0.887296
        20         7        12        24     9        0.000000        0.850649         3    ;  uncertainty k = 0.401765
        20         7        12        24     9      180.000000        0.530964         4    ;  uncertainty k = 0.352576
        21         8         9        22     9        0.000000        0.018312         1    ;  uncertainty k = 0.267541
        21         8         9        22     9      180.000000        9.153740         2    ;  uncertainty k = 0.980093
        21         8         9        22     9        0.000000        0.584771         3    ;  uncertainty k = 0.222186
        21         8         9        22     9      180.000000        0.506771         4    ;  uncertainty k = 0.526727
        23        11        12        24     9        0.000000        0.018312         1    ;  uncertainty k = 0.267541
        23        11        12        24     9      180.000000        9.153740         2    ;  uncertainty k = 0.980093
        23        11        12        24     9        0.000000        0.584771         3    ;  uncertainty k = 0.222186
        23        11        12        24     9      180.000000        0.506771         4    ;  uncertainty k = 0.526727
        25        13        14        26     9        0.000000       -0.086959         1    ;  uncertainty k = 0.086880
        25        13        14        26     9      180.000000        7.713489         2    ;  uncertainty k = 0.410363
        25        13        14        26     9        0.000000       -0.420918         3    ;  uncertainty k = 0.300483
        25        13        14        26     9      180.000000        0.039571         4    ;  uncertainty k = 0.147961
        25        13        18        29     9        0.000000       -0.086959         1    ;  uncertainty k = 0.086880
        25        13        18        29     9      180.000000        7.713489         2    ;  uncertainty k = 0.410363
        25        13        18        29     9        0.000000       -0.420918         3    ;  uncertainty k = 0.300483
        25        13        18        29     9      180.000000        0.039571         4    ;  uncertainty k = 0.147961
        26        14        15        27     9        0.000000       -0.159865         1    ;  uncertainty k = 0.133584
        26        14        15        27     9      180.000000        7.859188         2    ;  uncertainty k = 0.325421
        26        14        15        27     9        0.000000       -0.450050         3    ;  uncertainty k = 0.281622
        26        14        15        27     9      180.000000        0.154829         4    ;  uncertainty k = 0.122641
        28        17        18        29     9        0.000000       -0.159865         1    ;  uncertainty k = 0.133584
        28        17        18        29     9      180.000000        7.859188         2    ;  uncertainty k = 0.325421
        28        17        18        29     9        0.000000       -0.450050         3    ;  uncertainty k = 0.281622
        28        17        18        29     9      180.000000        0.154829         4    ;  uncertainty k = 0.122641

[ dihedrals ] ; impropers
;       ai        aj        ak        al funct           phase               k        pn
         3         2         4        10     4      180.000000       21.798785         2    ;  uncertainty k = 0.209574
         3         4        10         2     4      180.000000       21.798785         2    ;  uncertainty k = 0.209574
         3        10         2         4     4      180.000000       21.798785         2    ;  uncertainty k = 0.209574
         4         3         5        16     4      180.000000       29.536231         2    ;  uncertainty k = 0.033994
         4         5        16         3     4      180.000000       29.536231         2    ;  uncertainty k = 0.033994
         4        16         3         5     4      180.000000       29.536231         2    ;  uncertainty k = 0.033994
         6         1         5        19     4      180.000000       43.323642         2    ;  uncertainty k = 0.063442
         6         5        19         1     4      180.000000       43.323642         2    ;  uncertainty k = 0.063442
         6        19         1         5     4      180.000000       43.323642         2    ;  uncertainty k = 0.063442
         7         8        12        20     4      180.000000       45.138352         2    ;  uncertainty k = 0.164208
         7        12        20         8     4      180.000000       45.138352         2    ;  uncertainty k = 0.164208
         7        20         8        12     4      180.000000       45.138352         2    ;  uncertainty k = 0.164208
         8         7         9        21     4      180.000000        0.681409         2    ;  uncertainty k = 1.111945
         8         9        21         7     4      180.000000        0.681409         2    ;  uncertainty k = 1.111945
         8        21         7         9     4      180.000000        0.681409         2    ;  uncertainty k = 1.111945
         9         8        10        22     4      180.000000        4.438319         2    ;  uncertainty k = 0.496406
         9        10        22         8     4      180.000000        4.438319         2    ;  uncertainty k = 0.496406
         9        22         8        10     4      180.000000        4.438319         2    ;  uncertainty k = 0.496406
        10         3         9        11     4      180.000000        1.973038         2    ;  uncertainty k = 1.555269
        10         9        11         3     4      180.000000        1.973038         2    ;  uncertainty k = 1.555269
        10        11         3         9     4      180.000000        1.973038         2    ;  uncertainty k = 1.555269
        11        10        12        23     4      180.000000        4.438319         2    ;  uncertainty k = 0.496406
        11        12        23        10     4      180.000000        4.438319         2    ;  uncertainty k = 0.496406
        11        23        10        12     4      180.000000        4.438319         2    ;  uncertainty k = 0.496406
        12         7        11        24     4      180.000000        0.681409         2    ;  uncertainty k = 1.111945
        12        11        24         7     4      180.000000        0.681409         2    ;  uncertainty k = 1.111945
        12        24         7        11     4      180.000000        0.681409         2    ;  uncertainty k = 1.111945
        13        14        18        25     4      180.000000        4.673371         2    ;  uncertainty k = 0.190293
        13        18        25        14     4      180.000000        4.673371         2    ;  uncertainty k = 0.190293
        13        25        14        18     4      180.000000        4.673371         2    ;  uncertainty k = 0.190293
        14        13        15        26     4      180.000000        4.310919         2    ;  uncertainty k = 0.072052
        14        15        26        13     4      180.000000        4.310919         2    ;  uncertainty k = 0.072052
        14        26        13        15     4      180.000000        4.310919         2    ;  uncertainty k = 0.072052
        15        14        16        27     4      180.000000        4.275767         2    ;  uncertainty k = 0.092511
        15        16        27        14     4      180.000000        4.275767         2    ;  uncertainty k = 0.092511
        15        27        14        16     4      180.000000        4.275767         2    ;  uncertainty k = 0.092511
        16         4        15        17     4      180.000000       10.064639         2    ;  uncertainty k = 0.105291
        16        15        17         4     4      180.000000       10.064639         2    ;  uncertainty k = 0.105291
        16        17         4        15     4      180.000000       10.064639         2    ;  uncertainty k = 0.105291
        17        16        18        28     4      180.000000        4.275767         2    ;  uncertainty k = 0.092511
        17        18        28        16     4      180.000000        4.275767         2    ;  uncertainty k = 0.092511
        17        28        16        18     4      180.000000        4.275767         2    ;  uncertainty k = 0.092511
        18        13        17        29     4      180.000000        4.310919         2    ;  uncertainty k = 0.072052
        18        17        29        13     4      180.000000        4.310919         2    ;  uncertainty k = 0.072052
        18        29        13        17     4      180.000000        4.310919         2    ;  uncertainty k = 0.072052
        19         6        30        31     4      180.000000        0.390383         2    ;  uncertainty k = 0.522838
        19        30        31         6     4      180.000000        0.390383         2    ;  uncertainty k = 0.522838
        19        31         6        30     4      180.000000        0.390383         2    ;  uncertainty k = 0.522838

[ pairs ]
;       ai        aj funct
         1         4     1
         1        10     1
         1        30     1
         1        31     1
         2         5     1
         2         9     1
         2        11     1
         2        16     1
         2        19     1
         3         6     1
         3         8     1
         3        12     1
         3        15     1
         3        17     1
         3        22     1
         3        23     1
         4         9     1
         4        11     1
         4        14     1
         4        18     1
         4        19     1
         4        27     1
         4        28     1
         5        10     1
         5        15     1
         5        17     1
         5        30     1
         5        31     1
         6        16     1
         7        10     1
         7        22     1
         7        23     1
         8        11     1
         8        24     1
         9        12     1
         9        20     1
         9        23     1
        10        16     1
        10        21     1
        10        24     1
        11        20     1
        11        22     1
        12        21     1
        13        16     1
        13        27     1
        13        28     1
        14        17     1
        14        29     1
        15        18     1
        15        25     1
        15        28     1
        16        26     1
        16        29     1
        17        25     1
        17        27     1
        18        26     1
        20        21     1
        20        24     1
        21        22     1
        23        24     1
        25        26     1
        25        29     1
        26        27     1
        28        29     1
