; ITP file created by ByteFF-joint-25, 2025-07-14 11:28:12.478177

[ atomtypes ]
;name           bonded.type        at.num        mass        charge   ptype           sigma         epsilon
 n0bf                                   7      0.0000       0.00000       A     3.38457e-01     3.93065e-01    ;  uncertainty sigma = 0.000033, epsilon = 0.002906
 n1bf                                   7      0.0000       0.00000       A     3.38476e-01     3.93713e-01    ;  uncertainty sigma = 0.000022, epsilon = 0.001198
 c2bf                                   6      0.0000       0.00000       A     3.31546e-01     4.12861e-01    ;  uncertainty sigma = 0.000016, epsilon = 0.001352
 c3bf                                   6      0.0000       0.00000       A     3.31532e-01     4.12868e-01    ;  uncertainty sigma = 0.000013, epsilon = 0.000681
 n4bf                                   7      0.0000       0.00000       A     3.38467e-01     3.94052e-01    ;  uncertainty sigma = 0.000030, epsilon = 0.001987
 c5bf                                   6      0.0000       0.00000       A     3.31538e-01     4.13311e-01    ;  uncertainty sigma = 0.000020, epsilon = 0.001585
 n6bf                                   7      0.0000       0.00000       A     3.38418e-01     3.93369e-01    ;  uncertainty sigma = 0.000014, epsilon = 0.000777
 c7bf                                   6      0.0000       0.00000       A     3.31526e-01     4.12888e-01    ;  uncertainty sigma = 0.000006, epsilon = 0.000812
 c8bf                                   6      0.0000       0.00000       A     3.31537e-01     4.13796e-01    ;  uncertainty sigma = 0.000009, epsilon = 0.000926
 c9bf                                   6      0.0000       0.00000       A     3.31537e-01     4.13239e-01    ;  uncertainty sigma = 0.000014, epsilon = 0.000961
 c10bf                                  6      0.0000       0.00000       A     3.31536e-01     4.13531e-01    ;  uncertainty sigma = 0.000011, epsilon = 0.001531
 c11bf                                  6      0.0000       0.00000       A     3.31496e-01     4.13673e-01    ;  uncertainty sigma = 0.000016, epsilon = 0.001113
 c12bf                                  6      0.0000       0.00000       A     3.31522e-01     4.13270e-01    ;  uncertainty sigma = 0.000003, epsilon = 0.000629
 c13bf                                  6      0.0000       0.00000       A     3.31517e-01     4.13353e-01    ;  uncertainty sigma = 0.000004, epsilon = 0.000645
 c14bf                                  6      0.0000       0.00000       A     3.31525e-01     4.13707e-01    ;  uncertainty sigma = 0.000004, epsilon = 0.000846
 c15bf                                  6      0.0000       0.00000       A     3.31546e-01     4.13441e-01    ;  uncertainty sigma = 0.000018, epsilon = 0.000958
 c16bf                                  6      0.0000       0.00000       A     3.31525e-01     4.13707e-01    ;  uncertainty sigma = 0.000004, epsilon = 0.000846
 c17bf                                  6      0.0000       0.00000       A     3.31517e-01     4.13353e-01    ;  uncertainty sigma = 0.000004, epsilon = 0.000645
 n18bf                                  7      0.0000       0.00000       A     3.36801e-01     4.68954e-01    ;  uncertainty sigma = 0.000066, epsilon = 0.001925
 c19bf                                  6      0.0000       0.00000       A     3.39782e-01     4.50205e-01    ;  uncertainty sigma = 0.000007, epsilon = 0.001464
 cl20bf                                17      0.0000       0.00000       A     3.46622e-01     1.10414e+00    ;  uncertainty sigma = 0.000026, epsilon = 0.001543
 f21bf                                  9      0.0000       0.00000       A     3.03439e-01     3.47939e-01    ;  uncertainty sigma = 0.000014, epsilon = 0.000730
 f22bf                                  9      0.0000       0.00000       A     3.03422e-01     3.47876e-01    ;  uncertainty sigma = 0.000009, epsilon = 0.001355
 f23bf                                  9      0.0000       0.00000       A     3.03422e-01     3.47876e-01    ;  uncertainty sigma = 0.000009, epsilon = 0.001355
 f24bf                                  9      0.0000       0.00000       A     3.03422e-01     3.47876e-01    ;  uncertainty sigma = 0.000009, epsilon = 0.001355
 h25bf                                  1      0.0000       0.00000       A     2.62559e-01     6.69551e-02    ;  uncertainty sigma = 0.000016, epsilon = 0.000756
 h26bf                                  1      0.0000       0.00000       A     2.62571e-01     6.69389e-02    ;  uncertainty sigma = 0.000019, epsilon = 0.000690
 h27bf                                  1      0.0000       0.00000       A     2.62567e-01     6.70835e-02    ;  uncertainty sigma = 0.000012, epsilon = 0.000443
 h28bf                                  1      0.0000       0.00000       A     2.62564e-01     6.70273e-02    ;  uncertainty sigma = 0.000012, epsilon = 0.000610
 h29bf                                  1      0.0000       0.00000       A     2.62564e-01     6.70273e-02    ;  uncertainty sigma = 0.000012, epsilon = 0.000610
 h30bf                                  1      0.0000       0.00000       A     2.62567e-01     6.70835e-02    ;  uncertainty sigma = 0.000012, epsilon = 0.000443
 h31bf                                  1      0.0000       0.00000       A     1.10728e-01     4.07631e-02    ;  uncertainty sigma = 0.000034, epsilon = 0.001087
 h32bf                                  1      0.0000       0.00000       A     1.10728e-01     4.07630e-02    ;  uncertainty sigma = 0.000034, epsilon = 0.001087

[ moleculetype ]
;name             nrexcl
 MOL                   3

[ atoms ]
;       nr            type      resi   res      atom      cgnr      charge          mass ; qtot
         1            n0bf         1   UNL        n0         1    -0.40685       14.0070 ; qtot   -0.407
         2            n1bf         1   UNL        n1         2    -0.24638       14.0070 ; qtot   -0.653
         3            c2bf         1   UNL        c2         3     0.24333       12.0110 ; qtot   -0.410
         4            c3bf         1   UNL        c3         4     0.47576       12.0110 ; qtot    0.066
         5            n4bf         1   UNL        n4         5    -0.73822       14.0070 ; qtot   -0.672
         6            c5bf         1   UNL        c5         6     0.82167       12.0110 ; qtot    0.149
         7            n6bf         1   UNL        n6         7    -0.61488       14.0070 ; qtot   -0.466
         8            c7bf         1   UNL        c7         8     0.51615       12.0110 ; qtot    0.051
         9            c8bf         1   UNL        c8         9    -0.18854       12.0110 ; qtot   -0.138
        10            c9bf         1   UNL        c9        10    -0.09005       12.0110 ; qtot   -0.228
        11           c10bf         1   UNL       c10        11    -0.14908       12.0110 ; qtot   -0.377
        12           c11bf         1   UNL       c11        12     0.32860       12.0110 ; qtot   -0.048
        13           c12bf         1   UNL       c12        13     0.14140       12.0110 ; qtot    0.093
        14           c13bf         1   UNL       c13        14    -0.17230       12.0110 ; qtot   -0.079
        15           c14bf         1   UNL       c14        15    -0.06478       12.0110 ; qtot   -0.144
        16           c15bf         1   UNL       c15        16    -0.18367       12.0110 ; qtot   -0.328
        17           c16bf         1   UNL       c16        17    -0.06478       12.0110 ; qtot   -0.393
        18           c17bf         1   UNL       c17        18    -0.17230       12.0110 ; qtot   -0.565
        19           n18bf         1   UNL       n18        19    -0.92625       14.0070 ; qtot   -1.491
        20           c19bf         1   UNL       c19        20     0.61789       12.0110 ; qtot   -0.873
        21          cl20bf         1   UNL      cl20        21    -0.15169       35.4530 ; qtot   -1.025
        22           f21bf         1   UNL       f21        22    -0.14344       18.9980 ; qtot   -1.168
        23           f22bf         1   UNL       f22        23    -0.21893       18.9980 ; qtot   -1.387
        24           f23bf         1   UNL       f23        24    -0.21893       18.9980 ; qtot   -1.606
        25           f24bf         1   UNL       f24        25    -0.21893       18.9980 ; qtot   -1.825
        26           h25bf         1   UNL       h25        26     0.17352        1.0080 ; qtot   -1.652
        27           h26bf         1   UNL       h26        27     0.17972        1.0080 ; qtot   -1.472
        28           h27bf         1   UNL       h27        28     0.15454        1.0080 ; qtot   -1.317
        29           h28bf         1   UNL       h28        29     0.15052        1.0080 ; qtot   -1.167
        30           h29bf         1   UNL       h29        30     0.15052        1.0080 ; qtot   -1.016
        31           h30bf         1   UNL       h30        31     0.15454        1.0080 ; qtot   -0.862
        32           h31bf         1   UNL       h31        32     0.43092        1.0080 ; qtot   -0.431
        33           h32bf         1   UNL       h32        33     0.43092        1.0080 ; qtot    0.000

[ bonds ]
;       ai        aj funct               r               k
         1         2     1        0.130778   361370.603955    ;  uncertainty r = 0.000176, k = 32.459970
         1         6     1        0.135400   366916.906592    ;  uncertainty r = 0.000241, k = 17.361955
         2         3     1        0.133404   333145.688281    ;  uncertainty r = 0.000457, k = 13.959721
         3         4     1        0.140383   325356.895459    ;  uncertainty r = 0.000214, k = 13.764999
         3        10     1        0.147773   271239.521533    ;  uncertainty r = 0.000153, k = 18.586667
         4         5     1        0.133035   420127.381152    ;  uncertainty r = 0.000119, k = 20.872352
         4        16     1        0.147693   267252.948926    ;  uncertainty r = 0.000153, k = 2.859943
         5         6     1        0.136102   532915.906348    ;  uncertainty r = 0.000140, k = 13.557526
         6        19     1        0.140058   625071.519727    ;  uncertainty r = 0.000422, k = 22.781256
         7         8     1        0.131925   370358.108691    ;  uncertainty r = 0.000063, k = 10.926306
         7        12     1        0.132076   403536.508545    ;  uncertainty r = 0.000099, k = 7.447590
         8         9     1        0.139704   350876.333154    ;  uncertainty r = 0.000053, k = 4.368765
         8        21     1        0.175361   188638.209033    ;  uncertainty r = 0.000087, k = 3.361570
         9        10     1        0.139021   371098.046436    ;  uncertainty r = 0.000074, k = 13.816843
         9        26     1        0.108713   339167.670654    ;  uncertainty r = 0.000020, k = 1.743865
        10        11     1        0.139379   360882.819629    ;  uncertainty r = 0.000058, k = 8.708038
        11        12     1        0.138546   334421.701025    ;  uncertainty r = 0.000099, k = 4.395446
        11        27     1        0.108631   336023.950342    ;  uncertainty r = 0.000034, k = 1.465028
        12        20     1        0.149136   224435.286230    ;  uncertainty r = 0.000093, k = 5.124759
        13        14     1        0.139044   362655.682373    ;  uncertainty r = 0.000010, k = 1.233216
        13        18     1        0.139044   362655.682373    ;  uncertainty r = 0.000010, k = 1.233216
        13        22     1        0.135626   340851.102441    ;  uncertainty r = 0.000032, k = 2.026568
        14        15     1        0.139212   368817.837939    ;  uncertainty r = 0.000036, k = 3.203449
        14        28     1        0.108807   336192.571875    ;  uncertainty r = 0.000018, k = 0.481920
        15        16     1        0.140084   345582.720215    ;  uncertainty r = 0.000027, k = 1.898945
        15        29     1        0.108630   332812.122559    ;  uncertainty r = 0.000021, k = 0.888838
        16        17     1        0.140084   345582.720215    ;  uncertainty r = 0.000027, k = 1.898945
        17        18     1        0.139212   368817.837939    ;  uncertainty r = 0.000036, k = 3.203449
        17        30     1        0.108630   332812.122559    ;  uncertainty r = 0.000021, k = 0.888838
        18        31     1        0.108807   336192.571875    ;  uncertainty r = 0.000018, k = 0.481920
        19        32     1        0.102196   439793.713379    ;  uncertainty r = 0.000076, k = 4.088413
        19        33     1        0.102196   439793.713379    ;  uncertainty r = 0.000076, k = 4.088413
        20        23     1        0.134536   290209.150342    ;  uncertainty r = 0.000036, k = 3.264481
        20        24     1        0.134536   290209.150342    ;  uncertainty r = 0.000036, k = 3.264481
        20        25     1        0.134536   290209.150342    ;  uncertainty r = 0.000036, k = 3.264481

[ angles ]
;       ai        aj        ak funct           theta             cth
         1         2         3     1      119.729774      622.715964    ;  uncertainty theta = 0.005932, k = 0.080640
         1         6         5     1      125.473976      667.166559    ;  uncertainty theta = 0.004399, k = 0.260032
         1         6        19     1      122.667969      687.926313    ;  uncertainty theta = 0.008559, k = 0.200162
         2         1         6     1      112.117577      575.313599    ;  uncertainty theta = 0.004635, k = 0.210273
         2         3         4     1      122.586403      527.766086    ;  uncertainty theta = 0.005991, k = 0.156250
         2         3        10     1      115.828758      444.267815    ;  uncertainty theta = 0.008567, k = 0.183195
         3         4         5     1      120.081406      517.500935    ;  uncertainty theta = 0.005658, k = 0.319257
         3         4        16     1      120.699974      337.967107    ;  uncertainty theta = 0.005494, k = 0.286488
         3        10         9     1      120.703781      376.348744    ;  uncertainty theta = 0.008371, k = 0.133981
         3        10        11     1      120.636253      379.766599    ;  uncertainty theta = 0.006848, k = 0.093875
         4         3        10     1      120.704910      357.945075    ;  uncertainty theta = 0.005264, k = 0.241648
         4         5         6     1      117.333641      426.968275    ;  uncertainty theta = 0.017496, k = 0.318744
         4        16        15     1      118.699478      363.589383    ;  uncertainty theta = 0.002794, k = 0.154673
         4        16        17     1      118.699478      363.589383    ;  uncertainty theta = 0.002794, k = 0.154673
         5         4        16     1      120.500366      471.375967    ;  uncertainty theta = 0.005801, k = 0.133227
         5         6        19     1      125.763504      798.173718    ;  uncertainty theta = 0.006180, k = 0.064188
         6        19        32     1      118.262405      443.776577    ;  uncertainty theta = 0.004875, k = 0.045402
         6        19        33     1      118.262405      443.776577    ;  uncertainty theta = 0.004875, k = 0.045402
         7         8         9     1      124.798096      563.958842    ;  uncertainty theta = 0.004386, k = 0.231158
         7         8        21     1      117.400711      515.533779    ;  uncertainty theta = 0.004984, k = 0.124144
         7        12        11     1      126.059891      645.209752    ;  uncertainty theta = 0.003691, k = 0.075028
         7        12        20     1      108.991798      394.667790    ;  uncertainty theta = 0.004943, k = 0.174888
         8         7        12     1      114.828102      347.582372    ;  uncertainty theta = 0.007603, k = 0.266987
         8         9        10     1      115.827538      490.484812    ;  uncertainty theta = 0.004404, k = 0.125636
         8         9        26     1      123.113991      291.733958    ;  uncertainty theta = 0.001029, k = 0.132667
         9         8        21     1      120.034950      399.469915    ;  uncertainty theta = 0.005120, k = 0.196942
         9        10        11     1      119.370934      437.391374    ;  uncertainty theta = 0.005238, k = 0.164371
        10         9        26     1      121.108353      267.126591    ;  uncertainty theta = 0.002965, k = 0.085252
        10        11        12     1      117.628151      489.467732    ;  uncertainty theta = 0.001529, k = 0.178765
        10        11        27     1      120.572350      267.307346    ;  uncertainty theta = 0.002809, k = 0.055342
        11        12        20     1      117.464676      343.055408    ;  uncertainty theta = 0.006181, k = 0.149106
        12        11        27     1      120.983566      279.748723    ;  uncertainty theta = 0.002225, k = 0.120742
        12        20        23     1      111.830605      593.681484    ;  uncertainty theta = 0.002263, k = 0.088106
        12        20        24     1      111.830605      593.681484    ;  uncertainty theta = 0.002263, k = 0.088106
        12        20        25     1      111.830605      593.681484    ;  uncertainty theta = 0.002263, k = 0.088106
        13        14        15     1      118.019653      491.103640    ;  uncertainty theta = 0.002382, k = 0.081068
        13        14        28     1      120.998985      283.639620    ;  uncertainty theta = 0.001240, k = 0.031241
        13        18        17     1      118.019653      491.103640    ;  uncertainty theta = 0.002382, k = 0.081068
        13        18        31     1      120.998985      283.639620    ;  uncertainty theta = 0.001240, k = 0.031241
        14        13        18     1      121.617393      366.360064    ;  uncertainty theta = 0.004526, k = 0.135902
        14        13        22     1      119.126053      518.336573    ;  uncertainty theta = 0.001495, k = 0.045458
        14        15        16     1      121.719009      523.238006    ;  uncertainty theta = 0.002539, k = 0.049620
        14        15        29     1      119.546707      288.991528    ;  uncertainty theta = 0.001599, k = 0.052113
        15        14        28     1      121.429825      278.975427    ;  uncertainty theta = 0.001236, k = 0.024406
        15        16        17     1      121.051613      446.010052    ;  uncertainty theta = 0.004550, k = 0.089196
        16        15        29     1      118.686623      274.478310    ;  uncertainty theta = 0.002634, k = 0.053557
        16        17        18     1      121.719009      523.238006    ;  uncertainty theta = 0.002539, k = 0.049620
        16        17        30     1      118.686623      274.478310    ;  uncertainty theta = 0.002634, k = 0.053557
        17        18        31     1      121.429825      278.975427    ;  uncertainty theta = 0.001236, k = 0.024406
        18        13        22     1      119.126053      518.336573    ;  uncertainty theta = 0.001495, k = 0.045458
        18        17        30     1      119.546707      288.991528    ;  uncertainty theta = 0.001599, k = 0.052113
        23        20        24     1      108.652451      789.428279    ;  uncertainty theta = 0.001409, k = 0.017387
        23        20        25     1      108.652451      789.428279    ;  uncertainty theta = 0.001409, k = 0.017387
        24        20        25     1      108.652451      789.428151    ;  uncertainty theta = 0.001409, k = 0.017387
        32        19        33     1      107.926712      266.053522    ;  uncertainty theta = 0.004368, k = 0.064560

[ dihedrals ] ; propers for gromacs 4.5 or higher, use funct 9
;       ai        aj        ak        al funct           phase               k        pn
         1         2         3         4     9        0.000000        1.823002         1    ;  uncertainty k = 1.472993
         1         2         3         4     9      180.000000       12.230958         2    ;  uncertainty k = 0.304391
         1         2         3         4     9        0.000000        2.108607         3    ;  uncertainty k = 0.320048
         1         2         3         4     9      180.000000        1.348961         4    ;  uncertainty k = 0.135698
         1         2         3        10     9        0.000000        0.939865         1    ;  uncertainty k = 0.868753
         1         2         3        10     9      180.000000       17.639928         2    ;  uncertainty k = 0.177558
         1         2         3        10     9        0.000000        2.974017         3    ;  uncertainty k = 0.358988
         1         2         3        10     9      180.000000        1.590552         4    ;  uncertainty k = 0.349517
         1         6         5         4     9        0.000000       -0.159502         1    ;  uncertainty k = 2.061285
         1         6         5         4     9      180.000000        3.831664         2    ;  uncertainty k = 1.625385
         1         6         5         4     9        0.000000        1.173384         3    ;  uncertainty k = 0.518495
         1         6         5         4     9      180.000000        0.562840         4    ;  uncertainty k = 0.479066
         1         6        19        32     9        0.000000       13.129111         1    ;  uncertainty k = 0.629667
         1         6        19        32     9      180.000000        9.756533         2    ;  uncertainty k = 0.245450
         1         6        19        32     9        0.000000        0.714123         3    ;  uncertainty k = 0.172606
         1         6        19        32     9      180.000000       -0.412217         4    ;  uncertainty k = 0.285718
         1         6        19        33     9        0.000000       13.129111         1    ;  uncertainty k = 0.629667
         1         6        19        33     9      180.000000        9.756533         2    ;  uncertainty k = 0.245450
         1         6        19        33     9        0.000000        0.714123         3    ;  uncertainty k = 0.172606
         1         6        19        33     9      180.000000       -0.412217         4    ;  uncertainty k = 0.285718
         2         1         6         5     9        0.000000        1.968898         1    ;  uncertainty k = 1.303642
         2         1         6         5     9      180.000000        5.539831         2    ;  uncertainty k = 1.934359
         2         1         6         5     9        0.000000        1.215088         3    ;  uncertainty k = 0.650296
         2         1         6         5     9      180.000000        1.068040         4    ;  uncertainty k = 0.490493
         2         1         6        19     9        0.000000        2.793109         1    ;  uncertainty k = 1.767061
         2         1         6        19     9      180.000000       10.325178         2    ;  uncertainty k = 0.754001
         2         1         6        19     9        0.000000        2.692809         3    ;  uncertainty k = 0.395811
         2         1         6        19     9      180.000000        0.982486         4    ;  uncertainty k = 0.243420
         2         3         4         5     9        0.000000       -0.724623         1    ;  uncertainty k = 0.742684
         2         3         4         5     9      180.000000        3.505224         2    ;  uncertainty k = 1.060485
         2         3         4         5     9        0.000000       -0.443361         3    ;  uncertainty k = 1.027697
         2         3         4         5     9      180.000000        0.555454         4    ;  uncertainty k = 0.603527
         2         3         4        16     9        0.000000       -1.397438         1    ;  uncertainty k = 1.182347
         2         3         4        16     9      180.000000        2.387099         2    ;  uncertainty k = 0.824243
         2         3         4        16     9        0.000000        0.114091         3    ;  uncertainty k = 0.846849
         2         3         4        16     9      180.000000        0.840436         4    ;  uncertainty k = 0.478765
         2         3        10         9     9        0.000000       -0.320004         1    ;  uncertainty k = 0.518637
         2         3        10         9     9      180.000000        4.568495         2    ;  uncertainty k = 0.202169
         2         3        10         9     9        0.000000        0.462987         3    ;  uncertainty k = 0.130921
         2         3        10         9     9      180.000000        0.078926         4    ;  uncertainty k = 0.053839
         2         3        10        11     9        0.000000       -0.013461         1    ;  uncertainty k = 0.608520
         2         3        10        11     9      180.000000        4.677764         2    ;  uncertainty k = 0.239234
         2         3        10        11     9        0.000000        0.462148         3    ;  uncertainty k = 0.115310
         2         3        10        11     9      180.000000        0.098059         4    ;  uncertainty k = 0.026866
         3         2         1         6     9        0.000000       -3.202929         1    ;  uncertainty k = 3.421422
         3         2         1         6     9      180.000000       31.255325         2    ;  uncertainty k = 0.526859
         3         2         1         6     9        0.000000       -0.044992         3    ;  uncertainty k = 1.310391
         3         2         1         6     9      180.000000       -0.533287         4    ;  uncertainty k = 1.473186
         3         4         5         6     9        0.000000        0.309448         1    ;  uncertainty k = 0.969618
         3         4         5         6     9      180.000000       13.827909         2    ;  uncertainty k = 0.562307
         3         4         5         6     9        0.000000        0.416479         3    ;  uncertainty k = 0.871449
         3         4         5         6     9      180.000000        1.377922         4    ;  uncertainty k = 0.479714
         3         4        16        15     9        0.000000       -0.191691         1    ;  uncertainty k = 0.933020
         3         4        16        15     9      180.000000        3.682261         2    ;  uncertainty k = 0.287616
         3         4        16        15     9        0.000000        0.550751         3    ;  uncertainty k = 0.139974
         3         4        16        15     9      180.000000        0.008895         4    ;  uncertainty k = 0.103222
         3         4        16        17     9        0.000000       -0.191691         1    ;  uncertainty k = 0.933020
         3         4        16        17     9      180.000000        3.682261         2    ;  uncertainty k = 0.287616
         3         4        16        17     9        0.000000        0.550751         3    ;  uncertainty k = 0.139974
         3         4        16        17     9      180.000000        0.008895         4    ;  uncertainty k = 0.103222
         3        10         9         8     9        0.000000        0.229977         1    ;  uncertainty k = 0.299729
         3        10         9         8     9      180.000000        9.494063         2    ;  uncertainty k = 0.576793
         3        10         9         8     9        0.000000        1.076399         3    ;  uncertainty k = 0.244923
         3        10         9         8     9      180.000000        1.723386         4    ;  uncertainty k = 0.223582
         3        10         9        26     9        0.000000        0.007614         1    ;  uncertainty k = 0.443160
         3        10         9        26     9      180.000000        7.557974         2    ;  uncertainty k = 0.491745
         3        10         9        26     9        0.000000        0.822729         3    ;  uncertainty k = 0.176670
         3        10         9        26     9      180.000000        1.251966         4    ;  uncertainty k = 0.128631
         3        10        11        12     9        0.000000        0.231745         1    ;  uncertainty k = 0.166387
         3        10        11        12     9      180.000000        8.229375         2    ;  uncertainty k = 0.558972
         3        10        11        12     9        0.000000        1.097628         3    ;  uncertainty k = 0.205298
         3        10        11        12     9      180.000000        1.766661         4    ;  uncertainty k = 0.187711
         3        10        11        27     9        0.000000        0.014731         1    ;  uncertainty k = 0.463397
         3        10        11        27     9      180.000000        7.373468         2    ;  uncertainty k = 0.376258
         3        10        11        27     9        0.000000        0.807302         3    ;  uncertainty k = 0.131365
         3        10        11        27     9      180.000000        1.269533         4    ;  uncertainty k = 0.104545
         4         3        10         9     9        0.000000        0.414815         1    ;  uncertainty k = 0.989709
         4         3        10         9     9      180.000000        2.494866         2    ;  uncertainty k = 0.321073
         4         3        10         9     9        0.000000        0.591616         3    ;  uncertainty k = 0.194414
         4         3        10         9     9      180.000000       -0.011062         4    ;  uncertainty k = 0.094237
         4         3        10        11     9        0.000000        0.555721         1    ;  uncertainty k = 0.789260
         4         3        10        11     9      180.000000        2.577849         2    ;  uncertainty k = 0.344901
         4         3        10        11     9        0.000000        0.568622         3    ;  uncertainty k = 0.268289
         4         3        10        11     9      180.000000        0.008050         4    ;  uncertainty k = 0.096015
         4         5         6        19     9        0.000000        0.323492         1    ;  uncertainty k = 0.573575
         4         5         6        19     9      180.000000        8.427377         2    ;  uncertainty k = 0.712989
         4         5         6        19     9        0.000000        2.103340         3    ;  uncertainty k = 0.347201
         4         5         6        19     9      180.000000        0.966007         4    ;  uncertainty k = 0.424542
         4        16        15        14     9        0.000000        0.230849         1    ;  uncertainty k = 0.383332
         4        16        15        14     9      180.000000        8.773955         2    ;  uncertainty k = 0.381991
         4        16        15        14     9        0.000000        1.169723         3    ;  uncertainty k = 0.201002
         4        16        15        14     9      180.000000        1.933074         4    ;  uncertainty k = 0.181814
         4        16        15        29     9        0.000000       -0.315018         1    ;  uncertainty k = 0.183957
         4        16        15        29     9      180.000000        7.405388         2    ;  uncertainty k = 0.518819
         4        16        15        29     9        0.000000        0.741957         3    ;  uncertainty k = 0.133402
         4        16        15        29     9      180.000000        1.213590         4    ;  uncertainty k = 0.151769
         4        16        17        18     9        0.000000        0.230849         1    ;  uncertainty k = 0.383332
         4        16        17        18     9      180.000000        8.773955         2    ;  uncertainty k = 0.381991
         4        16        17        18     9        0.000000        1.169723         3    ;  uncertainty k = 0.201002
         4        16        17        18     9      180.000000        1.933074         4    ;  uncertainty k = 0.181814
         4        16        17        30     9        0.000000       -0.315018         1    ;  uncertainty k = 0.183957
         4        16        17        30     9      180.000000        7.405388         2    ;  uncertainty k = 0.518819
         4        16        17        30     9        0.000000        0.741957         3    ;  uncertainty k = 0.133402
         4        16        17        30     9      180.000000        1.213590         4    ;  uncertainty k = 0.151769
         5         4         3        10     9        0.000000        0.129938         1    ;  uncertainty k = 0.884394
         5         4         3        10     9      180.000000        3.794409         2    ;  uncertainty k = 1.022099
         5         4         3        10     9        0.000000        0.153857         3    ;  uncertainty k = 0.485806
         5         4         3        10     9      180.000000        0.687366         4    ;  uncertainty k = 0.630815
         5         4        16        15     9        0.000000        0.754198         1    ;  uncertainty k = 0.872345
         5         4        16        15     9      180.000000        5.472757         2    ;  uncertainty k = 0.349700
         5         4        16        15     9        0.000000        0.484971         3    ;  uncertainty k = 0.142576
         5         4        16        15     9      180.000000        0.157555         4    ;  uncertainty k = 0.111757
         5         4        16        17     9        0.000000        0.754198         1    ;  uncertainty k = 0.872345
         5         4        16        17     9      180.000000        5.472757         2    ;  uncertainty k = 0.349700
         5         4        16        17     9        0.000000        0.484971         3    ;  uncertainty k = 0.142576
         5         4        16        17     9      180.000000        0.157555         4    ;  uncertainty k = 0.111757
         5         6        19        32     9        0.000000       20.010442         1    ;  uncertainty k = 0.259650
         5         6        19        32     9      180.000000       10.182111         2    ;  uncertainty k = 0.370307
         5         6        19        32     9        0.000000        0.832804         3    ;  uncertainty k = 0.221692
         5         6        19        32     9      180.000000       -0.316472         4    ;  uncertainty k = 0.214044
         5         6        19        33     9        0.000000       20.010442         1    ;  uncertainty k = 0.259650
         5         6        19        33     9      180.000000       10.182111         2    ;  uncertainty k = 0.370307
         5         6        19        33     9        0.000000        0.832804         3    ;  uncertainty k = 0.221692
         5         6        19        33     9      180.000000       -0.316472         4    ;  uncertainty k = 0.214044
         6         5         4        16     9        0.000000        0.640948         1    ;  uncertainty k = 0.637409
         6         5         4        16     9      180.000000       16.055894         2    ;  uncertainty k = 0.730420
         6         5         4        16     9        0.000000        2.092061         3    ;  uncertainty k = 0.721693
         6         5         4        16     9      180.000000        1.633967         4    ;  uncertainty k = 0.454218
         7         8         9        10     9        0.000000       -0.170191         1    ;  uncertainty k = 0.243651
         7         8         9        10     9      180.000000        9.803500         2    ;  uncertainty k = 0.596441
         7         8         9        10     9        0.000000       -0.362527         3    ;  uncertainty k = 0.531546
         7         8         9        10     9      180.000000        1.175738         4    ;  uncertainty k = 0.241891
         7         8         9        26     9        0.000000       -0.142466         1    ;  uncertainty k = 0.393040
         7         8         9        26     9      180.000000        6.198691         2    ;  uncertainty k = 0.912178
         7         8         9        26     9        0.000000        1.151849         3    ;  uncertainty k = 0.094997
         7         8         9        26     9      180.000000        1.602911         4    ;  uncertainty k = 0.235686
         7        12        11        10     9        0.000000       -0.308823         1    ;  uncertainty k = 0.320173
         7        12        11        10     9      180.000000       12.991532         2    ;  uncertainty k = 0.305978
         7        12        11        10     9        0.000000       -0.564607         3    ;  uncertainty k = 0.629106
         7        12        11        10     9      180.000000        1.007311         4    ;  uncertainty k = 0.151758
         7        12        11        27     9        0.000000       -0.082184         1    ;  uncertainty k = 0.504353
         7        12        11        27     9      180.000000        8.129160         2    ;  uncertainty k = 0.465993
         7        12        11        27     9        0.000000        1.115081         3    ;  uncertainty k = 0.183539
         7        12        11        27     9      180.000000        1.698929         4    ;  uncertainty k = 0.222486
         7        12        20        23     9        0.000000        6.797648         1    ;  uncertainty k = 0.964585
         7        12        20        23     9      180.000000        3.672933         2    ;  uncertainty k = 0.247799
         7        12        20        23     9        0.000000        0.707844         3    ;  uncertainty k = 0.065752
         7        12        20        23     9      180.000000        0.131386         4    ;  uncertainty k = 0.118095
         7        12        20        24     9        0.000000        6.797648         1    ;  uncertainty k = 0.964585
         7        12        20        24     9      180.000000        3.672933         2    ;  uncertainty k = 0.247799
         7        12        20        24     9        0.000000        0.707844         3    ;  uncertainty k = 0.065752
         7        12        20        24     9      180.000000        0.131386         4    ;  uncertainty k = 0.118095
         7        12        20        25     9        0.000000        6.797648         1    ;  uncertainty k = 0.964585
         7        12        20        25     9      180.000000        3.672933         2    ;  uncertainty k = 0.247799
         7        12        20        25     9        0.000000        0.707844         3    ;  uncertainty k = 0.065752
         7        12        20        25     9      180.000000        0.131386         4    ;  uncertainty k = 0.118095
         8         7        12        11     9        0.000000       -0.198188         1    ;  uncertainty k = 0.258295
         8         7        12        11     9      180.000000       13.129992         2    ;  uncertainty k = 0.581766
         8         7        12        11     9        0.000000        1.221289         3    ;  uncertainty k = 0.281700
         8         7        12        11     9      180.000000        1.284545         4    ;  uncertainty k = 0.259761
         8         7        12        20     9        0.000000        0.466819         1    ;  uncertainty k = 0.975181
         8         7        12        20     9      180.000000       15.660294         2    ;  uncertainty k = 0.750268
         8         7        12        20     9        0.000000        2.235835         3    ;  uncertainty k = 0.396603
         8         7        12        20     9      180.000000        1.761908         4    ;  uncertainty k = 0.597146
         8         9        10        11     9        0.000000       -0.083800         1    ;  uncertainty k = 0.328876
         8         9        10        11     9      180.000000       12.185425         2    ;  uncertainty k = 0.478570
         8         9        10        11     9        0.000000       -0.784891         3    ;  uncertainty k = 0.165207
         8         9        10        11     9      180.000000        0.913460         4    ;  uncertainty k = 0.313019
         9         8         7        12     9        0.000000       -0.454339         1    ;  uncertainty k = 0.711625
         9         8         7        12     9      180.000000        9.866403         2    ;  uncertainty k = 0.710819
         9         8         7        12     9        0.000000        1.750574         3    ;  uncertainty k = 0.613814
         9         8         7        12     9      180.000000        1.108992         4    ;  uncertainty k = 0.188890
         9        10        11        12     9        0.000000        0.127267         1    ;  uncertainty k = 0.556959
         9        10        11        12     9      180.000000       10.609949         2    ;  uncertainty k = 0.308329
         9        10        11        12     9        0.000000       -0.562443         3    ;  uncertainty k = 0.245686
         9        10        11        12     9      180.000000        0.947811         4    ;  uncertainty k = 0.268825
         9        10        11        27     9        0.000000        0.401840         1    ;  uncertainty k = 0.226414
         9        10        11        27     9      180.000000        7.310735         2    ;  uncertainty k = 0.580660
         9        10        11        27     9        0.000000        1.470101         3    ;  uncertainty k = 0.249930
         9        10        11        27     9      180.000000        1.651031         4    ;  uncertainty k = 0.236481
        10         3         4        16     9        0.000000       -0.177290         1    ;  uncertainty k = 0.933024
        10         3         4        16     9      180.000000        3.597701         2    ;  uncertainty k = 0.378252
        10         3         4        16     9        0.000000        0.784348         3    ;  uncertainty k = 0.332192
        10         3         4        16     9      180.000000        0.415848         4    ;  uncertainty k = 0.289809
        10         9         8        21     9        0.000000       -0.066343         1    ;  uncertainty k = 0.239123
        10         9         8        21     9      180.000000        7.021422         2    ;  uncertainty k = 0.427998
        10         9         8        21     9        0.000000        1.163084         3    ;  uncertainty k = 0.376233
        10         9         8        21     9      180.000000        1.458906         4    ;  uncertainty k = 0.224906
        10        11        12        20     9        0.000000        0.593613         1    ;  uncertainty k = 0.368933
        10        11        12        20     9      180.000000        8.423326         2    ;  uncertainty k = 0.444506
        10        11        12        20     9        0.000000        1.380349         3    ;  uncertainty k = 0.327745
        10        11        12        20     9      180.000000        1.814694         4    ;  uncertainty k = 0.258302
        11        10         9        26     9        0.000000        0.291152         1    ;  uncertainty k = 0.356683
        11        10         9        26     9      180.000000        7.879929         2    ;  uncertainty k = 0.531517
        11        10         9        26     9        0.000000        1.511843         3    ;  uncertainty k = 0.240554
        11        10         9        26     9      180.000000        1.653849         4    ;  uncertainty k = 0.264520
        11        12        20        23     9        0.000000       -1.112159         1    ;  uncertainty k = 0.946143
        11        12        20        23     9      180.000000        3.206336         2    ;  uncertainty k = 0.193165
        11        12        20        23     9        0.000000        0.182296         3    ;  uncertainty k = 0.071744
        11        12        20        23     9      180.000000        0.031730         4    ;  uncertainty k = 0.125572
        11        12        20        24     9        0.000000       -1.112159         1    ;  uncertainty k = 0.946143
        11        12        20        24     9      180.000000        3.206336         2    ;  uncertainty k = 0.193165
        11        12        20        24     9        0.000000        0.182296         3    ;  uncertainty k = 0.071744
        11        12        20        24     9      180.000000        0.031730         4    ;  uncertainty k = 0.125572
        11        12        20        25     9        0.000000       -1.112159         1    ;  uncertainty k = 0.946143
        11        12        20        25     9      180.000000        3.206336         2    ;  uncertainty k = 0.193165
        11        12        20        25     9        0.000000        0.182296         3    ;  uncertainty k = 0.071744
        11        12        20        25     9      180.000000        0.031730         4    ;  uncertainty k = 0.125572
        12         7         8        21     9        0.000000        0.389136         1    ;  uncertainty k = 0.614264
        12         7         8        21     9      180.000000       14.518766         2    ;  uncertainty k = 0.294829
        12         7         8        21     9        0.000000        2.676860         3    ;  uncertainty k = 0.493776
        12         7         8        21     9      180.000000        1.576860         4    ;  uncertainty k = 0.170604
        13        14        15        16     9        0.000000       -0.060518         1    ;  uncertainty k = 0.187108
        13        14        15        16     9      180.000000       13.776002         2    ;  uncertainty k = 0.207603
        13        14        15        16     9        0.000000       -0.739071         3    ;  uncertainty k = 0.379142
        13        14        15        16     9      180.000000        0.880793         4    ;  uncertainty k = 0.240569
        13        14        15        29     9        0.000000       -0.057476         1    ;  uncertainty k = 0.061158
        13        14        15        29     9      180.000000        8.079831         2    ;  uncertainty k = 0.371219
        13        14        15        29     9        0.000000        1.334367         3    ;  uncertainty k = 0.293520
        13        14        15        29     9      180.000000        1.801306         4    ;  uncertainty k = 0.154441
        13        18        17        16     9        0.000000       -0.060518         1    ;  uncertainty k = 0.187108
        13        18        17        16     9      180.000000       13.776002         2    ;  uncertainty k = 0.207603
        13        18        17        16     9        0.000000       -0.739071         3    ;  uncertainty k = 0.379142
        13        18        17        16     9      180.000000        0.880793         4    ;  uncertainty k = 0.240569
        13        18        17        30     9        0.000000       -0.057476         1    ;  uncertainty k = 0.061158
        13        18        17        30     9      180.000000        8.079831         2    ;  uncertainty k = 0.371219
        13        18        17        30     9        0.000000        1.334367         3    ;  uncertainty k = 0.293520
        13        18        17        30     9      180.000000        1.801306         4    ;  uncertainty k = 0.154441
        14        13        18        17     9        0.000000        0.029395         1    ;  uncertainty k = 0.122304
        14        13        18        17     9      180.000000        9.049447         2    ;  uncertainty k = 0.441273
        14        13        18        17     9        0.000000       -0.130161         3    ;  uncertainty k = 0.393882
        14        13        18        17     9      180.000000        1.173650         4    ;  uncertainty k = 0.285945
        14        13        18        31     9        0.000000        0.131659         1    ;  uncertainty k = 0.148672
        14        13        18        31     9      180.000000        5.670034         2    ;  uncertainty k = 0.684031
        14        13        18        31     9        0.000000        1.289462         3    ;  uncertainty k = 0.285464
        14        13        18        31     9      180.000000        1.505905         4    ;  uncertainty k = 0.181812
        14        15        16        17     9        0.000000       -0.194546         1    ;  uncertainty k = 0.108157
        14        15        16        17     9      180.000000       11.560137         2    ;  uncertainty k = 0.298012
        14        15        16        17     9        0.000000       -0.701943         3    ;  uncertainty k = 0.255184
        14        15        16        17     9      180.000000        0.919712         4    ;  uncertainty k = 0.277515
        15        14        13        18     9        0.000000        0.029395         1    ;  uncertainty k = 0.122304
        15        14        13        18     9      180.000000        9.049447         2    ;  uncertainty k = 0.441273
        15        14        13        18     9        0.000000       -0.130161         3    ;  uncertainty k = 0.393882
        15        14        13        18     9      180.000000        1.173650         4    ;  uncertainty k = 0.285945
        15        14        13        22     9        0.000000       -0.078436         1    ;  uncertainty k = 0.205218
        15        14        13        22     9      180.000000       11.982805         2    ;  uncertainty k = 0.591754
        15        14        13        22     9        0.000000        1.552960         3    ;  uncertainty k = 0.298235
        15        14        13        22     9      180.000000        1.521243         4    ;  uncertainty k = 0.285864
        15        16        17        18     9        0.000000       -0.194546         1    ;  uncertainty k = 0.108157
        15        16        17        18     9      180.000000       11.560137         2    ;  uncertainty k = 0.298012
        15        16        17        18     9        0.000000       -0.701943         3    ;  uncertainty k = 0.255184
        15        16        17        18     9      180.000000        0.919712         4    ;  uncertainty k = 0.277515
        15        16        17        30     9        0.000000        0.151862         1    ;  uncertainty k = 0.120532
        15        16        17        30     9      180.000000        6.994859         2    ;  uncertainty k = 0.440316
        15        16        17        30     9        0.000000        1.318003         3    ;  uncertainty k = 0.165054
        15        16        17        30     9      180.000000        1.647441         4    ;  uncertainty k = 0.218721
        16        15        14        28     9        0.000000        0.138611         1    ;  uncertainty k = 0.173621
        16        15        14        28     9      180.000000        7.864625         2    ;  uncertainty k = 0.397577
        16        15        14        28     9        0.000000        1.485094         3    ;  uncertainty k = 0.201530
        16        15        14        28     9      180.000000        1.850861         4    ;  uncertainty k = 0.148978
        16        17        18        31     9        0.000000        0.138611         1    ;  uncertainty k = 0.173621
        16        17        18        31     9      180.000000        7.864625         2    ;  uncertainty k = 0.397577
        16        17        18        31     9        0.000000        1.485094         3    ;  uncertainty k = 0.201530
        16        17        18        31     9      180.000000        1.850861         4    ;  uncertainty k = 0.148978
        17        16        15        29     9        0.000000        0.151862         1    ;  uncertainty k = 0.120532
        17        16        15        29     9      180.000000        6.994859         2    ;  uncertainty k = 0.440316
        17        16        15        29     9        0.000000        1.318003         3    ;  uncertainty k = 0.165054
        17        16        15        29     9      180.000000        1.647441         4    ;  uncertainty k = 0.218721
        17        18        13        22     9        0.000000       -0.078436         1    ;  uncertainty k = 0.205218
        17        18        13        22     9      180.000000       11.982805         2    ;  uncertainty k = 0.591754
        17        18        13        22     9        0.000000        1.552960         3    ;  uncertainty k = 0.298235
        17        18        13        22     9      180.000000        1.521243         4    ;  uncertainty k = 0.285864
        18        13        14        28     9        0.000000        0.131659         1    ;  uncertainty k = 0.148672
        18        13        14        28     9      180.000000        5.670034         2    ;  uncertainty k = 0.684031
        18        13        14        28     9        0.000000        1.289462         3    ;  uncertainty k = 0.285464
        18        13        14        28     9      180.000000        1.505905         4    ;  uncertainty k = 0.181812
        20        12        11        27     9        0.000000        0.212162         1    ;  uncertainty k = 0.765533
        20        12        11        27     9      180.000000        7.705889         2    ;  uncertainty k = 0.479887
        20        12        11        27     9        0.000000        0.715250         3    ;  uncertainty k = 0.391918
        20        12        11        27     9      180.000000        1.004110         4    ;  uncertainty k = 0.219393
        21         8         9        26     9        0.000000       -0.221986         1    ;  uncertainty k = 0.352958
        21         8         9        26     9      180.000000        6.084742         2    ;  uncertainty k = 0.296378
        21         8         9        26     9        0.000000        0.528862         3    ;  uncertainty k = 0.212417
        21         8         9        26     9      180.000000        0.926899         4    ;  uncertainty k = 0.172894
        22        13        14        28     9        0.000000       -0.315948         1    ;  uncertainty k = 0.261523
        22        13        14        28     9      180.000000        8.862568         2    ;  uncertainty k = 0.280367
        22        13        14        28     9        0.000000        0.765577         3    ;  uncertainty k = 0.254878
        22        13        14        28     9      180.000000        0.926578         4    ;  uncertainty k = 0.179931
        22        13        18        31     9        0.000000       -0.315948         1    ;  uncertainty k = 0.261523
        22        13        18        31     9      180.000000        8.862567         2    ;  uncertainty k = 0.280367
        22        13        18        31     9        0.000000        0.765577         3    ;  uncertainty k = 0.254878
        22        13        18        31     9      180.000000        0.926578         4    ;  uncertainty k = 0.179931
        28        14        15        29     9        0.000000       -0.106450         1    ;  uncertainty k = 0.115322
        28        14        15        29     9      180.000000        7.767526         2    ;  uncertainty k = 0.343496
        28        14        15        29     9        0.000000       -0.451943         3    ;  uncertainty k = 0.262512
        28        14        15        29     9      180.000000        0.150164         4    ;  uncertainty k = 0.122485
        30        17        18        31     9        0.000000       -0.106450         1    ;  uncertainty k = 0.115322
        30        17        18        31     9      180.000000        7.767526         2    ;  uncertainty k = 0.343496
        30        17        18        31     9        0.000000       -0.451943         3    ;  uncertainty k = 0.262512
        30        17        18        31     9      180.000000        0.150164         4    ;  uncertainty k = 0.122485

[ dihedrals ] ; impropers
;       ai        aj        ak        al funct           phase               k        pn
         3         2         4        10     4      180.000000       21.139513         2    ;  uncertainty k = 0.151830
         3         4        10         2     4      180.000000       21.139513         2    ;  uncertainty k = 0.151830
         3        10         2         4     4      180.000000       21.139513         2    ;  uncertainty k = 0.151830
         4         3         5        16     4      180.000000       29.607549         2    ;  uncertainty k = 0.045492
         4         5        16         3     4      180.000000       29.607549         2    ;  uncertainty k = 0.045492
         4        16         3         5     4      180.000000       29.607549         2    ;  uncertainty k = 0.045492
         6         1         5        19     4      180.000000       43.323642         2    ;  uncertainty k = 0.063441
         6         5        19         1     4      180.000000       43.323642         2    ;  uncertainty k = 0.063441
         6        19         1         5     4      180.000000       43.323642         2    ;  uncertainty k = 0.063441
         8         7         9        21     4      180.000000       25.102790         2    ;  uncertainty k = 0.076498
         8         9        21         7     4      180.000000       25.102790         2    ;  uncertainty k = 0.076498
         8        21         7         9     4      180.000000       25.102790         2    ;  uncertainty k = 0.076498
         9         8        10        26     4      180.000000        3.720253         2    ;  uncertainty k = 0.205706
         9        10        26         8     4      180.000000        3.720253         2    ;  uncertainty k = 0.205706
         9        26         8        10     4      180.000000        3.720253         2    ;  uncertainty k = 0.205706
        10         3         9        11     4      180.000000       14.190405         2    ;  uncertainty k = 0.115109
        10         9        11         3     4      180.000000       14.190405         2    ;  uncertainty k = 0.115109
        10        11         3         9     4      180.000000       14.190405         2    ;  uncertainty k = 0.115109
        11        10        12        27     4      180.000000        4.085486         2    ;  uncertainty k = 0.205154
        11        12        27        10     4      180.000000        4.085486         2    ;  uncertainty k = 0.205154
        11        27        10        12     4      180.000000        4.085486         2    ;  uncertainty k = 0.205154
        12         7        11        20     4      180.000000       17.502468         2    ;  uncertainty k = 0.060796
        12        11        20         7     4      180.000000       17.502468         2    ;  uncertainty k = 0.060796
        12        20         7        11     4      180.000000       17.502468         2    ;  uncertainty k = 0.060796
        13        14        18        22     4      180.000000       17.547874         2    ;  uncertainty k = 0.059583
        13        18        22        14     4      180.000000       17.547874         2    ;  uncertainty k = 0.059583
        13        22        14        18     4      180.000000       17.547874         2    ;  uncertainty k = 0.059583
        14        13        15        28     4      180.000000        2.610618         2    ;  uncertainty k = 0.316111
        14        15        28        13     4      180.000000        2.610618         2    ;  uncertainty k = 0.316111
        14        28        13        15     4      180.000000        2.610618         2    ;  uncertainty k = 0.316111
        15        14        16        29     4      180.000000        4.920706         2    ;  uncertainty k = 0.084914
        15        16        29        14     4      180.000000        4.920706         2    ;  uncertainty k = 0.084914
        15        29        14        16     4      180.000000        4.920706         2    ;  uncertainty k = 0.084914
        16         4        15        17     4      180.000000        9.213607         2    ;  uncertainty k = 0.171149
        16        15        17         4     4      180.000000        9.213607         2    ;  uncertainty k = 0.171149
        16        17         4        15     4      180.000000        9.213607         2    ;  uncertainty k = 0.171149
        17        16        18        30     4      180.000000        4.920706         2    ;  uncertainty k = 0.084914
        17        18        30        16     4      180.000000        4.920706         2    ;  uncertainty k = 0.084914
        17        30        16        18     4      180.000000        4.920706         2    ;  uncertainty k = 0.084914
        18        13        17        31     4      180.000000        2.610618         2    ;  uncertainty k = 0.316111
        18        17        31        13     4      180.000000        2.610618         2    ;  uncertainty k = 0.316111
        18        31        13        17     4      180.000000        2.610618         2    ;  uncertainty k = 0.316111
        19         6        32        33     4      180.000000        0.390383         2    ;  uncertainty k = 0.522839
        19        32        33         6     4      180.000000        0.390383         2    ;  uncertainty k = 0.522839
        19        33         6        32     4      180.000000        0.390383         2    ;  uncertainty k = 0.522839

[ pairs ]
;       ai        aj funct
         1         4     1
         1        10     1
         1        32     1
         1        33     1
         2         5     1
         2         9     1
         2        11     1
         2        16     1
         2        19     1
         3         6     1
         3         8     1
         3        12     1
         3        15     1
         3        17     1
         3        26     1
         3        27     1
         4         9     1
         4        11     1
         4        14     1
         4        18     1
         4        19     1
         4        29     1
         4        30     1
         5        10     1
         5        15     1
         5        17     1
         5        32     1
         5        33     1
         6        16     1
         7        10     1
         7        23     1
         7        24     1
         7        25     1
         7        26     1
         7        27     1
         8        11     1
         8        20     1
         9        12     1
         9        27     1
        10        16     1
        10        20     1
        10        21     1
        11        23     1
        11        24     1
        11        25     1
        11        26     1
        12        21     1
        13        16     1
        13        29     1
        13        30     1
        14        17     1
        14        31     1
        15        18     1
        15        22     1
        15        30     1
        16        28     1
        16        31     1
        17        22     1
        17        29     1
        18        28     1
        20        27     1
        21        26     1
        22        28     1
        22        31     1
        28        29     1
        30        31     1
