; ITP file created by ByteFF-joint-25, 2026-03-15 01:34:28.397246

[ atomtypes ]
;name           bonded.type        at.num        mass        charge   ptype           sigma         epsilon
 f0bf                                   9      0.0000       0.00000       A     3.03460e-01     3.48159e-01    ;  uncertainty sigma = 0.000009, epsilon = 0.001179
 c1bf                                   6      0.0000       0.00000       A     3.31524e-01     4.13420e-01    ;  uncertainty sigma = 0.000010, epsilon = 0.000431
 c2bf                                   6      0.0000       0.00000       A     3.31557e-01     4.13180e-01    ;  uncertainty sigma = 0.000013, epsilon = 0.000992
 n3bf                                   7      0.0000       0.00000       A     3.26938e-01     4.90358e-01    ;  uncertainty sigma = 0.000022, epsilon = 0.001866
 c4bf                                   6      0.0000       0.00000       A     3.31417e-01     4.11960e-01    ;  uncertainty sigma = 0.000092, epsilon = 0.001611
 o5bf                                   8      0.0000       0.00000       A     3.04768e-01     6.12506e-01    ;  uncertainty sigma = 0.000026, epsilon = 0.002291
 n6bf                                   7      0.0000       0.00000       A     3.26911e-01     4.90562e-01    ;  uncertainty sigma = 0.000022, epsilon = 0.003078
 c7bf                                   6      0.0000       0.00000       A     3.31550e-01     4.12934e-01    ;  uncertainty sigma = 0.000036, epsilon = 0.001226
 c8bf                                   6      0.0000       0.00000       A     3.31577e-01     4.13277e-01    ;  uncertainty sigma = 0.000020, epsilon = 0.000425
 o9bf                                   8      0.0000       0.00000       A     3.15742e-01     3.04477e-01    ;  uncertainty sigma = 0.000033, epsilon = 0.001833
 c10bf                                  6      0.0000       0.00000       A     3.31528e-01     4.13399e-01    ;  uncertainty sigma = 0.000014, epsilon = 0.000542
 c11bf                                  6      0.0000       0.00000       A     3.31516e-01     4.13613e-01    ;  uncertainty sigma = 0.000006, epsilon = 0.000606
 c12bf                                  6      0.0000       0.00000       A     3.31521e-01     4.13477e-01    ;  uncertainty sigma = 0.000003, epsilon = 0.000586
 c13bf                                  6      0.0000       0.00000       A     3.31520e-01     4.13333e-01    ;  uncertainty sigma = 0.000002, epsilon = 0.000598
 c14bf                                  6      0.0000       0.00000       A     3.31521e-01     4.13477e-01    ;  uncertainty sigma = 0.000003, epsilon = 0.000586
 c15bf                                  6      0.0000       0.00000       A     3.31516e-01     4.13613e-01    ;  uncertainty sigma = 0.000006, epsilon = 0.000606
 n16bf                                  7      0.0000       0.00000       A     3.38387e-01     3.93418e-01    ;  uncertainty sigma = 0.000011, epsilon = 0.000773
 c17bf                                  6      0.0000       0.00000       A     3.31528e-01     4.13303e-01    ;  uncertainty sigma = 0.000012, epsilon = 0.000565
 c18bf                                  6      0.0000       0.00000       A     3.31519e-01     4.13136e-01    ;  uncertainty sigma = 0.000006, epsilon = 0.000735
 c19bf                                  6      0.0000       0.00000       A     3.31539e-01     4.13382e-01    ;  uncertainty sigma = 0.000004, epsilon = 0.001208
 c20bf                                  6      0.0000       0.00000       A     3.31514e-01     4.13398e-01    ;  uncertainty sigma = 0.000007, epsilon = 0.000800
 c21bf                                  6      0.0000       0.00000       A     3.31520e-01     4.13283e-01    ;  uncertainty sigma = 0.000005, epsilon = 0.000612
 c22bf                                  6      0.0000       0.00000       A     3.31522e-01     4.13330e-01    ;  uncertainty sigma = 0.000006, epsilon = 0.000632
 f23bf                                  9      0.0000       0.00000       A     3.03426e-01     3.47978e-01    ;  uncertainty sigma = 0.000008, epsilon = 0.000768
 c24bf                                  6      0.0000       0.00000       A     3.31518e-01     4.13223e-01    ;  uncertainty sigma = 0.000007, epsilon = 0.000597
 h25bf                                  1      0.0000       0.00000       A     1.10684e-01     4.18807e-02    ;  uncertainty sigma = 0.000084, epsilon = 0.000944
 h26bf                                  1      0.0000       0.00000       A     1.10682e-01     4.19025e-02    ;  uncertainty sigma = 0.000080, epsilon = 0.001074
 h27bf                                  1      0.0000       0.00000       A     2.62561e-01     6.71300e-02    ;  uncertainty sigma = 0.000006, epsilon = 0.000455
 h28bf                                  1      0.0000       0.00000       A     2.62562e-01     6.69705e-02    ;  uncertainty sigma = 0.000010, epsilon = 0.000501
 h29bf                                  1      0.0000       0.00000       A     2.62552e-01     6.70646e-02    ;  uncertainty sigma = 0.000011, epsilon = 0.000453
 h30bf                                  1      0.0000       0.00000       A     2.62562e-01     6.69705e-02    ;  uncertainty sigma = 0.000010, epsilon = 0.000501
 h31bf                                  1      0.0000       0.00000       A     2.62561e-01     6.71300e-02    ;  uncertainty sigma = 0.000006, epsilon = 0.000455
 h32bf                                  1      0.0000       0.00000       A     2.53636e-01     6.70245e-02    ;  uncertainty sigma = 0.000013, epsilon = 0.000470
 h33bf                                  1      0.0000       0.00000       A     2.62567e-01     6.71101e-02    ;  uncertainty sigma = 0.000011, epsilon = 0.000575
 h34bf                                  1      0.0000       0.00000       A     2.62550e-01     6.71051e-02    ;  uncertainty sigma = 0.000018, epsilon = 0.000451
 h35bf                                  1      0.0000       0.00000       A     2.62556e-01     6.69781e-02    ;  uncertainty sigma = 0.000014, epsilon = 0.000427
 h36bf                                  1      0.0000       0.00000       A     2.62565e-01     6.70529e-02    ;  uncertainty sigma = 0.000013, epsilon = 0.000444
 h37bf                                  1      0.0000       0.00000       A     2.62561e-01     6.73634e-02    ;  uncertainty sigma = 0.000010, epsilon = 0.000362

[ moleculetype ]
;name             nrexcl
 MOL                   3

[ atoms ]
;       nr            type      resi   res      atom      cgnr      charge          mass ; qtot
         1            f0bf         1   UNL        f0         1    -0.14472       18.9980 ; qtot   -0.145
         2            c1bf         1   UNL        c1         2     0.11068       12.0110 ; qtot   -0.034
         3            c2bf         1   UNL        c2         3     0.03080       12.0110 ; qtot   -0.003
         4            n3bf         1   UNL        n3         4    -0.47988       14.0070 ; qtot   -0.483
         5            c4bf         1   UNL        c4         5     0.79837       12.0110 ; qtot    0.315
         6            o5bf         1   UNL        o5         6    -0.59331       15.9990 ; qtot   -0.278
         7            n6bf         1   UNL        n6         7    -0.47318       14.0070 ; qtot   -0.751
         8            c7bf         1   UNL        c7         8    -0.04576       12.0110 ; qtot   -0.797
         9            c8bf         1   UNL        c8         9     0.59683       12.0110 ; qtot   -0.200
        10            o9bf         1   UNL        o9        10    -0.39287       15.9990 ; qtot   -0.593
        11           c10bf         1   UNL       c10        11     0.10957       12.0110 ; qtot   -0.483
        12           c11bf         1   UNL       c11        12    -0.13683       12.0110 ; qtot   -0.620
        13           c12bf         1   UNL       c12        13    -0.11298       12.0110 ; qtot   -0.733
        14           c13bf         1   UNL       c13        14    -0.14445       12.0110 ; qtot   -0.878
        15           c14bf         1   UNL       c14        15    -0.11298       12.0110 ; qtot   -0.991
        16           c15bf         1   UNL       c15        16    -0.13683       12.0110 ; qtot   -1.128
        17           n16bf         1   UNL       n16        17    -0.69921       14.0070 ; qtot   -1.827
        18           c17bf         1   UNL       c17        18     0.39652       12.0110 ; qtot   -1.430
        19           c18bf         1   UNL       c18        19    -0.24092       12.0110 ; qtot   -1.671
        20           c19bf         1   UNL       c19        20    -0.10097       12.0110 ; qtot   -1.772
        21           c20bf         1   UNL       c20        21    -0.10855       12.0110 ; qtot   -1.881
        22           c21bf         1   UNL       c21        22    -0.15340       12.0110 ; qtot   -2.034
        23           c22bf         1   UNL       c22        23     0.12944       12.0110 ; qtot   -1.905
        24           f23bf         1   UNL       f23        24    -0.13815       18.9980 ; qtot   -2.043
        25           c24bf         1   UNL       c24        25    -0.17866       12.0110 ; qtot   -2.221
        26           h25bf         1   UNL       h25        26     0.33387        1.0080 ; qtot   -1.888
        27           h26bf         1   UNL       h26        27     0.34303        1.0080 ; qtot   -1.545
        28           h27bf         1   UNL       h27        28     0.15025        1.0080 ; qtot   -1.394
        29           h28bf         1   UNL       h28        29     0.13547        1.0080 ; qtot   -1.259
        30           h29bf         1   UNL       h29        30     0.13419        1.0080 ; qtot   -1.125
        31           h30bf         1   UNL       h30        31     0.13547        1.0080 ; qtot   -0.989
        32           h31bf         1   UNL       h31        32     0.15025        1.0080 ; qtot   -0.839
        33           h32bf         1   UNL       h32        33     0.02625        1.0080 ; qtot   -0.813
        34           h33bf         1   UNL       h33        34     0.14569        1.0080 ; qtot   -0.667
        35           h34bf         1   UNL       h34        35     0.17117        1.0080 ; qtot   -0.496
        36           h35bf         1   UNL       h35        36     0.16909        1.0080 ; qtot   -0.327
        37           h36bf         1   UNL       h36        37     0.15700        1.0080 ; qtot   -0.170
        38           h37bf         1   UNL       h37        38     0.16971        1.0080 ; qtot   -0.000

[ bonds ]
;       ai        aj funct               r               k
         1         2     1        0.135857   334360.922705    ;  uncertainty r = 0.000090, k = 8.876580
         2         3     1        0.139859   349911.260254    ;  uncertainty r = 0.000046, k = 8.933373
         2        25     1        0.138599   357518.994971    ;  uncertainty r = 0.000038, k = 2.940046
         3         4     1        0.140639   329349.443750    ;  uncertainty r = 0.000086, k = 8.036004
         3        21     1        0.140083   346869.177637    ;  uncertainty r = 0.000051, k = 3.021685
         4         5     1        0.140076   385416.141846    ;  uncertainty r = 0.000128, k = 16.618014
         4        26     1        0.101809   421827.641895    ;  uncertainty r = 0.000091, k = 3.454311
         5         6     1        0.124129   777655.543945    ;  uncertainty r = 0.000120, k = 11.115127
         5         7     1        0.139803   380073.242285    ;  uncertainty r = 0.000194, k = 13.935253
         7         8     1        0.140096   339046.190625    ;  uncertainty r = 0.000118, k = 8.055116
         7        27     1        0.101870   417728.195264    ;  uncertainty r = 0.000093, k = 3.473121
         8         9     1        0.140110   355790.847705    ;  uncertainty r = 0.000180, k = 18.434735
         8        20     1        0.139587   350172.658105    ;  uncertainty r = 0.000051, k = 12.669235
         9        10     1        0.137449   295549.598340    ;  uncertainty r = 0.000119, k = 7.411155
         9        17     1        0.131673   342519.824854    ;  uncertainty r = 0.000195, k = 23.816190
        10        11     1        0.139032   312373.037402    ;  uncertainty r = 0.000094, k = 8.937645
        11        12     1        0.139325   355559.302734    ;  uncertainty r = 0.000020, k = 2.635537
        11        16     1        0.139325   355559.302734    ;  uncertainty r = 0.000020, k = 2.635537
        12        13     1        0.139424   369337.620264    ;  uncertainty r = 0.000006, k = 1.380795
        12        28     1        0.108809   336026.529590    ;  uncertainty r = 0.000017, k = 0.991143
        13        14     1        0.139686   369249.389551    ;  uncertainty r = 0.000012, k = 1.422081
        13        29     1        0.108801   333700.252148    ;  uncertainty r = 0.000015, k = 1.168089
        14        15     1        0.139686   369249.389551    ;  uncertainty r = 0.000012, k = 1.422081
        14        30     1        0.108820   334668.338428    ;  uncertainty r = 0.000011, k = 0.873074
        15        16     1        0.139424   369337.620264    ;  uncertainty r = 0.000006, k = 1.380795
        15        31     1        0.108801   333700.252148    ;  uncertainty r = 0.000015, k = 1.168089
        16        32     1        0.108809   336026.529590    ;  uncertainty r = 0.000017, k = 0.991143
        17        18     1        0.134174   386160.599658    ;  uncertainty r = 0.000069, k = 8.080813
        18        19     1        0.139039   373281.367139    ;  uncertainty r = 0.000047, k = 3.782627
        18        33     1        0.108937   336014.246240    ;  uncertainty r = 0.000016, k = 1.810732
        19        20     1        0.139560   376722.160645    ;  uncertainty r = 0.000043, k = 3.130754
        19        34     1        0.108806   337266.688232    ;  uncertainty r = 0.000012, k = 1.595181
        20        35     1        0.108477   334523.772852    ;  uncertainty r = 0.000051, k = 3.409790
        21        22     1        0.139338   371403.623486    ;  uncertainty r = 0.000031, k = 3.843571
        21        36     1        0.108476   335060.869336    ;  uncertainty r = 0.000026, k = 2.768301
        22        23     1        0.138862   363011.516455    ;  uncertainty r = 0.000029, k = 2.336398
        22        37     1        0.108740   336001.503223    ;  uncertainty r = 0.000018, k = 0.523197
        23        24     1        0.135460   342172.903223    ;  uncertainty r = 0.000027, k = 2.855737
        23        25     1        0.139027   367718.158936    ;  uncertainty r = 0.000039, k = 3.694819
        25        38     1        0.108776   338895.113086    ;  uncertainty r = 0.000015, k = 1.055099

[ angles ]
;       ai        aj        ak funct           theta             cth
         1         2         3     1      116.736191      467.720234    ;  uncertainty theta = 0.002974, k = 0.264124
         1         2        25     1      118.820847      531.087028    ;  uncertainty theta = 0.003627, k = 0.147571
         2         3         4     1      118.279419      529.118691    ;  uncertainty theta = 0.005041, k = 0.171308
         2         3        21     1      118.396774      360.750901    ;  uncertainty theta = 0.003932, k = 0.276952
         2        25        23     1      117.741173      453.839028    ;  uncertainty theta = 0.003901, k = 0.186862
         2        25        38     1      120.903954      271.854659    ;  uncertainty theta = 0.002836, k = 0.102662
         3         2        25     1      125.011475      355.194824    ;  uncertainty theta = 0.004666, k = 0.262240
         3         4         5     1      118.193810      381.929528    ;  uncertainty theta = 0.004842, k = 0.193416
         3         4        26     1      115.198143      310.153524    ;  uncertainty theta = 0.004351, k = 0.269571
         3        21        22     1      121.337158      511.202111    ;  uncertainty theta = 0.001573, k = 0.067381
         3        21        36     1      117.573708      261.445398    ;  uncertainty theta = 0.003375, k = 0.111123
         4         3        21     1      121.619789      495.938772    ;  uncertainty theta = 0.004320, k = 0.152847
         4         5         6     1      125.502602      724.225591    ;  uncertainty theta = 0.004432, k = 0.123613
         4         5         7     1      111.558266      574.708177    ;  uncertainty theta = 0.009111, k = 0.253121
         5         4        26     1      117.312866      317.781108    ;  uncertainty theta = 0.005441, k = 0.191736
         5         7         8     1      118.047020      383.931861    ;  uncertainty theta = 0.006145, k = 0.348846
         5         7        27     1      117.989967      329.422646    ;  uncertainty theta = 0.006582, k = 0.171883
         6         5         7     1      125.348587      731.379046    ;  uncertainty theta = 0.005732, k = 0.126463
         7         8         9     1      117.092575      491.278505    ;  uncertainty theta = 0.007126, k = 0.229130
         7         8        20     1      122.491943      468.987641    ;  uncertainty theta = 0.005717, k = 0.226575
         8         7        27     1      114.704041      335.957720    ;  uncertainty theta = 0.005639, k = 0.195191
         8         9        10     1      116.539101      390.646812    ;  uncertainty theta = 0.012106, k = 0.310747
         8         9        17     1      125.653397      515.566722    ;  uncertainty theta = 0.002376, k = 0.153092
         8        20        19     1      118.664589      535.632378    ;  uncertainty theta = 0.002867, k = 0.172990
         8        20        35     1      117.850075      264.486868    ;  uncertainty theta = 0.003879, k = 0.116474
         9         8        20     1      117.575417      353.893836    ;  uncertainty theta = 0.008911, k = 0.132791
         9        10        11     1      113.233253      471.948924    ;  uncertainty theta = 0.007775, k = 0.226453
         9        17        18     1      118.982071      388.606014    ;  uncertainty theta = 0.003083, k = 0.211256
        10         9        17     1      116.772644      568.827811    ;  uncertainty theta = 0.007337, k = 0.115104
        10        11        12     1      119.959694      419.287063    ;  uncertainty theta = 0.001381, k = 0.088580
        10        11        16     1      119.959694      419.287063    ;  uncertainty theta = 0.001381, k = 0.088580
        11        12        13     1      118.092979      510.740049    ;  uncertainty theta = 0.001436, k = 0.076574
        11        12        28     1      120.364120      277.992823    ;  uncertainty theta = 0.001373, k = 0.063043
        11        16        15     1      118.092979      510.739985    ;  uncertainty theta = 0.001436, k = 0.076574
        11        16        32     1      120.364120      277.992823    ;  uncertainty theta = 0.001373, k = 0.063043
        12        11        16     1      121.567116      368.861902    ;  uncertainty theta = 0.003890, k = 0.119489
        12        13        14     1      119.841187      514.924208    ;  uncertainty theta = 0.001573, k = 0.028514
        12        13        29     1      119.718163      283.849950    ;  uncertainty theta = 0.001307, k = 0.033848
        13        12        28     1      121.445030      291.571542    ;  uncertainty theta = 0.001245, k = 0.024785
        13        14        15     1      118.409134      527.559715    ;  uncertainty theta = 0.001688, k = 0.022829
        13        14        30     1      120.564613      288.816344    ;  uncertainty theta = 0.001662, k = 0.014287
        14        13        29     1      120.581619      286.044482    ;  uncertainty theta = 0.000906, k = 0.028064
        14        15        16     1      119.841187      514.924208    ;  uncertainty theta = 0.001573, k = 0.028514
        14        15        31     1      120.581619      286.044482    ;  uncertainty theta = 0.000906, k = 0.028064
        15        14        30     1      120.564613      288.816344    ;  uncertainty theta = 0.001662, k = 0.014287
        15        16        32     1      121.445030      291.571542    ;  uncertainty theta = 0.001245, k = 0.024785
        16        15        31     1      119.718163      283.849950    ;  uncertainty theta = 0.001307, k = 0.033848
        17        18        19     1      122.018677      680.497696    ;  uncertainty theta = 0.002657, k = 0.057695
        17        18        33     1      116.528870      326.284582    ;  uncertainty theta = 0.003532, k = 0.089660
        18        19        20     1      116.662033      486.639338    ;  uncertainty theta = 0.002659, k = 0.164042
        18        19        34     1      121.531288      284.776469    ;  uncertainty theta = 0.000829, k = 0.071895
        19        18        33     1      121.479820      279.479402    ;  uncertainty theta = 0.001106, k = 0.075569
        19        20        35     1      121.491959      306.835200    ;  uncertainty theta = 0.004314, k = 0.137900
        20        19        34     1      121.692772      278.904306    ;  uncertainty theta = 0.003629, k = 0.116071
        21        22        23     1      118.285049      484.279294    ;  uncertainty theta = 0.001768, k = 0.055731
        21        22        37     1      121.279221      274.103362    ;  uncertainty theta = 0.002275, k = 0.088219
        22        21        36     1      120.346207      308.716998    ;  uncertainty theta = 0.001985, k = 0.114318
        22        23        24     1      119.429977      517.007047    ;  uncertainty theta = 0.002152, k = 0.043401
        22        23        25     1      122.215172      369.437158    ;  uncertainty theta = 0.005625, k = 0.103915
        23        22        37     1      120.915672      281.926368    ;  uncertainty theta = 0.000927, k = 0.036510
        23        25        38     1      122.160446      275.853739    ;  uncertainty theta = 0.001471, k = 0.051745
        24        23        25     1      118.530540      506.283408    ;  uncertainty theta = 0.002389, k = 0.013247

[ dihedrals ] ; propers for gromacs 4.5 or higher, use funct 9
;       ai        aj        ak        al funct           phase               k        pn
         1         2         3         4     9        0.000000        0.160525         1    ;  uncertainty k = 0.421604
         1         2         3         4     9      180.000000       11.170225         2    ;  uncertainty k = 0.644858
         1         2         3         4     9        0.000000        0.977782         3    ;  uncertainty k = 0.194168
         1         2         3         4     9      180.000000        1.392614         4    ;  uncertainty k = 0.457788
         1         2         3        21     9        0.000000        0.245084         1    ;  uncertainty k = 0.313901
         1         2         3        21     9      180.000000        8.890451         2    ;  uncertainty k = 0.608394
         1         2         3        21     9        0.000000        1.363087         3    ;  uncertainty k = 0.075345
         1         2         3        21     9      180.000000        1.626558         4    ;  uncertainty k = 0.309394
         1         2        25        23     9        0.000000        0.036917         1    ;  uncertainty k = 0.173047
         1         2        25        23     9      180.000000       13.192884         2    ;  uncertainty k = 0.607874
         1         2        25        23     9        0.000000        1.501887         3    ;  uncertainty k = 0.427028
         1         2        25        23     9      180.000000        1.531977         4    ;  uncertainty k = 0.229303
         1         2        25        38     9        0.000000       -0.114872         1    ;  uncertainty k = 0.231347
         1         2        25        38     9      180.000000        9.192255         2    ;  uncertainty k = 0.368990
         1         2        25        38     9        0.000000        0.849509         3    ;  uncertainty k = 0.238093
         1         2        25        38     9      180.000000        1.103137         4    ;  uncertainty k = 0.246438
         2         3         4         5     9        0.000000        1.102741         1    ;  uncertainty k = 1.073574
         2         3         4         5     9      180.000000        4.355581         2    ;  uncertainty k = 0.328195
         2         3         4         5     9        0.000000        0.826132         3    ;  uncertainty k = 0.184405
         2         3         4         5     9      180.000000        0.060796         4    ;  uncertainty k = 0.031085
         2         3         4        26     9        0.000000        1.446213         1    ;  uncertainty k = 0.837531
         2         3         4        26     9      180.000000        2.234040         2    ;  uncertainty k = 0.278402
         2         3         4        26     9        0.000000        0.118908         3    ;  uncertainty k = 0.139066
         2         3         4        26     9      180.000000       -0.177320         4    ;  uncertainty k = 0.119437
         2         3        21        22     9        0.000000       -0.012320         1    ;  uncertainty k = 0.330054
         2         3        21        22     9      180.000000        9.307745         2    ;  uncertainty k = 0.530981
         2         3        21        22     9        0.000000        0.226771         3    ;  uncertainty k = 0.181246
         2         3        21        22     9      180.000000        1.440929         4    ;  uncertainty k = 0.312195
         2         3        21        36     9        0.000000        0.065007         1    ;  uncertainty k = 0.484935
         2         3        21        36     9      180.000000        6.971212         2    ;  uncertainty k = 0.391590
         2         3        21        36     9        0.000000        1.282903         3    ;  uncertainty k = 0.269565
         2         3        21        36     9      180.000000        1.525248         4    ;  uncertainty k = 0.117715
         2        25        23        22     9        0.000000       -0.127835         1    ;  uncertainty k = 0.214509
         2        25        23        22     9      180.000000        8.898657         2    ;  uncertainty k = 0.463051
         2        25        23        22     9        0.000000       -0.075985         3    ;  uncertainty k = 0.355342
         2        25        23        22     9      180.000000        1.297640         4    ;  uncertainty k = 0.222628
         2        25        23        24     9        0.000000        0.055242         1    ;  uncertainty k = 0.241498
         2        25        23        24     9      180.000000       12.277294         2    ;  uncertainty k = 0.427894
         2        25        23        24     9        0.000000        1.538731         3    ;  uncertainty k = 0.392990
         2        25        23        24     9      180.000000        1.507857         4    ;  uncertainty k = 0.216063
         3         2        25        23     9        0.000000       -0.165241         1    ;  uncertainty k = 0.364036
         3         2        25        23     9      180.000000        8.631343         2    ;  uncertainty k = 0.403041
         3         2        25        23     9        0.000000        0.231801         3    ;  uncertainty k = 0.408310
         3         2        25        23     9      180.000000        1.184366         4    ;  uncertainty k = 0.308451
         3         2        25        38     9        0.000000        0.059376         1    ;  uncertainty k = 0.533931
         3         2        25        38     9      180.000000        5.844886         2    ;  uncertainty k = 0.878896
         3         2        25        38     9        0.000000        1.269323         3    ;  uncertainty k = 0.215214
         3         2        25        38     9      180.000000        1.480511         4    ;  uncertainty k = 0.179711
         3         4         5         6     9        0.000000        6.466955         1    ;  uncertainty k = 0.945490
         3         4         5         6     9      180.000000        9.641418         2    ;  uncertainty k = 0.397964
         3         4         5         6     9        0.000000        1.224658         3    ;  uncertainty k = 0.302775
         3         4         5         6     9      180.000000       -0.489460         4    ;  uncertainty k = 0.205453
         3         4         5         7     9        0.000000        7.603735         1    ;  uncertainty k = 0.763173
         3         4         5         7     9      180.000000        6.226504         2    ;  uncertainty k = 0.785717
         3         4         5         7     9        0.000000        0.607678         3    ;  uncertainty k = 0.278533
         3         4         5         7     9      180.000000       -0.139699         4    ;  uncertainty k = 0.327451
         3        21        22        23     9        0.000000       -0.204716         1    ;  uncertainty k = 0.162298
         3        21        22        23     9      180.000000       13.608290         2    ;  uncertainty k = 0.242241
         3        21        22        23     9        0.000000       -0.739659         3    ;  uncertainty k = 0.541523
         3        21        22        23     9      180.000000        0.908221         4    ;  uncertainty k = 0.219568
         3        21        22        37     9        0.000000        0.222127         1    ;  uncertainty k = 0.208960
         3        21        22        37     9      180.000000        7.706029         2    ;  uncertainty k = 0.493084
         3        21        22        37     9        0.000000        1.443504         3    ;  uncertainty k = 0.268422
         3        21        22        37     9      180.000000        1.722112         4    ;  uncertainty k = 0.143262
         4         3         2        25     9        0.000000       -0.005877         1    ;  uncertainty k = 0.229535
         4         3         2        25     9      180.000000        7.356192         2    ;  uncertainty k = 0.365758
         4         3         2        25     9        0.000000        1.055882         3    ;  uncertainty k = 0.365644
         4         3         2        25     9      180.000000        1.733629         4    ;  uncertainty k = 0.186462
         4         3        21        22     9        0.000000        0.039337         1    ;  uncertainty k = 0.295351
         4         3        21        22     9      180.000000       10.679407         2    ;  uncertainty k = 0.704468
         4         3        21        22     9        0.000000        1.147084         3    ;  uncertainty k = 0.505892
         4         3        21        22     9      180.000000        1.714043         4    ;  uncertainty k = 0.291280
         4         3        21        36     9        0.000000       -0.337143         1    ;  uncertainty k = 0.369468
         4         3        21        36     9      180.000000        8.330856         2    ;  uncertainty k = 0.638478
         4         3        21        36     9        0.000000        0.817316         3    ;  uncertainty k = 0.200036
         4         3        21        36     9      180.000000        1.246975         4    ;  uncertainty k = 0.250931
         4         5         7         8     9        0.000000        8.195240         1    ;  uncertainty k = 0.774428
         4         5         7         8     9      180.000000        6.135430         2    ;  uncertainty k = 1.014381
         4         5         7         8     9        0.000000        0.633535         3    ;  uncertainty k = 0.253995
         4         5         7         8     9      180.000000       -0.183395         4    ;  uncertainty k = 0.464403
         4         5         7        27     9        0.000000        2.929481         1    ;  uncertainty k = 1.008369
         4         5         7        27     9      180.000000        4.487899         2    ;  uncertainty k = 1.223012
         4         5         7        27     9        0.000000        0.811151         3    ;  uncertainty k = 0.207045
         4         5         7        27     9      180.000000       -0.390350         4    ;  uncertainty k = 0.250539
         5         4         3        21     9        0.000000        1.587779         1    ;  uncertainty k = 1.012217
         5         4         3        21     9      180.000000        3.674664         2    ;  uncertainty k = 0.238097
         5         4         3        21     9        0.000000        0.747420         3    ;  uncertainty k = 0.203030
         5         4         3        21     9      180.000000        0.388772         4    ;  uncertainty k = 0.124494
         5         7         8         9     9        0.000000        1.938698         1    ;  uncertainty k = 1.267920
         5         7         8         9     9      180.000000        3.893180         2    ;  uncertainty k = 0.541721
         5         7         8         9     9        0.000000        0.288187         3    ;  uncertainty k = 0.202413
         5         7         8         9     9      180.000000        0.005216         4    ;  uncertainty k = 0.061147
         5         7         8        20     9        0.000000        1.567099         1    ;  uncertainty k = 1.278446
         5         7         8        20     9      180.000000        3.967891         2    ;  uncertainty k = 0.530672
         5         7         8        20     9        0.000000        0.661735         3    ;  uncertainty k = 0.282621
         5         7         8        20     9      180.000000        0.352400         4    ;  uncertainty k = 0.138282
         6         5         4        26     9        0.000000        0.954700         1    ;  uncertainty k = 0.377356
         6         5         4        26     9      180.000000        8.819628         2    ;  uncertainty k = 0.292028
         6         5         4        26     9        0.000000        1.864982         3    ;  uncertainty k = 0.267327
         6         5         4        26     9      180.000000       -0.377917         4    ;  uncertainty k = 0.210062
         6         5         7         8     9        0.000000        6.938508         1    ;  uncertainty k = 0.914339
         6         5         7         8     9      180.000000        9.497243         2    ;  uncertainty k = 0.342218
         6         5         7         8     9        0.000000        1.312534         3    ;  uncertainty k = 0.340455
         6         5         7         8     9      180.000000       -0.549591         4    ;  uncertainty k = 0.268139
         6         5         7        27     9        0.000000        0.713541         1    ;  uncertainty k = 0.342832
         6         5         7        27     9      180.000000        8.667984         2    ;  uncertainty k = 0.453147
         6         5         7        27     9        0.000000        1.867006         3    ;  uncertainty k = 0.222364
         6         5         7        27     9      180.000000       -0.443811         4    ;  uncertainty k = 0.252469
         7         5         4        26     9        0.000000        2.840841         1    ;  uncertainty k = 0.918048
         7         5         4        26     9      180.000000        4.417857         2    ;  uncertainty k = 1.192848
         7         5         4        26     9        0.000000        0.896698         3    ;  uncertainty k = 0.320712
         7         5         4        26     9      180.000000       -0.379140         4    ;  uncertainty k = 0.206919
         7         8         9        10     9        0.000000        0.277278         1    ;  uncertainty k = 0.615656
         7         8         9        10     9      180.000000        8.304614         2    ;  uncertainty k = 0.484594
         7         8         9        10     9        0.000000        0.781972         3    ;  uncertainty k = 0.201871
         7         8         9        10     9      180.000000        1.337092         4    ;  uncertainty k = 0.291808
         7         8         9        17     9        0.000000        0.353473         1    ;  uncertainty k = 0.449759
         7         8         9        17     9      180.000000        6.335181         2    ;  uncertainty k = 0.770062
         7         8         9        17     9        0.000000        0.762699         3    ;  uncertainty k = 0.328523
         7         8         9        17     9      180.000000        1.504659         4    ;  uncertainty k = 0.296383
         7         8        20        19     9        0.000000       -0.104132         1    ;  uncertainty k = 0.141361
         7         8        20        19     9      180.000000       11.628690         2    ;  uncertainty k = 0.794318
         7         8        20        19     9        0.000000        1.107583         3    ;  uncertainty k = 0.487861
         7         8        20        19     9      180.000000        1.611587         4    ;  uncertainty k = 0.361445
         7         8        20        35     9        0.000000       -0.339226         1    ;  uncertainty k = 0.473731
         7         8        20        35     9      180.000000        8.956187         2    ;  uncertainty k = 0.817387
         7         8        20        35     9        0.000000        0.715306         3    ;  uncertainty k = 0.150871
         7         8        20        35     9      180.000000        1.268140         4    ;  uncertainty k = 0.406222
         8         9        10        11     9        0.000000        5.754822         1    ;  uncertainty k = 0.998932
         8         9        10        11     9      180.000000        3.942856         2    ;  uncertainty k = 0.477555
         8         9        10        11     9        0.000000        0.577475         3    ;  uncertainty k = 0.301422
         8         9        10        11     9      180.000000        0.068597         4    ;  uncertainty k = 0.142110
         8         9        17        18     9        0.000000        0.676651         1    ;  uncertainty k = 0.481267
         8         9        17        18     9      180.000000       12.337758         2    ;  uncertainty k = 0.384548
         8         9        17        18     9        0.000000        1.799559         3    ;  uncertainty k = 0.431189
         8         9        17        18     9      180.000000        1.358998         4    ;  uncertainty k = 0.224517
         8        20        19        18     9        0.000000       -0.219716         1    ;  uncertainty k = 0.258710
         8        20        19        18     9      180.000000       13.489343         2    ;  uncertainty k = 0.300398
         8        20        19        18     9        0.000000       -1.177535         3    ;  uncertainty k = 0.825068
         8        20        19        18     9      180.000000        0.747942         4    ;  uncertainty k = 0.391509
         8        20        19        34     9        0.000000        0.313278         1    ;  uncertainty k = 0.255484
         8        20        19        34     9      180.000000        7.639765         2    ;  uncertainty k = 0.597194
         8        20        19        34     9        0.000000        1.394865         3    ;  uncertainty k = 0.301688
         8        20        19        34     9      180.000000        1.632044         4    ;  uncertainty k = 0.213680
         9         8         7        27     9        0.000000        1.809916         1    ;  uncertainty k = 1.049574
         9         8         7        27     9      180.000000        2.184104         2    ;  uncertainty k = 0.856980
         9         8         7        27     9        0.000000       -0.055926         3    ;  uncertainty k = 0.368395
         9         8         7        27     9      180.000000       -0.094868         4    ;  uncertainty k = 0.135654
         9         8        20        19     9        0.000000       -0.045324         1    ;  uncertainty k = 0.346305
         9         8        20        19     9      180.000000        9.675694         2    ;  uncertainty k = 0.563614
         9         8        20        19     9        0.000000        0.089575         3    ;  uncertainty k = 0.421918
         9         8        20        19     9      180.000000        1.428809         4    ;  uncertainty k = 0.224623
         9         8        20        35     9        0.000000       -0.056220         1    ;  uncertainty k = 0.336147
         9         8        20        35     9      180.000000        7.154486         2    ;  uncertainty k = 0.386951
         9         8        20        35     9        0.000000        1.228552         3    ;  uncertainty k = 0.135669
         9         8        20        35     9      180.000000        1.474946         4    ;  uncertainty k = 0.079160
         9        10        11        12     9        0.000000        4.006340         1    ;  uncertainty k = 0.328668
         9        10        11        12     9      180.000000        5.147445         2    ;  uncertainty k = 0.163157
         9        10        11        12     9        0.000000        0.483053         3    ;  uncertainty k = 0.361492
         9        10        11        12     9      180.000000        0.291026         4    ;  uncertainty k = 0.112360
         9        10        11        16     9        0.000000        4.006340         1    ;  uncertainty k = 0.328668
         9        10        11        16     9      180.000000        5.147445         2    ;  uncertainty k = 0.163157
         9        10        11        16     9        0.000000        0.483053         3    ;  uncertainty k = 0.361492
         9        10        11        16     9      180.000000        0.291026         4    ;  uncertainty k = 0.112360
         9        17        18        19     9        0.000000       -0.133462         1    ;  uncertainty k = 0.695196
         9        17        18        19     9      180.000000       15.215294         2    ;  uncertainty k = 0.215445
         9        17        18        19     9        0.000000        0.737113         3    ;  uncertainty k = 0.573057
         9        17        18        19     9      180.000000        1.291838         4    ;  uncertainty k = 0.321443
         9        17        18        33     9        0.000000        0.068261         1    ;  uncertainty k = 0.501142
         9        17        18        33     9      180.000000       15.223386         2    ;  uncertainty k = 0.588645
         9        17        18        33     9        0.000000        2.120237         3    ;  uncertainty k = 0.703419
         9        17        18        33     9      180.000000        1.291634         4    ;  uncertainty k = 0.573906
        10         9         8        20     9        0.000000        0.755608         1    ;  uncertainty k = 0.305476
        10         9         8        20     9      180.000000        5.943992         2    ;  uncertainty k = 0.586914
        10         9         8        20     9        0.000000        0.895229         3    ;  uncertainty k = 0.160339
        10         9         8        20     9      180.000000        1.409935         4    ;  uncertainty k = 0.464126
        10         9        17        18     9        0.000000        0.643440         1    ;  uncertainty k = 1.001167
        10         9        17        18     9      180.000000       16.591889         2    ;  uncertainty k = 0.282206
        10         9        17        18     9        0.000000        2.798311         3    ;  uncertainty k = 0.528038
        10         9        17        18     9      180.000000        1.947226         4    ;  uncertainty k = 0.153455
        10        11        12        13     9        0.000000       -0.002335         1    ;  uncertainty k = 0.371719
        10        11        12        13     9      180.000000       10.851405         2    ;  uncertainty k = 0.395548
        10        11        12        13     9        0.000000        1.323271         3    ;  uncertainty k = 0.206183
        10        11        12        13     9      180.000000        1.627678         4    ;  uncertainty k = 0.105288
        10        11        12        28     9        0.000000        0.078438         1    ;  uncertainty k = 0.114042
        10        11        12        28     9      180.000000        8.388724         2    ;  uncertainty k = 0.222150
        10        11        12        28     9        0.000000        0.883065         3    ;  uncertainty k = 0.264517
        10        11        12        28     9      180.000000        1.087637         4    ;  uncertainty k = 0.179606
        10        11        16        15     9        0.000000       -0.002335         1    ;  uncertainty k = 0.371719
        10        11        16        15     9      180.000000       10.851405         2    ;  uncertainty k = 0.395548
        10        11        16        15     9        0.000000        1.323271         3    ;  uncertainty k = 0.206183
        10        11        16        15     9      180.000000        1.627678         4    ;  uncertainty k = 0.105288
        10        11        16        32     9        0.000000        0.078438         1    ;  uncertainty k = 0.114042
        10        11        16        32     9      180.000000        8.388724         2    ;  uncertainty k = 0.222150
        10        11        16        32     9        0.000000        0.883065         3    ;  uncertainty k = 0.264517
        10        11        16        32     9      180.000000        1.087637         4    ;  uncertainty k = 0.179606
        11        10         9        17     9        0.000000        1.747344         1    ;  uncertainty k = 0.866050
        11        10         9        17     9      180.000000        6.597121         2    ;  uncertainty k = 0.114448
        11        10         9        17     9        0.000000        0.113212         3    ;  uncertainty k = 0.506292
        11        10         9        17     9      180.000000        0.110065         4    ;  uncertainty k = 0.126191
        11        12        13        14     9        0.000000       -0.284928         1    ;  uncertainty k = 0.188922
        11        12        13        14     9      180.000000       14.302654         2    ;  uncertainty k = 0.290266
        11        12        13        14     9        0.000000       -0.974288         3    ;  uncertainty k = 0.575967
        11        12        13        14     9      180.000000        0.738900         4    ;  uncertainty k = 0.283465
        11        12        13        29     9        0.000000        0.032621         1    ;  uncertainty k = 0.112570
        11        12        13        29     9      180.000000        7.893442         2    ;  uncertainty k = 0.320762
        11        12        13        29     9        0.000000        1.346869         3    ;  uncertainty k = 0.178209
        11        12        13        29     9      180.000000        1.729347         4    ;  uncertainty k = 0.163263
        11        16        15        14     9        0.000000       -0.284928         1    ;  uncertainty k = 0.188922
        11        16        15        14     9      180.000000       14.302654         2    ;  uncertainty k = 0.290266
        11        16        15        14     9        0.000000       -0.974288         3    ;  uncertainty k = 0.575967
        11        16        15        14     9      180.000000        0.738900         4    ;  uncertainty k = 0.283465
        11        16        15        31     9        0.000000        0.032621         1    ;  uncertainty k = 0.112570
        11        16        15        31     9      180.000000        7.893442         2    ;  uncertainty k = 0.320762
        11        16        15        31     9        0.000000        1.346869         3    ;  uncertainty k = 0.178209
        11        16        15        31     9      180.000000        1.729347         4    ;  uncertainty k = 0.163263
        12        11        16        15     9        0.000000       -0.069071         1    ;  uncertainty k = 0.050138
        12        11        16        15     9      180.000000       10.166944         2    ;  uncertainty k = 0.509769
        12        11        16        15     9        0.000000       -0.288505         3    ;  uncertainty k = 0.319539
        12        11        16        15     9      180.000000        1.037686         4    ;  uncertainty k = 0.358924
        12        11        16        32     9        0.000000        0.259341         1    ;  uncertainty k = 0.278351
        12        11        16        32     9      180.000000        6.326439         2    ;  uncertainty k = 0.791523
        12        11        16        32     9        0.000000        1.393018         3    ;  uncertainty k = 0.404988
        12        11        16        32     9      180.000000        1.582616         4    ;  uncertainty k = 0.219951
        12        13        14        15     9        0.000000       -0.078761         1    ;  uncertainty k = 0.053699
        12        13        14        15     9      180.000000       15.251135         2    ;  uncertainty k = 0.356765
        12        13        14        15     9        0.000000       -1.184041         3    ;  uncertainty k = 0.493838
        12        13        14        15     9      180.000000        0.514393         4    ;  uncertainty k = 0.256850
        12        13        14        30     9        0.000000        0.022347         1    ;  uncertainty k = 0.155352
        12        13        14        30     9      180.000000        7.627140         2    ;  uncertainty k = 0.291875
        12        13        14        30     9        0.000000        1.501936         3    ;  uncertainty k = 0.303392
        12        13        14        30     9      180.000000        1.814376         4    ;  uncertainty k = 0.152161
        13        12        11        16     9        0.000000       -0.069071         1    ;  uncertainty k = 0.050138
        13        12        11        16     9      180.000000       10.166944         2    ;  uncertainty k = 0.509769
        13        12        11        16     9        0.000000       -0.288505         3    ;  uncertainty k = 0.319539
        13        12        11        16     9      180.000000        1.037686         4    ;  uncertainty k = 0.358924
        13        14        15        16     9        0.000000       -0.078761         1    ;  uncertainty k = 0.053699
        13        14        15        16     9      180.000000       15.251135         2    ;  uncertainty k = 0.356765
        13        14        15        16     9        0.000000       -1.184041         3    ;  uncertainty k = 0.493838
        13        14        15        16     9      180.000000        0.514393         4    ;  uncertainty k = 0.256850
        13        14        15        31     9        0.000000        0.049297         1    ;  uncertainty k = 0.069202
        13        14        15        31     9      180.000000        7.505023         2    ;  uncertainty k = 0.296021
        13        14        15        31     9        0.000000        1.420224         3    ;  uncertainty k = 0.316387
        13        14        15        31     9      180.000000        1.755206         4    ;  uncertainty k = 0.156827
        14        13        12        28     9        0.000000        0.139702         1    ;  uncertainty k = 0.081466
        14        13        12        28     9      180.000000        7.754642         2    ;  uncertainty k = 0.368219
        14        13        12        28     9        0.000000        1.461660         3    ;  uncertainty k = 0.312353
        14        13        12        28     9      180.000000        1.854913         4    ;  uncertainty k = 0.156161
        14        15        16        32     9        0.000000        0.139702         1    ;  uncertainty k = 0.081466
        14        15        16        32     9      180.000000        7.754642         2    ;  uncertainty k = 0.368219
        14        15        16        32     9        0.000000        1.461660         3    ;  uncertainty k = 0.312353
        14        15        16        32     9      180.000000        1.854913         4    ;  uncertainty k = 0.156161
        15        14        13        29     9        0.000000        0.049297         1    ;  uncertainty k = 0.069202
        15        14        13        29     9      180.000000        7.505023         2    ;  uncertainty k = 0.296021
        15        14        13        29     9        0.000000        1.420224         3    ;  uncertainty k = 0.316387
        15        14        13        29     9      180.000000        1.755206         4    ;  uncertainty k = 0.156827
        16        11        12        28     9        0.000000        0.259341         1    ;  uncertainty k = 0.278351
        16        11        12        28     9      180.000000        6.326439         2    ;  uncertainty k = 0.791523
        16        11        12        28     9        0.000000        1.393018         3    ;  uncertainty k = 0.404988
        16        11        12        28     9      180.000000        1.582616         4    ;  uncertainty k = 0.219951
        16        15        14        30     9        0.000000        0.022347         1    ;  uncertainty k = 0.155352
        16        15        14        30     9      180.000000        7.627140         2    ;  uncertainty k = 0.291875
        16        15        14        30     9        0.000000        1.501936         3    ;  uncertainty k = 0.303392
        16        15        14        30     9      180.000000        1.814376         4    ;  uncertainty k = 0.152161
        17         9         8        20     9        0.000000       -0.006295         1    ;  uncertainty k = 0.585644
        17         9         8        20     9      180.000000        5.409165         2    ;  uncertainty k = 1.404243
        17         9         8        20     9        0.000000       -0.113620         3    ;  uncertainty k = 0.195163
        17         9         8        20     9      180.000000        1.221279         4    ;  uncertainty k = 0.563246
        17        18        19        20     9        0.000000        0.122912         1    ;  uncertainty k = 0.377649
        17        18        19        20     9      180.000000       16.205385         2    ;  uncertainty k = 0.253451
        17        18        19        20     9        0.000000       -1.374142         3    ;  uncertainty k = 0.567402
        17        18        19        20     9      180.000000        0.764887         4    ;  uncertainty k = 0.233190
        17        18        19        34     9        0.000000        0.109573         1    ;  uncertainty k = 0.140060
        17        18        19        34     9      180.000000       10.004732         2    ;  uncertainty k = 0.564196
        17        18        19        34     9        0.000000        0.906339         3    ;  uncertainty k = 0.280019
        17        18        19        34     9      180.000000        1.603453         4    ;  uncertainty k = 0.128881
        18        19        20        35     9        0.000000       -0.096932         1    ;  uncertainty k = 0.224659
        18        19        20        35     9      180.000000        7.599749         2    ;  uncertainty k = 0.300024
        18        19        20        35     9        0.000000        1.345914         3    ;  uncertainty k = 0.259018
        18        19        20        35     9      180.000000        1.606126         4    ;  uncertainty k = 0.220858
        20         8         7        27     9        0.000000        0.848164         1    ;  uncertainty k = 0.508399
        20         8         7        27     9      180.000000        2.941026         2    ;  uncertainty k = 0.300123
        20         8         7        27     9        0.000000        0.417155         3    ;  uncertainty k = 0.206641
        20         8         7        27     9      180.000000        0.143213         4    ;  uncertainty k = 0.162479
        20        19        18        33     9        0.000000       -0.129492         1    ;  uncertainty k = 0.287892
        20        19        18        33     9      180.000000        6.663212         2    ;  uncertainty k = 0.558016
        20        19        18        33     9        0.000000        1.279159         3    ;  uncertainty k = 0.228439
        20        19        18        33     9      180.000000        1.542370         4    ;  uncertainty k = 0.207680
        21         3         2        25     9        0.000000       -0.347846         1    ;  uncertainty k = 0.707678
        21         3         2        25     9      180.000000        5.498151         2    ;  uncertainty k = 1.280336
        21         3         2        25     9        0.000000        0.274929         3    ;  uncertainty k = 0.386588
        21         3         2        25     9      180.000000        1.396833         4    ;  uncertainty k = 0.329412
        21         3         4        26     9        0.000000        0.307704         1    ;  uncertainty k = 0.470379
        21         3         4        26     9      180.000000        2.973551         2    ;  uncertainty k = 0.198975
        21         3         4        26     9        0.000000        0.311996         3    ;  uncertainty k = 0.135945
        21         3         4        26     9      180.000000       -0.004471         4    ;  uncertainty k = 0.147942
        21        22        23        24     9        0.000000       -0.029063         1    ;  uncertainty k = 0.270457
        21        22        23        24     9      180.000000       11.951016         2    ;  uncertainty k = 0.496814
        21        22        23        24     9        0.000000        1.487440         3    ;  uncertainty k = 0.321591
        21        22        23        24     9      180.000000        1.558964         4    ;  uncertainty k = 0.244594
        21        22        23        25     9        0.000000       -0.145017         1    ;  uncertainty k = 0.198922
        21        22        23        25     9      180.000000        9.651565         2    ;  uncertainty k = 0.544606
        21        22        23        25     9        0.000000       -0.239046         3    ;  uncertainty k = 0.338082
        21        22        23        25     9      180.000000        1.154011         4    ;  uncertainty k = 0.240193
        22        23        25        38     9        0.000000        0.151418         1    ;  uncertainty k = 0.137718
        22        23        25        38     9      180.000000        5.401458         2    ;  uncertainty k = 0.651709
        22        23        25        38     9        0.000000        1.287176         3    ;  uncertainty k = 0.273676
        22        23        25        38     9      180.000000        1.452362         4    ;  uncertainty k = 0.206284
        23        22        21        36     9        0.000000       -0.020916         1    ;  uncertainty k = 0.214500
        23        22        21        36     9      180.000000        8.038453         2    ;  uncertainty k = 0.394853
        23        22        21        36     9        0.000000        1.372910         3    ;  uncertainty k = 0.244469
        23        22        21        36     9      180.000000        1.777416         4    ;  uncertainty k = 0.166593
        24        23        22        37     9        0.000000       -0.400128         1    ;  uncertainty k = 0.228453
        24        23        22        37     9      180.000000        8.688984         2    ;  uncertainty k = 0.258478
        24        23        22        37     9        0.000000        0.812386         3    ;  uncertainty k = 0.243970
        24        23        22        37     9      180.000000        0.931610         4    ;  uncertainty k = 0.182856
        24        23        25        38     9        0.000000       -0.291300         1    ;  uncertainty k = 0.270825
        24        23        25        38     9      180.000000        8.289552         2    ;  uncertainty k = 0.324951
        24        23        25        38     9        0.000000        0.815180         3    ;  uncertainty k = 0.327930
        24        23        25        38     9      180.000000        0.995860         4    ;  uncertainty k = 0.217002
        25        23        22        37     9        0.000000        0.053888         1    ;  uncertainty k = 0.209744
        25        23        22        37     9      180.000000        5.663164         2    ;  uncertainty k = 0.622745
        25        23        22        37     9        0.000000        1.285342         3    ;  uncertainty k = 0.316149
        25        23        22        37     9      180.000000        1.505280         4    ;  uncertainty k = 0.194728
        28        12        13        29     9        0.000000       -0.093101         1    ;  uncertainty k = 0.184238
        28        12        13        29     9      180.000000        7.371465         2    ;  uncertainty k = 0.345744
        28        12        13        29     9        0.000000       -0.390529         3    ;  uncertainty k = 0.265590
        28        12        13        29     9      180.000000        0.136530         4    ;  uncertainty k = 0.088247
        29        13        14        30     9        0.000000        0.014776         1    ;  uncertainty k = 0.087448
        29        13        14        30     9      180.000000        7.449208         2    ;  uncertainty k = 0.405378
        29        13        14        30     9        0.000000       -0.387864         3    ;  uncertainty k = 0.280466
        29        13        14        30     9      180.000000        0.038310         4    ;  uncertainty k = 0.151167
        30        14        15        31     9        0.000000        0.014776         1    ;  uncertainty k = 0.087448
        30        14        15        31     9      180.000000        7.449208         2    ;  uncertainty k = 0.405378
        30        14        15        31     9        0.000000       -0.387864         3    ;  uncertainty k = 0.280466
        30        14        15        31     9      180.000000        0.038310         4    ;  uncertainty k = 0.151167
        31        15        16        32     9        0.000000       -0.093101         1    ;  uncertainty k = 0.184238
        31        15        16        32     9      180.000000        7.371465         2    ;  uncertainty k = 0.345744
        31        15        16        32     9        0.000000       -0.390529         3    ;  uncertainty k = 0.265590
        31        15        16        32     9      180.000000        0.136530         4    ;  uncertainty k = 0.088247
        33        18        19        34     9        0.000000       -0.176778         1    ;  uncertainty k = 0.222996
        33        18        19        34     9      180.000000        6.567607         2    ;  uncertainty k = 0.260169
        33        18        19        34     9        0.000000       -0.010460         3    ;  uncertainty k = 0.138988
        33        18        19        34     9      180.000000        0.217242         4    ;  uncertainty k = 0.090307
        34        19        20        35     9        0.000000        0.077279         1    ;  uncertainty k = 0.355604
        34        19        20        35     9      180.000000        7.819656         2    ;  uncertainty k = 0.531204
        34        19        20        35     9        0.000000       -0.430593         3    ;  uncertainty k = 0.317162
        34        19        20        35     9      180.000000        0.145196         4    ;  uncertainty k = 0.160605
        36        21        22        37     9        0.000000       -0.019828         1    ;  uncertainty k = 0.436153
        36        21        22        37     9      180.000000        7.844474         2    ;  uncertainty k = 0.402231
        36        21        22        37     9        0.000000       -0.352063         3    ;  uncertainty k = 0.208758
        36        21        22        37     9      180.000000        0.147197         4    ;  uncertainty k = 0.147423

[ dihedrals ] ; impropers
;       ai        aj        ak        al funct           phase               k        pn
         2         1         3        25     4      180.000000       13.044015         2    ;  uncertainty k = 0.157284
         2         3        25         1     4      180.000000       13.044015         2    ;  uncertainty k = 0.157284
         2        25         1         3     4      180.000000       13.044015         2    ;  uncertainty k = 0.157284
         3         2         4        21     4      180.000000       13.263524         2    ;  uncertainty k = 0.082270
         3         4        21         2     4      180.000000       13.263524         2    ;  uncertainty k = 0.082270
         3        21         2         4     4      180.000000       13.263524         2    ;  uncertainty k = 0.082270
         4         3         5        26     4      180.000000        0.405461         2    ;  uncertainty k = 0.506049
         4         5        26         3     4      180.000000        0.405461         2    ;  uncertainty k = 0.506049
         4        26         3         5     4      180.000000        0.405461         2    ;  uncertainty k = 0.506049
         5         4         6         7     4      180.000000       63.041132         2    ;  uncertainty k = 0.062029
         5         6         7         4     4      180.000000       63.041132         2    ;  uncertainty k = 0.062029
         5         7         4         6     4      180.000000       63.041132         2    ;  uncertainty k = 0.062029
         7         5         8        27     4      180.000000        0.392996         2    ;  uncertainty k = 0.571996
         7         8        27         5     4      180.000000        0.392996         2    ;  uncertainty k = 0.571996
         7        27         5         8     4      180.000000        0.392996         2    ;  uncertainty k = 0.571996
         8         7         9        20     4      180.000000       13.075344         2    ;  uncertainty k = 0.235825
         8         9        20         7     4      180.000000       13.075344         2    ;  uncertainty k = 0.235825
         8        20         7         9     4      180.000000       13.075344         2    ;  uncertainty k = 0.235825
         9         8        10        17     4      180.000000       23.632804         2    ;  uncertainty k = 0.091092
         9        10        17         8     4      180.000000       23.632804         2    ;  uncertainty k = 0.091092
         9        17         8        10     4      180.000000       23.632804         2    ;  uncertainty k = 0.091092
        11        10        12        16     4      180.000000       16.138434         2    ;  uncertainty k = 0.095011
        11        12        16        10     4      180.000000       16.138434         2    ;  uncertainty k = 0.095011
        11        16        10        12     4      180.000000       16.138434         2    ;  uncertainty k = 0.095011
        12        11        13        28     4      180.000000        2.770560         2    ;  uncertainty k = 0.074637
        12        13        28        11     4      180.000000        2.770560         2    ;  uncertainty k = 0.074637
        12        28        11        13     4      180.000000        2.770560         2    ;  uncertainty k = 0.074637
        13        12        14        29     4      180.000000        4.517354         2    ;  uncertainty k = 0.103501
        13        14        29        12     4      180.000000        4.517354         2    ;  uncertainty k = 0.103501
        13        29        12        14     4      180.000000        4.517354         2    ;  uncertainty k = 0.103501
        14        13        15        30     4      180.000000        3.722395         2    ;  uncertainty k = 0.149569
        14        15        30        13     4      180.000000        3.722395         2    ;  uncertainty k = 0.149569
        14        30        13        15     4      180.000000        3.722395         2    ;  uncertainty k = 0.149569
        15        14        16        31     4      180.000000        4.517354         2    ;  uncertainty k = 0.103501
        15        16        31        14     4      180.000000        4.517354         2    ;  uncertainty k = 0.103501
        15        31        14        16     4      180.000000        4.517354         2    ;  uncertainty k = 0.103501
        16        11        15        32     4      180.000000        2.770560         2    ;  uncertainty k = 0.074637
        16        15        32        11     4      180.000000        2.770560         2    ;  uncertainty k = 0.074637
        16        32        11        15     4      180.000000        2.770560         2    ;  uncertainty k = 0.074637
        18        17        19        33     4      180.000000       11.532156         2    ;  uncertainty k = 0.089529
        18        19        33        17     4      180.000000       11.532156         2    ;  uncertainty k = 0.089529
        18        33        17        19     4      180.000000       11.532156         2    ;  uncertainty k = 0.089529
        19        18        20        34     4      180.000000        2.219267         2    ;  uncertainty k = 0.396247
        19        20        34        18     4      180.000000        2.219267         2    ;  uncertainty k = 0.396247
        19        34        18        20     4      180.000000        2.219267         2    ;  uncertainty k = 0.396247
        20         8        19        35     4      180.000000        4.523752         2    ;  uncertainty k = 0.211544
        20        19        35         8     4      180.000000        4.523752         2    ;  uncertainty k = 0.211544
        20        35         8        19     4      180.000000        4.523752         2    ;  uncertainty k = 0.211544
        21         3        22        36     4      180.000000        3.554817         2    ;  uncertainty k = 0.313000
        21        22        36         3     4      180.000000        3.554817         2    ;  uncertainty k = 0.313000
        21        36         3        22     4      180.000000        3.554817         2    ;  uncertainty k = 0.313000
        22        21        23        37     4      180.000000        1.684238         2    ;  uncertainty k = 0.242394
        22        23        37        21     4      180.000000        1.684238         2    ;  uncertainty k = 0.242394
        22        37        21        23     4      180.000000        1.684238         2    ;  uncertainty k = 0.242394
        23        22        24        25     4      180.000000       16.377076         2    ;  uncertainty k = 0.056613
        23        24        25        22     4      180.000000       16.377076         2    ;  uncertainty k = 0.056613
        23        25        22        24     4      180.000000       16.377076         2    ;  uncertainty k = 0.056613
        25         2        23        38     4      180.000000        0.995247         2    ;  uncertainty k = 0.395215
        25        23        38         2     4      180.000000        0.995247         2    ;  uncertainty k = 0.395215
        25        38         2        23     4      180.000000        0.995247         2    ;  uncertainty k = 0.395215

[ pairs ]
;       ai        aj funct
         1         4     1
         1        21     1
         1        23     1
         1        38     1
         2         5     1
         2        22     1
         2        24     1
         2        26     1
         2        36     1
         3         6     1
         3         7     1
         3        23     1
         3        37     1
         3        38     1
         4         8     1
         4        22     1
         4        25     1
         4        27     1
         4        36     1
         5         9     1
         5        20     1
         5        21     1
         6         8     1
         6        26     1
         6        27     1
         7        10     1
         7        17     1
         7        19     1
         7        26     1
         7        35     1
         8        11     1
         8        18     1
         8        34     1
         9        12     1
         9        16     1
         9        19     1
         9        27     1
         9        33     1
         9        35     1
        10        13     1
        10        15     1
        10        18     1
        10        20     1
        10        28     1
        10        32     1
        11        14     1
        11        17     1
        11        29     1
        11        31     1
        12        15     1
        12        30     1
        12        32     1
        13        16     1
        13        31     1
        14        28     1
        14        32     1
        15        29     1
        16        28     1
        16        30     1
        17        20     1
        17        34     1
        18        35     1
        20        27     1
        20        33     1
        21        24     1
        21        25     1
        21        26     1
        22        38     1
        23        36     1
        24        37     1
        24        38     1
        25        37     1
        28        29     1
        29        30     1
        30        31     1
        31        32     1
        33        34     1
        34        35     1
        36        37     1
