; ITP file created by ByteFF-joint-25, 2026-03-15 01:34:53.497173

[ atomtypes ]
;name           bonded.type        at.num        mass        charge   ptype           sigma         epsilon
 f0bf                                   9      0.0000       0.00000       A     3.03460e-01     3.48159e-01    ;  uncertainty sigma = 0.000009, epsilon = 0.001179
 c1bf                                   6      0.0000       0.00000       A     3.31524e-01     4.13420e-01    ;  uncertainty sigma = 0.000010, epsilon = 0.000431
 c2bf                                   6      0.0000       0.00000       A     3.31557e-01     4.13180e-01    ;  uncertainty sigma = 0.000013, epsilon = 0.000992
 n3bf                                   7      0.0000       0.00000       A     3.26938e-01     4.90358e-01    ;  uncertainty sigma = 0.000022, epsilon = 0.001866
 c4bf                                   6      0.0000       0.00000       A     3.31417e-01     4.11960e-01    ;  uncertainty sigma = 0.000092, epsilon = 0.001611
 o5bf                                   8      0.0000       0.00000       A     3.04768e-01     6.12506e-01    ;  uncertainty sigma = 0.000026, epsilon = 0.002291
 n6bf                                   7      0.0000       0.00000       A     3.26911e-01     4.90562e-01    ;  uncertainty sigma = 0.000022, epsilon = 0.003078
 c7bf                                   6      0.0000       0.00000       A     3.31550e-01     4.12934e-01    ;  uncertainty sigma = 0.000036, epsilon = 0.001226
 c8bf                                   6      0.0000       0.00000       A     3.31574e-01     4.13378e-01    ;  uncertainty sigma = 0.000017, epsilon = 0.000574
 o9bf                                   8      0.0000       0.00000       A     3.15764e-01     3.04464e-01    ;  uncertainty sigma = 0.000026, epsilon = 0.003346
 c10bf                                  6      0.0000       0.00000       A     3.31533e-01     4.12587e-01    ;  uncertainty sigma = 0.000015, epsilon = 0.000889
 c11bf                                  6      0.0000       0.00000       A     3.31543e-01     4.13917e-01    ;  uncertainty sigma = 0.000018, epsilon = 0.001447
 c12bf                                  6      0.0000       0.00000       A     3.39800e-01     4.51450e-01    ;  uncertainty sigma = 0.000009, epsilon = 0.001229
 c13bf                                  6      0.0000       0.00000       A     3.39766e-01     4.50871e-01    ;  uncertainty sigma = 0.000004, epsilon = 0.000384
 c14bf                                  6      0.0000       0.00000       A     3.39766e-01     4.50871e-01    ;  uncertainty sigma = 0.000004, epsilon = 0.000384
 c15bf                                  6      0.0000       0.00000       A     3.39766e-01     4.50871e-01    ;  uncertainty sigma = 0.000004, epsilon = 0.000384
 c16bf                                  6      0.0000       0.00000       A     3.31539e-01     4.13149e-01    ;  uncertainty sigma = 0.000007, epsilon = 0.000841
 c17bf                                  6      0.0000       0.00000       A     3.31516e-01     4.13243e-01    ;  uncertainty sigma = 0.000002, epsilon = 0.000537
 c18bf                                  6      0.0000       0.00000       A     3.31522e-01     4.13430e-01    ;  uncertainty sigma = 0.000004, epsilon = 0.000523
 c19bf                                  6      0.0000       0.00000       A     3.31533e-01     4.13216e-01    ;  uncertainty sigma = 0.000013, epsilon = 0.000369
 n20bf                                  7      0.0000       0.00000       A     3.38387e-01     3.93418e-01    ;  uncertainty sigma = 0.000011, epsilon = 0.000773
 c21bf                                  6      0.0000       0.00000       A     3.31528e-01     4.13303e-01    ;  uncertainty sigma = 0.000012, epsilon = 0.000565
 c22bf                                  6      0.0000       0.00000       A     3.31519e-01     4.13136e-01    ;  uncertainty sigma = 0.000006, epsilon = 0.000735
 c23bf                                  6      0.0000       0.00000       A     3.31539e-01     4.13382e-01    ;  uncertainty sigma = 0.000004, epsilon = 0.001208
 c24bf                                  6      0.0000       0.00000       A     3.31514e-01     4.13398e-01    ;  uncertainty sigma = 0.000007, epsilon = 0.000800
 c25bf                                  6      0.0000       0.00000       A     3.31520e-01     4.13283e-01    ;  uncertainty sigma = 0.000005, epsilon = 0.000612
 c26bf                                  6      0.0000       0.00000       A     3.31522e-01     4.13330e-01    ;  uncertainty sigma = 0.000006, epsilon = 0.000632
 f27bf                                  9      0.0000       0.00000       A     3.03426e-01     3.47978e-01    ;  uncertainty sigma = 0.000008, epsilon = 0.000768
 c28bf                                  6      0.0000       0.00000       A     3.31518e-01     4.13223e-01    ;  uncertainty sigma = 0.000007, epsilon = 0.000597
 h29bf                                  1      0.0000       0.00000       A     1.10684e-01     4.18807e-02    ;  uncertainty sigma = 0.000084, epsilon = 0.000944
 h30bf                                  1      0.0000       0.00000       A     1.10682e-01     4.19025e-02    ;  uncertainty sigma = 0.000080, epsilon = 0.001074
 h31bf                                  1      0.0000       0.00000       A     2.60023e-01     8.66594e-02    ;  uncertainty sigma = 0.000006, epsilon = 0.000286
 h32bf                                  1      0.0000       0.00000       A     2.60023e-01     8.66594e-02    ;  uncertainty sigma = 0.000006, epsilon = 0.000286
 h33bf                                  1      0.0000       0.00000       A     2.60023e-01     8.66594e-02    ;  uncertainty sigma = 0.000006, epsilon = 0.000286
 h34bf                                  1      0.0000       0.00000       A     2.60023e-01     8.66594e-02    ;  uncertainty sigma = 0.000006, epsilon = 0.000286
 h35bf                                  1      0.0000       0.00000       A     2.60023e-01     8.66594e-02    ;  uncertainty sigma = 0.000006, epsilon = 0.000286
 h36bf                                  1      0.0000       0.00000       A     2.60023e-01     8.66594e-02    ;  uncertainty sigma = 0.000006, epsilon = 0.000286
 h37bf                                  1      0.0000       0.00000       A     2.60023e-01     8.66594e-02    ;  uncertainty sigma = 0.000006, epsilon = 0.000286
 h38bf                                  1      0.0000       0.00000       A     2.60023e-01     8.66594e-02    ;  uncertainty sigma = 0.000006, epsilon = 0.000286
 h39bf                                  1      0.0000       0.00000       A     2.60023e-01     8.66594e-02    ;  uncertainty sigma = 0.000006, epsilon = 0.000286
 h40bf                                  1      0.0000       0.00000       A     2.62550e-01     6.71729e-02    ;  uncertainty sigma = 0.000018, epsilon = 0.000412
 h41bf                                  1      0.0000       0.00000       A     2.62558e-01     6.70323e-02    ;  uncertainty sigma = 0.000010, epsilon = 0.000442
 h42bf                                  1      0.0000       0.00000       A     2.62562e-01     6.69705e-02    ;  uncertainty sigma = 0.000010, epsilon = 0.000501
 h43bf                                  1      0.0000       0.00000       A     2.62554e-01     6.70866e-02    ;  uncertainty sigma = 0.000005, epsilon = 0.000421
 h44bf                                  1      0.0000       0.00000       A     2.53636e-01     6.70245e-02    ;  uncertainty sigma = 0.000013, epsilon = 0.000470
 h45bf                                  1      0.0000       0.00000       A     2.62567e-01     6.71101e-02    ;  uncertainty sigma = 0.000011, epsilon = 0.000575
 h46bf                                  1      0.0000       0.00000       A     2.62550e-01     6.71051e-02    ;  uncertainty sigma = 0.000018, epsilon = 0.000451
 h47bf                                  1      0.0000       0.00000       A     2.62556e-01     6.69780e-02    ;  uncertainty sigma = 0.000014, epsilon = 0.000427
 h48bf                                  1      0.0000       0.00000       A     2.62565e-01     6.70529e-02    ;  uncertainty sigma = 0.000013, epsilon = 0.000444
 h49bf                                  1      0.0000       0.00000       A     2.62561e-01     6.73635e-02    ;  uncertainty sigma = 0.000010, epsilon = 0.000362

[ moleculetype ]
;name             nrexcl
 MOL                   3

[ atoms ]
;       nr            type      resi   res      atom      cgnr      charge          mass ; qtot
         1            f0bf         1   UNL        f0         1    -0.14472       18.9980 ; qtot   -0.145
         2            c1bf         1   UNL        c1         2     0.11068       12.0110 ; qtot   -0.034
         3            c2bf         1   UNL        c2         3     0.03080       12.0110 ; qtot   -0.003
         4            n3bf         1   UNL        n3         4    -0.47988       14.0070 ; qtot   -0.483
         5            c4bf         1   UNL        c4         5     0.79837       12.0110 ; qtot    0.315
         6            o5bf         1   UNL        o5         6    -0.59331       15.9990 ; qtot   -0.278
         7            n6bf         1   UNL        n6         7    -0.47318       14.0070 ; qtot   -0.751
         8            c7bf         1   UNL        c7         8    -0.04623       12.0110 ; qtot   -0.797
         9            c8bf         1   UNL        c8         9     0.59867       12.0110 ; qtot   -0.199
        10            o9bf         1   UNL        o9        10    -0.39242       15.9990 ; qtot   -0.591
        11           c10bf         1   UNL       c10        11     0.10284       12.0110 ; qtot   -0.488
        12           c11bf         1   UNL       c11        12    -0.05637       12.0110 ; qtot   -0.545
        13           c12bf         1   UNL       c12        13     0.00501       12.0110 ; qtot   -0.540
        14           c13bf         1   UNL       c13        14    -0.08679       12.0110 ; qtot   -0.627
        15           c14bf         1   UNL       c14        15    -0.08679       12.0110 ; qtot   -0.713
        16           c15bf         1   UNL       c15        16    -0.08679       12.0110 ; qtot   -0.800
        17           c16bf         1   UNL       c16        17    -0.11966       12.0110 ; qtot   -0.920
        18           c17bf         1   UNL       c17        18    -0.14369       12.0110 ; qtot   -1.063
        19           c18bf         1   UNL       c18        19    -0.11464       12.0110 ; qtot   -1.178
        20           c19bf         1   UNL       c19        20    -0.13200       12.0110 ; qtot   -1.310
        21           n20bf         1   UNL       n20        21    -0.69793       14.0070 ; qtot   -2.008
        22           c21bf         1   UNL       c21        22     0.39652       12.0110 ; qtot   -1.612
        23           c22bf         1   UNL       c22        23    -0.24092       12.0110 ; qtot   -1.852
        24           c23bf         1   UNL       c23        24    -0.10097       12.0110 ; qtot   -1.953
        25           c24bf         1   UNL       c24        25    -0.10855       12.0110 ; qtot   -2.062
        26           c25bf         1   UNL       c25        26    -0.15340       12.0110 ; qtot   -2.215
        27           c26bf         1   UNL       c26        27     0.12944       12.0110 ; qtot   -2.086
        28           f27bf         1   UNL       f27        28    -0.13815       18.9980 ; qtot   -2.224
        29           c28bf         1   UNL       c28        29    -0.17866       12.0110 ; qtot   -2.403
        30           h29bf         1   UNL       h29        30     0.33387        1.0080 ; qtot   -2.069
        31           h30bf         1   UNL       h30        31     0.34303        1.0080 ; qtot   -1.726
        32           h31bf         1   UNL       h31        32     0.03697        1.0080 ; qtot   -1.689
        33           h32bf         1   UNL       h32        33     0.03697        1.0080 ; qtot   -1.652
        34           h33bf         1   UNL       h33        34     0.03697        1.0080 ; qtot   -1.615
        35           h34bf         1   UNL       h34        35     0.03697        1.0080 ; qtot   -1.578
        36           h35bf         1   UNL       h35        36     0.03697        1.0080 ; qtot   -1.541
        37           h36bf         1   UNL       h36        37     0.03697        1.0080 ; qtot   -1.504
        38           h37bf         1   UNL       h37        38     0.03697        1.0080 ; qtot   -1.467
        39           h38bf         1   UNL       h38        39     0.03697        1.0080 ; qtot   -1.430
        40           h39bf         1   UNL       h39        40     0.03697        1.0080 ; qtot   -1.393
        41           h40bf         1   UNL       h40        41     0.13450        1.0080 ; qtot   -1.259
        42           h41bf         1   UNL       h41        42     0.13417        1.0080 ; qtot   -1.124
        43           h42bf         1   UNL       h42        43     0.13677        1.0080 ; qtot   -0.988
        44           h43bf         1   UNL       h43        44     0.14870        1.0080 ; qtot   -0.839
        45           h44bf         1   UNL       h44        45     0.02625        1.0080 ; qtot   -0.813
        46           h45bf         1   UNL       h45        46     0.14569        1.0080 ; qtot   -0.667
        47           h46bf         1   UNL       h46        47     0.17117        1.0080 ; qtot   -0.496
        48           h47bf         1   UNL       h47        48     0.16909        1.0080 ; qtot   -0.327
        49           h48bf         1   UNL       h48        49     0.15700        1.0080 ; qtot   -0.170
        50           h49bf         1   UNL       h49        50     0.16975        1.0080 ; qtot   -0.000

[ bonds ]
;       ai        aj funct               r               k
         1         2     1        0.135857   334360.948242    ;  uncertainty r = 0.000090, k = 8.876603
         2         3     1        0.139859   349911.260254    ;  uncertainty r = 0.000046, k = 8.933351
         2        29     1        0.138599   357518.994971    ;  uncertainty r = 0.000038, k = 2.940046
         3         4     1        0.140639   329349.443750    ;  uncertainty r = 0.000086, k = 8.035993
         3        25     1        0.140083   346869.177637    ;  uncertainty r = 0.000051, k = 3.021680
         4         5     1        0.140076   385416.141846    ;  uncertainty r = 0.000128, k = 16.617992
         4        30     1        0.101809   421827.641895    ;  uncertainty r = 0.000091, k = 3.454328
         5         6     1        0.124129   777655.543945    ;  uncertainty r = 0.000120, k = 11.115127
         5         7     1        0.139803   380073.242285    ;  uncertainty r = 0.000194, k = 13.935253
         7         8     1        0.140096   339046.190625    ;  uncertainty r = 0.000118, k = 8.055116
         7        31     1        0.101870   417728.195264    ;  uncertainty r = 0.000093, k = 3.473121
         8         9     1        0.140067   355915.545410    ;  uncertainty r = 0.000170, k = 17.835503
         8        24     1        0.139587   350172.658105    ;  uncertainty r = 0.000051, k = 12.669235
         9        10     1        0.137561   291879.047461    ;  uncertainty r = 0.000157, k = 8.416399
         9        21     1        0.131661   342629.813184    ;  uncertainty r = 0.000152, k = 21.976982
        10        11     1        0.139970   310102.481934    ;  uncertainty r = 0.000174, k = 12.353069
        11        12     1        0.139755   326948.189355    ;  uncertainty r = 0.000152, k = 6.718657
        11        20     1        0.139462   348332.147559    ;  uncertainty r = 0.000068, k = 6.494419
        12        13     1        0.152013   212155.256445    ;  uncertainty r = 0.000158, k = 5.218524
        12        17     1        0.140039   341105.503125    ;  uncertainty r = 0.000074, k = 5.411932
        13        14     1        0.153766   196771.152710    ;  uncertainty r = 0.000034, k = 4.467960
        13        15     1        0.153766   196771.152710    ;  uncertainty r = 0.000034, k = 4.467960
        13        16     1        0.153766   196771.152710    ;  uncertainty r = 0.000034, k = 4.467960
        14        32     1        0.109624   309135.034082    ;  uncertainty r = 0.000022, k = 1.451984
        14        33     1        0.109624   309135.034082    ;  uncertainty r = 0.000022, k = 1.451984
        14        34     1        0.109624   309135.034082    ;  uncertainty r = 0.000022, k = 1.451984
        15        35     1        0.109624   309135.034082    ;  uncertainty r = 0.000022, k = 1.451984
        15        36     1        0.109624   309135.034082    ;  uncertainty r = 0.000022, k = 1.451984
        15        37     1        0.109624   309135.034082    ;  uncertainty r = 0.000022, k = 1.451984
        16        38     1        0.109624   309135.034082    ;  uncertainty r = 0.000022, k = 1.451984
        16        39     1        0.109624   309135.034082    ;  uncertainty r = 0.000022, k = 1.451984
        16        40     1        0.109624   309135.034082    ;  uncertainty r = 0.000022, k = 1.451984
        17        18     1        0.139725   370071.582324    ;  uncertainty r = 0.000065, k = 4.429234
        17        41     1        0.108679   334355.636523    ;  uncertainty r = 0.000029, k = 1.644634
        18        19     1        0.139341   380593.892871    ;  uncertainty r = 0.000031, k = 2.283626
        18        42     1        0.108816   332973.006348    ;  uncertainty r = 0.000011, k = 1.868679
        19        20     1        0.139224   375940.852783    ;  uncertainty r = 0.000046, k = 1.528344
        19        43     1        0.108786   333319.544922    ;  uncertainty r = 0.000016, k = 1.090668
        20        44     1        0.108801   334217.353076    ;  uncertainty r = 0.000035, k = 1.936727
        21        22     1        0.134174   386160.574121    ;  uncertainty r = 0.000069, k = 8.080813
        22        23     1        0.139039   373281.367139    ;  uncertainty r = 0.000047, k = 3.782627
        22        45     1        0.108937   336014.246240    ;  uncertainty r = 0.000016, k = 1.810732
        23        24     1        0.139560   376722.160645    ;  uncertainty r = 0.000043, k = 3.130754
        23        46     1        0.108806   337266.688232    ;  uncertainty r = 0.000012, k = 1.595181
        24        47     1        0.108477   334523.772852    ;  uncertainty r = 0.000051, k = 3.409790
        25        26     1        0.139338   371403.623486    ;  uncertainty r = 0.000031, k = 3.843560
        25        48     1        0.108476   335060.869336    ;  uncertainty r = 0.000026, k = 2.768289
        26        27     1        0.138862   363011.516455    ;  uncertainty r = 0.000029, k = 2.336436
        26        49     1        0.108740   336001.503223    ;  uncertainty r = 0.000018, k = 0.523197
        27        28     1        0.135460   342172.928760    ;  uncertainty r = 0.000027, k = 2.855729
        27        29     1        0.139027   367718.107861    ;  uncertainty r = 0.000039, k = 3.694841
        29        50     1        0.108776   338895.113086    ;  uncertainty r = 0.000015, k = 1.055079

[ angles ]
;       ai        aj        ak funct           theta             cth
         1         2         3     1      116.736191      467.720234    ;  uncertainty theta = 0.002974, k = 0.264124
         1         2        29     1      118.820862      531.086996    ;  uncertainty theta = 0.003627, k = 0.147570
         2         3         4     1      118.279419      529.118691    ;  uncertainty theta = 0.005041, k = 0.171308
         2         3        25     1      118.396774      360.750901    ;  uncertainty theta = 0.003932, k = 0.276952
         2        29        27     1      117.741173      453.838964    ;  uncertainty theta = 0.003901, k = 0.186862
         2        29        50     1      120.903954      271.854659    ;  uncertainty theta = 0.002836, k = 0.102661
         3         2        29     1      125.011475      355.194824    ;  uncertainty theta = 0.004666, k = 0.262239
         3         4         5     1      118.193810      381.929528    ;  uncertainty theta = 0.004842, k = 0.193416
         3         4        30     1      115.198143      310.153524    ;  uncertainty theta = 0.004351, k = 0.269572
         3        25        26     1      121.337158      511.202111    ;  uncertainty theta = 0.001573, k = 0.067381
         3        25        48     1      117.573708      261.445398    ;  uncertainty theta = 0.003375, k = 0.111124
         4         3        25     1      121.619789      495.938836    ;  uncertainty theta = 0.004320, k = 0.152847
         4         5         6     1      125.502602      724.225591    ;  uncertainty theta = 0.004432, k = 0.123613
         4         5         7     1      111.558266      574.708177    ;  uncertainty theta = 0.009111, k = 0.253121
         5         4        30     1      117.312866      317.781172    ;  uncertainty theta = 0.005441, k = 0.191735
         5         7         8     1      118.047020      383.931861    ;  uncertainty theta = 0.006145, k = 0.348846
         5         7        31     1      117.989967      329.422646    ;  uncertainty theta = 0.006582, k = 0.171883
         6         5         7     1      125.348587      731.379046    ;  uncertainty theta = 0.005732, k = 0.126463
         7         8         9     1      117.143044      488.349782    ;  uncertainty theta = 0.006973, k = 0.210022
         7         8        24     1      122.491943      468.987641    ;  uncertainty theta = 0.005717, k = 0.226575
         8         7        31     1      114.704041      335.957720    ;  uncertainty theta = 0.005639, k = 0.195191
         8         9        10     1      116.665405      383.002183    ;  uncertainty theta = 0.010825, k = 0.414064
         8         9        21     1      125.636276      516.970369    ;  uncertainty theta = 0.002499, k = 0.151920
         8        24        23     1      118.664589      535.632378    ;  uncertainty theta = 0.002867, k = 0.172990
         8        24        47     1      117.850075      264.486868    ;  uncertainty theta = 0.003879, k = 0.116474
         9         8        24     1      117.553139      354.267923    ;  uncertainty theta = 0.008696, k = 0.140912
         9        10        11     1      113.934570      458.766094    ;  uncertainty theta = 0.006345, k = 0.242727
         9        21        22     1      118.887047      387.285011    ;  uncertainty theta = 0.003090, k = 0.177781
        10         9        21     1      116.872818      566.720617    ;  uncertainty theta = 0.005694, k = 0.116575
        10        11        12     1      115.704712      440.626542    ;  uncertainty theta = 0.009198, k = 0.210354
        10        11        20     1      119.159546      447.710473    ;  uncertainty theta = 0.002729, k = 0.169501
        11        12        13     1      118.737160      372.186451    ;  uncertainty theta = 0.003397, k = 0.213070
        11        12        17     1      120.132469      438.775357    ;  uncertainty theta = 0.007365, k = 0.148070
        11        20        19     1      119.480576      490.828541    ;  uncertainty theta = 0.002125, k = 0.081840
        11        20        44     1      119.573265      274.059565    ;  uncertainty theta = 0.001641, k = 0.136046
        12        11        20     1      125.177345      372.242792    ;  uncertainty theta = 0.005517, k = 0.226102
        12        13        14     1      107.456909      541.166461    ;  uncertainty theta = 0.003458, k = 0.119418
        12        13        15     1      107.456909      541.166461    ;  uncertainty theta = 0.003458, k = 0.119418
        12        13        16     1      107.456909      541.166461    ;  uncertainty theta = 0.003458, k = 0.119418
        12        17        18     1      123.242630      514.417807    ;  uncertainty theta = 0.003199, k = 0.098485
        12        17        41     1      116.080551      265.953417    ;  uncertainty theta = 0.003541, k = 0.034864
        13        12        17     1      119.965210      395.832537    ;  uncertainty theta = 0.007267, k = 0.110311
        13        14        32     1      107.500168      381.640672    ;  uncertainty theta = 0.001147, k = 0.021560
        13        14        33     1      107.500168      381.640672    ;  uncertainty theta = 0.001147, k = 0.021560
        13        14        34     1      107.500168      381.640672    ;  uncertainty theta = 0.001147, k = 0.021560
        13        15        35     1      107.500168      381.640672    ;  uncertainty theta = 0.001147, k = 0.021560
        13        15        36     1      107.500168      381.640672    ;  uncertainty theta = 0.001147, k = 0.021560
        13        15        37     1      107.500168      381.640672    ;  uncertainty theta = 0.001147, k = 0.021560
        13        16        38     1      107.500168      381.640672    ;  uncertainty theta = 0.001147, k = 0.021560
        13        16        39     1      107.500168      381.640672    ;  uncertainty theta = 0.001147, k = 0.021560
        13        16        40     1      107.500168      381.640672    ;  uncertainty theta = 0.001147, k = 0.021560
        14        13        15     1      108.493637      588.176577    ;  uncertainty theta = 0.003882, k = 0.042667
        14        13        16     1      108.493637      588.176577    ;  uncertainty theta = 0.003882, k = 0.042667
        15        13        16     1      108.493637      588.176577    ;  uncertainty theta = 0.003882, k = 0.042667
        17        18        19     1      118.796059      505.826102    ;  uncertainty theta = 0.001491, k = 0.032531
        17        18        42     1      120.467178      285.900038    ;  uncertainty theta = 0.000756, k = 0.041357
        18        17        41     1      119.427261      294.851273    ;  uncertainty theta = 0.002057, k = 0.072753
        18        19        20     1      117.188576      509.111994    ;  uncertainty theta = 0.001525, k = 0.077398
        18        19        43     1      120.940086      285.996313    ;  uncertainty theta = 0.001006, k = 0.032460
        19        18        42     1      120.888123      288.547821    ;  uncertainty theta = 0.001467, k = 0.029276
        19        20        44     1      121.582420      291.615370    ;  uncertainty theta = 0.001569, k = 0.034478
        20        19        43     1      120.197647      284.975945    ;  uncertainty theta = 0.000893, k = 0.020665
        21        22        23     1      122.018661      680.497696    ;  uncertainty theta = 0.002657, k = 0.057695
        21        22        45     1      116.528885      326.284582    ;  uncertainty theta = 0.003532, k = 0.089660
        22        23        24     1      116.662033      486.639338    ;  uncertainty theta = 0.002659, k = 0.164042
        22        23        46     1      121.531288      284.776469    ;  uncertainty theta = 0.000829, k = 0.071895
        23        22        45     1      121.479820      279.479402    ;  uncertainty theta = 0.001106, k = 0.075569
        23        24        47     1      121.491959      306.835200    ;  uncertainty theta = 0.004314, k = 0.137900
        24        23        46     1      121.692772      278.904306    ;  uncertainty theta = 0.003629, k = 0.116071
        25        26        27     1      118.285049      484.279358    ;  uncertainty theta = 0.001768, k = 0.055731
        25        26        49     1      121.279213      274.103330    ;  uncertainty theta = 0.002275, k = 0.088220
        26        25        48     1      120.346207      308.716998    ;  uncertainty theta = 0.001985, k = 0.114318
        26        27        28     1      119.429977      517.007015    ;  uncertainty theta = 0.002152, k = 0.043401
        26        27        29     1      122.215172      369.437189    ;  uncertainty theta = 0.005625, k = 0.103914
        27        26        49     1      120.915672      281.926432    ;  uncertainty theta = 0.000927, k = 0.036510
        27        29        50     1      122.160446      275.853803    ;  uncertainty theta = 0.001471, k = 0.051745
        28        27        29     1      118.530540      506.283408    ;  uncertainty theta = 0.002389, k = 0.013248
        32        14        33     1      105.383629      318.495891    ;  uncertainty theta = 0.000917, k = 0.009330
        32        14        34     1      105.383629      318.495891    ;  uncertainty theta = 0.000917, k = 0.009330
        33        14        34     1      105.383629      318.495891    ;  uncertainty theta = 0.000917, k = 0.009330
        35        15        36     1      105.383629      318.495891    ;  uncertainty theta = 0.000917, k = 0.009330
        35        15        37     1      105.383629      318.495891    ;  uncertainty theta = 0.000917, k = 0.009330
        36        15        37     1      105.383629      318.495891    ;  uncertainty theta = 0.000917, k = 0.009330
        38        16        39     1      105.383629      318.495891    ;  uncertainty theta = 0.000917, k = 0.009330
        38        16        40     1      105.383629      318.495923    ;  uncertainty theta = 0.000917, k = 0.009330
        39        16        40     1      105.383629      318.495923    ;  uncertainty theta = 0.000917, k = 0.009330

[ dihedrals ] ; propers for gromacs 4.5 or higher, use funct 9
;       ai        aj        ak        al funct           phase               k        pn
         1         2         3         4     9        0.000000        0.160525         1    ;  uncertainty k = 0.421604
         1         2         3         4     9      180.000000       11.170227         2    ;  uncertainty k = 0.644858
         1         2         3         4     9        0.000000        0.977781         3    ;  uncertainty k = 0.194168
         1         2         3         4     9      180.000000        1.392614         4    ;  uncertainty k = 0.457788
         1         2         3        25     9        0.000000        0.245084         1    ;  uncertainty k = 0.313902
         1         2         3        25     9      180.000000        8.890451         2    ;  uncertainty k = 0.608394
         1         2         3        25     9        0.000000        1.363088         3    ;  uncertainty k = 0.075345
         1         2         3        25     9      180.000000        1.626558         4    ;  uncertainty k = 0.309393
         1         2        29        27     9        0.000000        0.036917         1    ;  uncertainty k = 0.173047
         1         2        29        27     9      180.000000       13.192884         2    ;  uncertainty k = 0.607874
         1         2        29        27     9        0.000000        1.501887         3    ;  uncertainty k = 0.427028
         1         2        29        27     9      180.000000        1.531977         4    ;  uncertainty k = 0.229304
         1         2        29        50     9        0.000000       -0.114872         1    ;  uncertainty k = 0.231347
         1         2        29        50     9      180.000000        9.192256         2    ;  uncertainty k = 0.368990
         1         2        29        50     9        0.000000        0.849509         3    ;  uncertainty k = 0.238093
         1         2        29        50     9      180.000000        1.103137         4    ;  uncertainty k = 0.246438
         2         3         4         5     9        0.000000        1.102741         1    ;  uncertainty k = 1.073574
         2         3         4         5     9      180.000000        4.355582         2    ;  uncertainty k = 0.328195
         2         3         4         5     9        0.000000        0.826131         3    ;  uncertainty k = 0.184405
         2         3         4         5     9      180.000000        0.060795         4    ;  uncertainty k = 0.031085
         2         3         4        30     9        0.000000        1.446214         1    ;  uncertainty k = 0.837532
         2         3         4        30     9      180.000000        2.234040         2    ;  uncertainty k = 0.278401
         2         3         4        30     9        0.000000        0.118908         3    ;  uncertainty k = 0.139066
         2         3         4        30     9      180.000000       -0.177320         4    ;  uncertainty k = 0.119437
         2         3        25        26     9        0.000000       -0.012320         1    ;  uncertainty k = 0.330054
         2         3        25        26     9      180.000000        9.307746         2    ;  uncertainty k = 0.530981
         2         3        25        26     9        0.000000        0.226771         3    ;  uncertainty k = 0.181245
         2         3        25        26     9      180.000000        1.440929         4    ;  uncertainty k = 0.312195
         2         3        25        48     9        0.000000        0.065007         1    ;  uncertainty k = 0.484935
         2         3        25        48     9      180.000000        6.971212         2    ;  uncertainty k = 0.391590
         2         3        25        48     9        0.000000        1.282902         3    ;  uncertainty k = 0.269565
         2         3        25        48     9      180.000000        1.525247         4    ;  uncertainty k = 0.117715
         2        29        27        26     9        0.000000       -0.127835         1    ;  uncertainty k = 0.214509
         2        29        27        26     9      180.000000        8.898659         2    ;  uncertainty k = 0.463051
         2        29        27        26     9        0.000000       -0.075985         3    ;  uncertainty k = 0.355343
         2        29        27        26     9      180.000000        1.297640         4    ;  uncertainty k = 0.222628
         2        29        27        28     9        0.000000        0.055242         1    ;  uncertainty k = 0.241498
         2        29        27        28     9      180.000000       12.277295         2    ;  uncertainty k = 0.427893
         2        29        27        28     9        0.000000        1.538731         3    ;  uncertainty k = 0.392990
         2        29        27        28     9      180.000000        1.507857         4    ;  uncertainty k = 0.216063
         3         2        29        27     9        0.000000       -0.165242         1    ;  uncertainty k = 0.364036
         3         2        29        27     9      180.000000        8.631343         2    ;  uncertainty k = 0.403042
         3         2        29        27     9        0.000000        0.231800         3    ;  uncertainty k = 0.408310
         3         2        29        27     9      180.000000        1.184366         4    ;  uncertainty k = 0.308451
         3         2        29        50     9        0.000000        0.059376         1    ;  uncertainty k = 0.533931
         3         2        29        50     9      180.000000        5.844886         2    ;  uncertainty k = 0.878896
         3         2        29        50     9        0.000000        1.269322         3    ;  uncertainty k = 0.215214
         3         2        29        50     9      180.000000        1.480511         4    ;  uncertainty k = 0.179711
         3         4         5         6     9        0.000000        6.466954         1    ;  uncertainty k = 0.945490
         3         4         5         6     9      180.000000        9.641419         2    ;  uncertainty k = 0.397964
         3         4         5         6     9        0.000000        1.224658         3    ;  uncertainty k = 0.302776
         3         4         5         6     9      180.000000       -0.489460         4    ;  uncertainty k = 0.205452
         3         4         5         7     9        0.000000        7.603735         1    ;  uncertainty k = 0.763174
         3         4         5         7     9      180.000000        6.226503         2    ;  uncertainty k = 0.785716
         3         4         5         7     9        0.000000        0.607677         3    ;  uncertainty k = 0.278533
         3         4         5         7     9      180.000000       -0.139698         4    ;  uncertainty k = 0.327451
         3        25        26        27     9        0.000000       -0.204716         1    ;  uncertainty k = 0.162298
         3        25        26        27     9      180.000000       13.608292         2    ;  uncertainty k = 0.242241
         3        25        26        27     9        0.000000       -0.739659         3    ;  uncertainty k = 0.541523
         3        25        26        27     9      180.000000        0.908221         4    ;  uncertainty k = 0.219568
         3        25        26        49     9        0.000000        0.222128         1    ;  uncertainty k = 0.208960
         3        25        26        49     9      180.000000        7.706031         2    ;  uncertainty k = 0.493084
         3        25        26        49     9        0.000000        1.443504         3    ;  uncertainty k = 0.268422
         3        25        26        49     9      180.000000        1.722112         4    ;  uncertainty k = 0.143262
         4         3         2        29     9        0.000000       -0.005877         1    ;  uncertainty k = 0.229535
         4         3         2        29     9      180.000000        7.356192         2    ;  uncertainty k = 0.365759
         4         3         2        29     9        0.000000        1.055882         3    ;  uncertainty k = 0.365644
         4         3         2        29     9      180.000000        1.733629         4    ;  uncertainty k = 0.186462
         4         3        25        26     9        0.000000        0.039337         1    ;  uncertainty k = 0.295351
         4         3        25        26     9      180.000000       10.679406         2    ;  uncertainty k = 0.704468
         4         3        25        26     9        0.000000        1.147083         3    ;  uncertainty k = 0.505892
         4         3        25        26     9      180.000000        1.714043         4    ;  uncertainty k = 0.291279
         4         3        25        48     9        0.000000       -0.337142         1    ;  uncertainty k = 0.369468
         4         3        25        48     9      180.000000        8.330856         2    ;  uncertainty k = 0.638478
         4         3        25        48     9        0.000000        0.817316         3    ;  uncertainty k = 0.200037
         4         3        25        48     9      180.000000        1.246975         4    ;  uncertainty k = 0.250931
         4         5         7         8     9        0.000000        8.195240         1    ;  uncertainty k = 0.774428
         4         5         7         8     9      180.000000        6.135431         2    ;  uncertainty k = 1.014380
         4         5         7         8     9        0.000000        0.633534         3    ;  uncertainty k = 0.253995
         4         5         7         8     9      180.000000       -0.183395         4    ;  uncertainty k = 0.464403
         4         5         7        31     9        0.000000        2.929483         1    ;  uncertainty k = 1.008369
         4         5         7        31     9      180.000000        4.487898         2    ;  uncertainty k = 1.223013
         4         5         7        31     9        0.000000        0.811150         3    ;  uncertainty k = 0.207045
         4         5         7        31     9      180.000000       -0.390351         4    ;  uncertainty k = 0.250539
         5         4         3        25     9        0.000000        1.587778         1    ;  uncertainty k = 1.012218
         5         4         3        25     9      180.000000        3.674664         2    ;  uncertainty k = 0.238097
         5         4         3        25     9        0.000000        0.747420         3    ;  uncertainty k = 0.203030
         5         4         3        25     9      180.000000        0.388772         4    ;  uncertainty k = 0.124494
         5         7         8         9     9        0.000000        1.939332         1    ;  uncertainty k = 1.216328
         5         7         8         9     9      180.000000        3.870715         2    ;  uncertainty k = 0.553932
         5         7         8         9     9        0.000000        0.264669         3    ;  uncertainty k = 0.178631
         5         7         8         9     9      180.000000        0.001920         4    ;  uncertainty k = 0.061055
         5         7         8        24     9        0.000000        1.567099         1    ;  uncertainty k = 1.278446
         5         7         8        24     9      180.000000        3.967891         2    ;  uncertainty k = 0.530672
         5         7         8        24     9        0.000000        0.661735         3    ;  uncertainty k = 0.282621
         5         7         8        24     9      180.000000        0.352400         4    ;  uncertainty k = 0.138282
         6         5         4        30     9        0.000000        0.954700         1    ;  uncertainty k = 0.377358
         6         5         4        30     9      180.000000        8.819627         2    ;  uncertainty k = 0.292028
         6         5         4        30     9        0.000000        1.864982         3    ;  uncertainty k = 0.267327
         6         5         4        30     9      180.000000       -0.377917         4    ;  uncertainty k = 0.210061
         6         5         7         8     9        0.000000        6.938508         1    ;  uncertainty k = 0.914339
         6         5         7         8     9      180.000000        9.497243         2    ;  uncertainty k = 0.342218
         6         5         7         8     9        0.000000        1.312534         3    ;  uncertainty k = 0.340455
         6         5         7         8     9      180.000000       -0.549591         4    ;  uncertainty k = 0.268139
         6         5         7        31     9        0.000000        0.713541         1    ;  uncertainty k = 0.342832
         6         5         7        31     9      180.000000        8.667984         2    ;  uncertainty k = 0.453147
         6         5         7        31     9        0.000000        1.867006         3    ;  uncertainty k = 0.222364
         6         5         7        31     9      180.000000       -0.443811         4    ;  uncertainty k = 0.252469
         7         5         4        30     9        0.000000        2.840841         1    ;  uncertainty k = 0.918049
         7         5         4        30     9      180.000000        4.417858         2    ;  uncertainty k = 1.192847
         7         5         4        30     9        0.000000        0.896698         3    ;  uncertainty k = 0.320711
         7         5         4        30     9      180.000000       -0.379140         4    ;  uncertainty k = 0.206919
         7         8         9        10     9        0.000000        0.284377         1    ;  uncertainty k = 0.661904
         7         8         9        10     9      180.000000        8.262305         2    ;  uncertainty k = 0.431304
         7         8         9        10     9        0.000000        0.747454         3    ;  uncertainty k = 0.255999
         7         8         9        10     9      180.000000        1.323897         4    ;  uncertainty k = 0.314136
         7         8         9        21     9        0.000000        0.354398         1    ;  uncertainty k = 0.466578
         7         8         9        21     9      180.000000        6.341080         2    ;  uncertainty k = 0.780089
         7         8         9        21     9        0.000000        0.768341         3    ;  uncertainty k = 0.321756
         7         8         9        21     9      180.000000        1.504548         4    ;  uncertainty k = 0.289127
         7         8        24        23     9        0.000000       -0.104132         1    ;  uncertainty k = 0.141361
         7         8        24        23     9      180.000000       11.628690         2    ;  uncertainty k = 0.794318
         7         8        24        23     9        0.000000        1.107583         3    ;  uncertainty k = 0.487861
         7         8        24        23     9      180.000000        1.611587         4    ;  uncertainty k = 0.361445
         7         8        24        47     9        0.000000       -0.339226         1    ;  uncertainty k = 0.473731
         7         8        24        47     9      180.000000        8.956187         2    ;  uncertainty k = 0.817387
         7         8        24        47     9        0.000000        0.715306         3    ;  uncertainty k = 0.150871
         7         8        24        47     9      180.000000        1.268140         4    ;  uncertainty k = 0.406222
         8         9        10        11     9        0.000000        6.319504         1    ;  uncertainty k = 0.288881
         8         9        10        11     9      180.000000        3.783411         2    ;  uncertainty k = 0.446259
         8         9        10        11     9        0.000000        0.494205         3    ;  uncertainty k = 0.396184
         8         9        10        11     9      180.000000        0.042530         4    ;  uncertainty k = 0.132321
         8         9        21        22     9        0.000000        0.676172         1    ;  uncertainty k = 0.497916
         8         9        21        22     9      180.000000       12.399767         2    ;  uncertainty k = 0.361751
         8         9        21        22     9        0.000000        1.802644         3    ;  uncertainty k = 0.394747
         8         9        21        22     9      180.000000        1.364744         4    ;  uncertainty k = 0.214528
         8        24        23        22     9        0.000000       -0.219716         1    ;  uncertainty k = 0.258710
         8        24        23        22     9      180.000000       13.489343         2    ;  uncertainty k = 0.300398
         8        24        23        22     9        0.000000       -1.177535         3    ;  uncertainty k = 0.825068
         8        24        23        22     9      180.000000        0.747942         4    ;  uncertainty k = 0.391509
         8        24        23        46     9        0.000000        0.313278         1    ;  uncertainty k = 0.255484
         8        24        23        46     9      180.000000        7.639765         2    ;  uncertainty k = 0.597194
         8        24        23        46     9        0.000000        1.394865         3    ;  uncertainty k = 0.301688
         8        24        23        46     9      180.000000        1.632044         4    ;  uncertainty k = 0.213680
         9         8         7        31     9        0.000000        1.790871         1    ;  uncertainty k = 1.008652
         9         8         7        31     9      180.000000        2.157695         2    ;  uncertainty k = 0.861321
         9         8         7        31     9        0.000000       -0.062950         3    ;  uncertainty k = 0.367837
         9         8         7        31     9      180.000000       -0.089320         4    ;  uncertainty k = 0.133767
         9         8        24        23     9        0.000000       -0.030132         1    ;  uncertainty k = 0.350193
         9         8        24        23     9      180.000000        9.735746         2    ;  uncertainty k = 0.562603
         9         8        24        23     9        0.000000        0.093353         3    ;  uncertainty k = 0.450931
         9         8        24        23     9      180.000000        1.415785         4    ;  uncertainty k = 0.220677
         9         8        24        47     9        0.000000       -0.041478         1    ;  uncertainty k = 0.340993
         9         8        24        47     9      180.000000        7.165696         2    ;  uncertainty k = 0.370158
         9         8        24        47     9        0.000000        1.218945         3    ;  uncertainty k = 0.132784
         9         8        24        47     9      180.000000        1.470983         4    ;  uncertainty k = 0.083532
         9        10        11        12     9        0.000000        3.730429         1    ;  uncertainty k = 1.378013
         9        10        11        12     9      180.000000        4.333442         2    ;  uncertainty k = 0.552013
         9        10        11        12     9        0.000000        0.718711         3    ;  uncertainty k = 0.348202
         9        10        11        12     9      180.000000        0.143674         4    ;  uncertainty k = 0.148995
         9        10        11        20     9        0.000000        4.828384         1    ;  uncertainty k = 0.228401
         9        10        11        20     9      180.000000        5.455596         2    ;  uncertainty k = 0.415365
         9        10        11        20     9        0.000000       -0.018089         3    ;  uncertainty k = 0.211291
         9        10        11        20     9      180.000000        0.330158         4    ;  uncertainty k = 0.134735
         9        21        22        23     9        0.000000       -0.152779         1    ;  uncertainty k = 0.652820
         9        21        22        23     9      180.000000       15.169948         2    ;  uncertainty k = 0.219950
         9        21        22        23     9        0.000000        0.738976         3    ;  uncertainty k = 0.607844
         9        21        22        23     9      180.000000        1.309388         4    ;  uncertainty k = 0.318753
         9        21        22        45     9        0.000000        0.094454         1    ;  uncertainty k = 0.461568
         9        21        22        45     9      180.000000       15.212743         2    ;  uncertainty k = 0.638779
         9        21        22        45     9        0.000000        2.097180         3    ;  uncertainty k = 0.681642
         9        21        22        45     9      180.000000        1.294776         4    ;  uncertainty k = 0.576515
        10         9         8        24     9        0.000000        0.860567         1    ;  uncertainty k = 0.279878
        10         9         8        24     9      180.000000        5.860297         2    ;  uncertainty k = 0.477196
        10         9         8        24     9        0.000000        0.925541         3    ;  uncertainty k = 0.130265
        10         9         8        24     9      180.000000        1.461354         4    ;  uncertainty k = 0.520030
        10         9        21        22     9        0.000000        0.619901         1    ;  uncertainty k = 1.068275
        10         9        21        22     9      180.000000       16.868085         2    ;  uncertainty k = 0.330039
        10         9        21        22     9        0.000000        2.787028         3    ;  uncertainty k = 0.528095
        10         9        21        22     9      180.000000        1.961008         4    ;  uncertainty k = 0.174090
        10        11        12        13     9        0.000000        0.071295         1    ;  uncertainty k = 0.718375
        10        11        12        13     9      180.000000       10.741282         2    ;  uncertainty k = 0.337093
        10        11        12        13     9        0.000000        0.888843         3    ;  uncertainty k = 0.255369
        10        11        12        13     9      180.000000        1.287663         4    ;  uncertainty k = 0.239386
        10        11        12        17     9        0.000000        0.320263         1    ;  uncertainty k = 0.419950
        10        11        12        17     9      180.000000       10.472768         2    ;  uncertainty k = 0.337593
        10        11        12        17     9        0.000000        1.489016         3    ;  uncertainty k = 0.149649
        10        11        12        17     9      180.000000        1.584858         4    ;  uncertainty k = 0.104525
        10        11        20        19     9        0.000000       -0.152210         1    ;  uncertainty k = 0.328719
        10        11        20        19     9      180.000000       11.693228         2    ;  uncertainty k = 0.449003
        10        11        20        19     9        0.000000        1.385270         3    ;  uncertainty k = 0.330045
        10        11        20        19     9      180.000000        1.643559         4    ;  uncertainty k = 0.179015
        10        11        20        44     9        0.000000        0.040346         1    ;  uncertainty k = 0.229436
        10        11        20        44     9      180.000000        9.017925         2    ;  uncertainty k = 0.427767
        10        11        20        44     9        0.000000        0.908575         3    ;  uncertainty k = 0.205593
        10        11        20        44     9      180.000000        1.196649         4    ;  uncertainty k = 0.148818
        11        10         9        21     9        0.000000        1.236360         1    ;  uncertainty k = 0.784559
        11        10         9        21     9      180.000000        6.633409         2    ;  uncertainty k = 0.131050
        11        10         9        21     9        0.000000        0.346052         3    ;  uncertainty k = 0.468515
        11        10         9        21     9      180.000000        0.035651         4    ;  uncertainty k = 0.112089
        11        12        13        14     9        0.000000        0.692757         1    ;  uncertainty k = 0.625038
        11        12        13        14     9      180.000000        2.494036         2    ;  uncertainty k = 0.205161
        11        12        13        14     9        0.000000        0.692709         3    ;  uncertainty k = 0.170840
        11        12        13        14     9      180.000000        0.361032         4    ;  uncertainty k = 0.059208
        11        12        13        15     9        0.000000        0.692757         1    ;  uncertainty k = 0.625038
        11        12        13        15     9      180.000000        2.494036         2    ;  uncertainty k = 0.205161
        11        12        13        15     9        0.000000        0.692709         3    ;  uncertainty k = 0.170840
        11        12        13        15     9      180.000000        0.361032         4    ;  uncertainty k = 0.059208
        11        12        13        16     9        0.000000        0.692757         1    ;  uncertainty k = 0.625038
        11        12        13        16     9      180.000000        2.494036         2    ;  uncertainty k = 0.205161
        11        12        13        16     9        0.000000        0.692709         3    ;  uncertainty k = 0.170840
        11        12        13        16     9      180.000000        0.361032         4    ;  uncertainty k = 0.059208
        11        12        17        18     9        0.000000       -0.087990         1    ;  uncertainty k = 0.215347
        11        12        17        18     9      180.000000       11.417029         2    ;  uncertainty k = 0.445007
        11        12        17        18     9        0.000000        0.283233         3    ;  uncertainty k = 0.342146
        11        12        17        18     9      180.000000        1.093874         4    ;  uncertainty k = 0.359115
        11        12        17        41     9        0.000000        0.204171         1    ;  uncertainty k = 0.456467
        11        12        17        41     9      180.000000        8.527552         2    ;  uncertainty k = 0.711155
        11        12        17        41     9        0.000000        1.297625         3    ;  uncertainty k = 0.189137
        11        12        17        41     9      180.000000        1.553421         4    ;  uncertainty k = 0.302198
        11        20        19        18     9        0.000000       -0.154765         1    ;  uncertainty k = 0.223350
        11        20        19        18     9      180.000000       14.338534         2    ;  uncertainty k = 0.288581
        11        20        19        18     9        0.000000       -1.132698         3    ;  uncertainty k = 0.713240
        11        20        19        18     9      180.000000        0.707918         4    ;  uncertainty k = 0.306895
        11        20        19        43     9        0.000000        0.072811         1    ;  uncertainty k = 0.138823
        11        20        19        43     9      180.000000        7.800304         2    ;  uncertainty k = 0.378572
        11        20        19        43     9        0.000000        1.277510         3    ;  uncertainty k = 0.172534
        11        20        19        43     9      180.000000        1.721022         4    ;  uncertainty k = 0.153665
        12        11        20        19     9        0.000000       -0.092321         1    ;  uncertainty k = 0.296002
        12        11        20        19     9      180.000000        8.818596         2    ;  uncertainty k = 0.383492
        12        11        20        19     9        0.000000        0.177342         3    ;  uncertainty k = 0.550609
        12        11        20        19     9      180.000000        1.255625         4    ;  uncertainty k = 0.353641
        12        11        20        44     9        0.000000       -0.007025         1    ;  uncertainty k = 0.261528
        12        11        20        44     9      180.000000        6.316864         2    ;  uncertainty k = 0.706980
        12        11        20        44     9        0.000000        1.208484         3    ;  uncertainty k = 0.381412
        12        11        20        44     9      180.000000        1.573825         4    ;  uncertainty k = 0.136193
        12        13        14        32     9        0.000000        1.183863         1    ;  uncertainty k = 0.358830
        12        13        14        32     9      180.000000       -1.361095         2    ;  uncertainty k = 0.206012
        12        13        14        32     9        0.000000        0.666766         3    ;  uncertainty k = 0.110848
        12        13        14        32     9      180.000000        0.017306         4    ;  uncertainty k = 0.086274
        12        13        14        33     9        0.000000        1.183863         1    ;  uncertainty k = 0.358830
        12        13        14        33     9      180.000000       -1.361095         2    ;  uncertainty k = 0.206012
        12        13        14        33     9        0.000000        0.666766         3    ;  uncertainty k = 0.110848
        12        13        14        33     9      180.000000        0.017306         4    ;  uncertainty k = 0.086274
        12        13        14        34     9        0.000000        1.183863         1    ;  uncertainty k = 0.358830
        12        13        14        34     9      180.000000       -1.361095         2    ;  uncertainty k = 0.206012
        12        13        14        34     9        0.000000        0.666766         3    ;  uncertainty k = 0.110848
        12        13        14        34     9      180.000000        0.017306         4    ;  uncertainty k = 0.086274
        12        13        15        35     9        0.000000        1.183863         1    ;  uncertainty k = 0.358830
        12        13        15        35     9      180.000000       -1.361095         2    ;  uncertainty k = 0.206012
        12        13        15        35     9        0.000000        0.666766         3    ;  uncertainty k = 0.110848
        12        13        15        35     9      180.000000        0.017306         4    ;  uncertainty k = 0.086274
        12        13        15        36     9        0.000000        1.183863         1    ;  uncertainty k = 0.358830
        12        13        15        36     9      180.000000       -1.361095         2    ;  uncertainty k = 0.206012
        12        13        15        36     9        0.000000        0.666766         3    ;  uncertainty k = 0.110848
        12        13        15        36     9      180.000000        0.017306         4    ;  uncertainty k = 0.086274
        12        13        15        37     9        0.000000        1.183863         1    ;  uncertainty k = 0.358830
        12        13        15        37     9      180.000000       -1.361095         2    ;  uncertainty k = 0.206012
        12        13        15        37     9        0.000000        0.666766         3    ;  uncertainty k = 0.110848
        12        13        15        37     9      180.000000        0.017306         4    ;  uncertainty k = 0.086274
        12        13        16        38     9        0.000000        1.183863         1    ;  uncertainty k = 0.358830
        12        13        16        38     9      180.000000       -1.361095         2    ;  uncertainty k = 0.206012
        12        13        16        38     9        0.000000        0.666766         3    ;  uncertainty k = 0.110848
        12        13        16        38     9      180.000000        0.017306         4    ;  uncertainty k = 0.086274
        12        13        16        39     9        0.000000        1.183863         1    ;  uncertainty k = 0.358830
        12        13        16        39     9      180.000000       -1.361095         2    ;  uncertainty k = 0.206012
        12        13        16        39     9        0.000000        0.666766         3    ;  uncertainty k = 0.110848
        12        13        16        39     9      180.000000        0.017306         4    ;  uncertainty k = 0.086274
        12        13        16        40     9        0.000000        1.183863         1    ;  uncertainty k = 0.358830
        12        13        16        40     9      180.000000       -1.361095         2    ;  uncertainty k = 0.206012
        12        13        16        40     9        0.000000        0.666766         3    ;  uncertainty k = 0.110848
        12        13        16        40     9      180.000000        0.017306         4    ;  uncertainty k = 0.086274
        12        17        18        19     9        0.000000       -0.111191         1    ;  uncertainty k = 0.057807
        12        17        18        19     9      180.000000       12.582001         2    ;  uncertainty k = 0.145714
        12        17        18        19     9        0.000000       -0.876441         3    ;  uncertainty k = 0.567674
        12        17        18        19     9      180.000000        0.771695         4    ;  uncertainty k = 0.267770
        12        17        18        42     9        0.000000        0.094930         1    ;  uncertainty k = 0.423666
        12        17        18        42     9      180.000000        7.086738         2    ;  uncertainty k = 0.326226
        12        17        18        42     9        0.000000        1.351545         3    ;  uncertainty k = 0.142260
        12        17        18        42     9      180.000000        1.716092         4    ;  uncertainty k = 0.173771
        13        12        11        20     9        0.000000        0.237675         1    ;  uncertainty k = 0.432753
        13        12        11        20     9      180.000000        6.664017         2    ;  uncertainty k = 0.552301
        13        12        11        20     9        0.000000        1.253491         3    ;  uncertainty k = 0.250441
        13        12        11        20     9      180.000000        1.536451         4    ;  uncertainty k = 0.196953
        13        12        17        18     9        0.000000        0.094351         1    ;  uncertainty k = 0.377237
        13        12        17        18     9      180.000000        9.157917         2    ;  uncertainty k = 0.334207
        13        12        17        18     9        0.000000        1.485406         3    ;  uncertainty k = 0.284266
        13        12        17        18     9      180.000000        1.874048         4    ;  uncertainty k = 0.146638
        13        12        17        41     9        0.000000        0.039103         1    ;  uncertainty k = 0.081652
        13        12        17        41     9      180.000000        7.522433         2    ;  uncertainty k = 0.448358
        13        12        17        41     9        0.000000        0.766656         3    ;  uncertainty k = 0.198358
        13        12        17        41     9      180.000000        1.247515         4    ;  uncertainty k = 0.270572
        14        13        12        17     9        0.000000       -0.693212         1    ;  uncertainty k = 0.501680
        14        13        12        17     9      180.000000        2.787225         2    ;  uncertainty k = 0.278723
        14        13        12        17     9        0.000000       -0.069925         3    ;  uncertainty k = 0.111566
        14        13        12        17     9      180.000000        0.393022         4    ;  uncertainty k = 0.139142
        14        13        15        35     9        0.000000       -1.113239         1    ;  uncertainty k = 0.344859
        14        13        15        35     9      180.000000       -0.258828         2    ;  uncertainty k = 0.141356
        14        13        15        35     9        0.000000        0.787573         3    ;  uncertainty k = 0.076235
        14        13        15        35     9      180.000000       -0.054394         4    ;  uncertainty k = 0.041878
        14        13        15        36     9        0.000000       -1.113239         1    ;  uncertainty k = 0.344859
        14        13        15        36     9      180.000000       -0.258828         2    ;  uncertainty k = 0.141356
        14        13        15        36     9        0.000000        0.787573         3    ;  uncertainty k = 0.076235
        14        13        15        36     9      180.000000       -0.054394         4    ;  uncertainty k = 0.041878
        14        13        15        37     9        0.000000       -1.113239         1    ;  uncertainty k = 0.344859
        14        13        15        37     9      180.000000       -0.258828         2    ;  uncertainty k = 0.141356
        14        13        15        37     9        0.000000        0.787573         3    ;  uncertainty k = 0.076235
        14        13        15        37     9      180.000000       -0.054394         4    ;  uncertainty k = 0.041878
        14        13        16        38     9        0.000000       -1.113239         1    ;  uncertainty k = 0.344859
        14        13        16        38     9      180.000000       -0.258828         2    ;  uncertainty k = 0.141356
        14        13        16        38     9        0.000000        0.787573         3    ;  uncertainty k = 0.076235
        14        13        16        38     9      180.000000       -0.054394         4    ;  uncertainty k = 0.041878
        14        13        16        39     9        0.000000       -1.113239         1    ;  uncertainty k = 0.344859
        14        13        16        39     9      180.000000       -0.258828         2    ;  uncertainty k = 0.141356
        14        13        16        39     9        0.000000        0.787573         3    ;  uncertainty k = 0.076235
        14        13        16        39     9      180.000000       -0.054394         4    ;  uncertainty k = 0.041878
        14        13        16        40     9        0.000000       -1.113239         1    ;  uncertainty k = 0.344859
        14        13        16        40     9      180.000000       -0.258828         2    ;  uncertainty k = 0.141356
        14        13        16        40     9        0.000000        0.787573         3    ;  uncertainty k = 0.076235
        14        13        16        40     9      180.000000       -0.054394         4    ;  uncertainty k = 0.041878
        15        13        12        17     9        0.000000       -0.693212         1    ;  uncertainty k = 0.501680
        15        13        12        17     9      180.000000        2.787225         2    ;  uncertainty k = 0.278723
        15        13        12        17     9        0.000000       -0.069925         3    ;  uncertainty k = 0.111566
        15        13        12        17     9      180.000000        0.393022         4    ;  uncertainty k = 0.139142
        15        13        14        32     9        0.000000       -1.113239         1    ;  uncertainty k = 0.344859
        15        13        14        32     9      180.000000       -0.258828         2    ;  uncertainty k = 0.141356
        15        13        14        32     9        0.000000        0.787573         3    ;  uncertainty k = 0.076235
        15        13        14        32     9      180.000000       -0.054394         4    ;  uncertainty k = 0.041878
        15        13        14        33     9        0.000000       -1.113239         1    ;  uncertainty k = 0.344859
        15        13        14        33     9      180.000000       -0.258828         2    ;  uncertainty k = 0.141356
        15        13        14        33     9        0.000000        0.787573         3    ;  uncertainty k = 0.076235
        15        13        14        33     9      180.000000       -0.054394         4    ;  uncertainty k = 0.041878
        15        13        14        34     9        0.000000       -1.113239         1    ;  uncertainty k = 0.344859
        15        13        14        34     9      180.000000       -0.258828         2    ;  uncertainty k = 0.141356
        15        13        14        34     9        0.000000        0.787573         3    ;  uncertainty k = 0.076235
        15        13        14        34     9      180.000000       -0.054394         4    ;  uncertainty k = 0.041878
        15        13        16        38     9        0.000000       -1.113239         1    ;  uncertainty k = 0.344859
        15        13        16        38     9      180.000000       -0.258828         2    ;  uncertainty k = 0.141356
        15        13        16        38     9        0.000000        0.787573         3    ;  uncertainty k = 0.076235
        15        13        16        38     9      180.000000       -0.054394         4    ;  uncertainty k = 0.041878
        15        13        16        39     9        0.000000       -1.113239         1    ;  uncertainty k = 0.344859
        15        13        16        39     9      180.000000       -0.258828         2    ;  uncertainty k = 0.141356
        15        13        16        39     9        0.000000        0.787573         3    ;  uncertainty k = 0.076235
        15        13        16        39     9      180.000000       -0.054394         4    ;  uncertainty k = 0.041878
        15        13        16        40     9        0.000000       -1.113239         1    ;  uncertainty k = 0.344859
        15        13        16        40     9      180.000000       -0.258828         2    ;  uncertainty k = 0.141356
        15        13        16        40     9        0.000000        0.787573         3    ;  uncertainty k = 0.076235
        15        13        16        40     9      180.000000       -0.054394         4    ;  uncertainty k = 0.041878
        16        13        12        17     9        0.000000       -0.693212         1    ;  uncertainty k = 0.501680
        16        13        12        17     9      180.000000        2.787225         2    ;  uncertainty k = 0.278723
        16        13        12        17     9        0.000000       -0.069925         3    ;  uncertainty k = 0.111566
        16        13        12        17     9      180.000000        0.393022         4    ;  uncertainty k = 0.139142
        16        13        14        32     9        0.000000       -1.113239         1    ;  uncertainty k = 0.344859
        16        13        14        32     9      180.000000       -0.258828         2    ;  uncertainty k = 0.141356
        16        13        14        32     9        0.000000        0.787573         3    ;  uncertainty k = 0.076235
        16        13        14        32     9      180.000000       -0.054394         4    ;  uncertainty k = 0.041878
        16        13        14        33     9        0.000000       -1.113239         1    ;  uncertainty k = 0.344859
        16        13        14        33     9      180.000000       -0.258828         2    ;  uncertainty k = 0.141356
        16        13        14        33     9        0.000000        0.787573         3    ;  uncertainty k = 0.076235
        16        13        14        33     9      180.000000       -0.054394         4    ;  uncertainty k = 0.041878
        16        13        14        34     9        0.000000       -1.113239         1    ;  uncertainty k = 0.344859
        16        13        14        34     9      180.000000       -0.258828         2    ;  uncertainty k = 0.141356
        16        13        14        34     9        0.000000        0.787573         3    ;  uncertainty k = 0.076235
        16        13        14        34     9      180.000000       -0.054394         4    ;  uncertainty k = 0.041878
        16        13        15        35     9        0.000000       -1.113239         1    ;  uncertainty k = 0.344859
        16        13        15        35     9      180.000000       -0.258828         2    ;  uncertainty k = 0.141356
        16        13        15        35     9        0.000000        0.787573         3    ;  uncertainty k = 0.076235
        16        13        15        35     9      180.000000       -0.054394         4    ;  uncertainty k = 0.041878
        16        13        15        36     9        0.000000       -1.113239         1    ;  uncertainty k = 0.344859
        16        13        15        36     9      180.000000       -0.258828         2    ;  uncertainty k = 0.141356
        16        13        15        36     9        0.000000        0.787573         3    ;  uncertainty k = 0.076235
        16        13        15        36     9      180.000000       -0.054394         4    ;  uncertainty k = 0.041878
        16        13        15        37     9        0.000000       -1.113239         1    ;  uncertainty k = 0.344859
        16        13        15        37     9      180.000000       -0.258828         2    ;  uncertainty k = 0.141356
        16        13        15        37     9        0.000000        0.787573         3    ;  uncertainty k = 0.076235
        16        13        15        37     9      180.000000       -0.054394         4    ;  uncertainty k = 0.041878
        17        12        11        20     9        0.000000       -0.455221         1    ;  uncertainty k = 0.423301
        17        12        11        20     9      180.000000        6.899943         2    ;  uncertainty k = 0.664278
        17        12        11        20     9        0.000000        0.492862         3    ;  uncertainty k = 0.189412
        17        12        11        20     9      180.000000        1.158502         4    ;  uncertainty k = 0.353855
        17        18        19        20     9        0.000000        0.095864         1    ;  uncertainty k = 0.125003
        17        18        19        20     9      180.000000       15.472829         2    ;  uncertainty k = 0.369879
        17        18        19        20     9        0.000000       -1.428442         3    ;  uncertainty k = 0.466432
        17        18        19        20     9      180.000000        0.461505         4    ;  uncertainty k = 0.275701
        17        18        19        43     9        0.000000        0.196367         1    ;  uncertainty k = 0.225332
        17        18        19        43     9      180.000000        7.748136         2    ;  uncertainty k = 0.366773
        17        18        19        43     9        0.000000        1.431480         3    ;  uncertainty k = 0.276011
        17        18        19        43     9      180.000000        1.742439         4    ;  uncertainty k = 0.135728
        18        19        20        44     9        0.000000        0.044012         1    ;  uncertainty k = 0.104028
        18        19        20        44     9      180.000000        7.644419         2    ;  uncertainty k = 0.414807
        18        19        20        44     9        0.000000        1.332517         3    ;  uncertainty k = 0.344513
        18        19        20        44     9      180.000000        1.758476         4    ;  uncertainty k = 0.127012
        19        18        17        41     9        0.000000        0.098563         1    ;  uncertainty k = 0.132996
        19        18        17        41     9      180.000000        7.726820         2    ;  uncertainty k = 0.347678
        19        18        17        41     9        0.000000        1.334311         3    ;  uncertainty k = 0.252566
        19        18        17        41     9      180.000000        1.784032         4    ;  uncertainty k = 0.214443
        20        19        18        42     9        0.000000        0.029750         1    ;  uncertainty k = 0.172174
        20        19        18        42     9      180.000000        7.646668         2    ;  uncertainty k = 0.266100
        20        19        18        42     9        0.000000        1.436766         3    ;  uncertainty k = 0.295275
        20        19        18        42     9      180.000000        1.769690         4    ;  uncertainty k = 0.176664
        21         9         8        24     9        0.000000       -0.007483         1    ;  uncertainty k = 0.640546
        21         9         8        24     9      180.000000        5.383479         2    ;  uncertainty k = 1.412913
        21         9         8        24     9        0.000000       -0.125467         3    ;  uncertainty k = 0.198792
        21         9         8        24     9      180.000000        1.222453         4    ;  uncertainty k = 0.566062
        21        22        23        24     9        0.000000        0.122912         1    ;  uncertainty k = 0.377649
        21        22        23        24     9      180.000000       16.205385         2    ;  uncertainty k = 0.253451
        21        22        23        24     9        0.000000       -1.374142         3    ;  uncertainty k = 0.567402
        21        22        23        24     9      180.000000        0.764887         4    ;  uncertainty k = 0.233190
        21        22        23        46     9        0.000000        0.109573         1    ;  uncertainty k = 0.140060
        21        22        23        46     9      180.000000       10.004732         2    ;  uncertainty k = 0.564196
        21        22        23        46     9        0.000000        0.906339         3    ;  uncertainty k = 0.280019
        21        22        23        46     9      180.000000        1.603453         4    ;  uncertainty k = 0.128881
        22        23        24        47     9        0.000000       -0.096932         1    ;  uncertainty k = 0.224659
        22        23        24        47     9      180.000000        7.599749         2    ;  uncertainty k = 0.300024
        22        23        24        47     9        0.000000        1.345914         3    ;  uncertainty k = 0.259018
        22        23        24        47     9      180.000000        1.606126         4    ;  uncertainty k = 0.220858
        24         8         7        31     9        0.000000        0.848164         1    ;  uncertainty k = 0.508399
        24         8         7        31     9      180.000000        2.941026         2    ;  uncertainty k = 0.300123
        24         8         7        31     9        0.000000        0.417155         3    ;  uncertainty k = 0.206641
        24         8         7        31     9      180.000000        0.143213         4    ;  uncertainty k = 0.162479
        24        23        22        45     9        0.000000       -0.129492         1    ;  uncertainty k = 0.287892
        24        23        22        45     9      180.000000        6.663212         2    ;  uncertainty k = 0.558016
        24        23        22        45     9        0.000000        1.279159         3    ;  uncertainty k = 0.228439
        24        23        22        45     9      180.000000        1.542370         4    ;  uncertainty k = 0.207680
        25         3         2        29     9        0.000000       -0.347846         1    ;  uncertainty k = 0.707679
        25         3         2        29     9      180.000000        5.498151         2    ;  uncertainty k = 1.280336
        25         3         2        29     9        0.000000        0.274929         3    ;  uncertainty k = 0.386588
        25         3         2        29     9      180.000000        1.396833         4    ;  uncertainty k = 0.329412
        25         3         4        30     9        0.000000        0.307703         1    ;  uncertainty k = 0.470381
        25         3         4        30     9      180.000000        2.973550         2    ;  uncertainty k = 0.198976
        25         3         4        30     9        0.000000        0.311996         3    ;  uncertainty k = 0.135945
        25         3         4        30     9      180.000000       -0.004472         4    ;  uncertainty k = 0.147942
        25        26        27        28     9        0.000000       -0.029063         1    ;  uncertainty k = 0.270457
        25        26        27        28     9      180.000000       11.951015         2    ;  uncertainty k = 0.496814
        25        26        27        28     9        0.000000        1.487440         3    ;  uncertainty k = 0.321591
        25        26        27        28     9      180.000000        1.558964         4    ;  uncertainty k = 0.244594
        25        26        27        29     9        0.000000       -0.145017         1    ;  uncertainty k = 0.198922
        25        26        27        29     9      180.000000        9.651566         2    ;  uncertainty k = 0.544607
        25        26        27        29     9        0.000000       -0.239046         3    ;  uncertainty k = 0.338081
        25        26        27        29     9      180.000000        1.154011         4    ;  uncertainty k = 0.240193
        26        27        29        50     9        0.000000        0.151418         1    ;  uncertainty k = 0.137717
        26        27        29        50     9      180.000000        5.401458         2    ;  uncertainty k = 0.651709
        26        27        29        50     9        0.000000        1.287176         3    ;  uncertainty k = 0.273676
        26        27        29        50     9      180.000000        1.452362         4    ;  uncertainty k = 0.206285
        27        26        25        48     9        0.000000       -0.020916         1    ;  uncertainty k = 0.214501
        27        26        25        48     9      180.000000        8.038455         2    ;  uncertainty k = 0.394853
        27        26        25        48     9        0.000000        1.372910         3    ;  uncertainty k = 0.244469
        27        26        25        48     9      180.000000        1.777416         4    ;  uncertainty k = 0.166593
        28        27        26        49     9        0.000000       -0.400128         1    ;  uncertainty k = 0.228452
        28        27        26        49     9      180.000000        8.688984         2    ;  uncertainty k = 0.258478
        28        27        26        49     9        0.000000        0.812386         3    ;  uncertainty k = 0.243970
        28        27        26        49     9      180.000000        0.931610         4    ;  uncertainty k = 0.182856
        28        27        29        50     9        0.000000       -0.291300         1    ;  uncertainty k = 0.270825
        28        27        29        50     9      180.000000        8.289552         2    ;  uncertainty k = 0.324951
        28        27        29        50     9        0.000000        0.815180         3    ;  uncertainty k = 0.327930
        28        27        29        50     9      180.000000        0.995860         4    ;  uncertainty k = 0.217002
        29        27        26        49     9        0.000000        0.053888         1    ;  uncertainty k = 0.209743
        29        27        26        49     9      180.000000        5.663164         2    ;  uncertainty k = 0.622745
        29        27        26        49     9        0.000000        1.285341         3    ;  uncertainty k = 0.316149
        29        27        26        49     9      180.000000        1.505279         4    ;  uncertainty k = 0.194728
        41        17        18        42     9        0.000000        0.031582         1    ;  uncertainty k = 0.187338
        41        17        18        42     9      180.000000        7.710168         2    ;  uncertainty k = 0.275220
        41        17        18        42     9        0.000000       -0.387163         3    ;  uncertainty k = 0.299535
        41        17        18        42     9      180.000000        0.170877         4    ;  uncertainty k = 0.131539
        42        18        19        43     9        0.000000       -0.000085         1    ;  uncertainty k = 0.148397
        42        18        19        43     9      180.000000        7.399573         2    ;  uncertainty k = 0.368163
        42        18        19        43     9        0.000000       -0.403325         3    ;  uncertainty k = 0.316858
        42        18        19        43     9      180.000000        0.039164         4    ;  uncertainty k = 0.177265
        43        19        20        44     9        0.000000       -0.031117         1    ;  uncertainty k = 0.171417
        43        19        20        44     9      180.000000        7.206183         2    ;  uncertainty k = 0.294542
        43        19        20        44     9        0.000000       -0.364827         3    ;  uncertainty k = 0.310616
        43        19        20        44     9      180.000000        0.157814         4    ;  uncertainty k = 0.104466
        45        22        23        46     9        0.000000       -0.176778         1    ;  uncertainty k = 0.222996
        45        22        23        46     9      180.000000        6.567607         2    ;  uncertainty k = 0.260169
        45        22        23        46     9        0.000000       -0.010460         3    ;  uncertainty k = 0.138988
        45        22        23        46     9      180.000000        0.217242         4    ;  uncertainty k = 0.090307
        46        23        24        47     9        0.000000        0.077279         1    ;  uncertainty k = 0.355604
        46        23        24        47     9      180.000000        7.819656         2    ;  uncertainty k = 0.531204
        46        23        24        47     9        0.000000       -0.430593         3    ;  uncertainty k = 0.317162
        46        23        24        47     9      180.000000        0.145196         4    ;  uncertainty k = 0.160605
        48        25        26        49     9        0.000000       -0.019828         1    ;  uncertainty k = 0.436153
        48        25        26        49     9      180.000000        7.844475         2    ;  uncertainty k = 0.402231
        48        25        26        49     9        0.000000       -0.352063         3    ;  uncertainty k = 0.208758
        48        25        26        49     9      180.000000        0.147197         4    ;  uncertainty k = 0.147423

[ dihedrals ] ; impropers
;       ai        aj        ak        al funct           phase               k        pn
         2         1         3        29     4      180.000000       13.044014         2    ;  uncertainty k = 0.157284
         2         3        29         1     4      180.000000       13.044014         2    ;  uncertainty k = 0.157284
         2        29         1         3     4      180.000000       13.044014         2    ;  uncertainty k = 0.157284
         3         2         4        25     4      180.000000       13.263525         2    ;  uncertainty k = 0.082270
         3         4        25         2     4      180.000000       13.263525         2    ;  uncertainty k = 0.082270
         3        25         2         4     4      180.000000       13.263525         2    ;  uncertainty k = 0.082270
         4         3         5        30     4      180.000000        0.405462         2    ;  uncertainty k = 0.506050
         4         5        30         3     4      180.000000        0.405462         2    ;  uncertainty k = 0.506050
         4        30         3         5     4      180.000000        0.405462         2    ;  uncertainty k = 0.506050
         5         4         6         7     4      180.000000       63.041132         2    ;  uncertainty k = 0.062029
         5         6         7         4     4      180.000000       63.041132         2    ;  uncertainty k = 0.062029
         5         7         4         6     4      180.000000       63.041132         2    ;  uncertainty k = 0.062029
         7         5         8        31     4      180.000000        0.392996         2    ;  uncertainty k = 0.571996
         7         8        31         5     4      180.000000        0.392996         2    ;  uncertainty k = 0.571996
         7        31         5         8     4      180.000000        0.392996         2    ;  uncertainty k = 0.571996
         8         7         9        24     4      180.000000       12.947090         2    ;  uncertainty k = 0.234161
         8         9        24         7     4      180.000000       12.947090         2    ;  uncertainty k = 0.234161
         8        24         7         9     4      180.000000       12.947090         2    ;  uncertainty k = 0.234161
         9         8        10        21     4      180.000000       23.082544         2    ;  uncertainty k = 0.081809
         9        10        21         8     4      180.000000       23.082544         2    ;  uncertainty k = 0.081809
         9        21         8        10     4      180.000000       23.082544         2    ;  uncertainty k = 0.081809
        11        10        12        20     4      180.000000       15.545495         2    ;  uncertainty k = 0.149472
        11        12        20        10     4      180.000000       15.545495         2    ;  uncertainty k = 0.149472
        11        20        10        12     4      180.000000       15.545495         2    ;  uncertainty k = 0.149472
        12        11        13        17     4      180.000000       14.310281         2    ;  uncertainty k = 0.159675
        12        13        17        11     4      180.000000       14.310281         2    ;  uncertainty k = 0.159675
        12        17        11        13     4      180.000000       14.310281         2    ;  uncertainty k = 0.159675
        17        12        18        41     4      180.000000        4.242233         2    ;  uncertainty k = 0.258633
        17        18        41        12     4      180.000000        4.242233         2    ;  uncertainty k = 0.258633
        17        41        12        18     4      180.000000        4.242233         2    ;  uncertainty k = 0.258633
        18        17        19        42     4      180.000000        3.276195         2    ;  uncertainty k = 0.154517
        18        19        42        17     4      180.000000        3.276195         2    ;  uncertainty k = 0.154517
        18        42        17        19     4      180.000000        3.276195         2    ;  uncertainty k = 0.154517
        19        18        20        43     4      180.000000        3.602513         2    ;  uncertainty k = 0.202505
        19        20        43        18     4      180.000000        3.602513         2    ;  uncertainty k = 0.202505
        19        43        18        20     4      180.000000        3.602513         2    ;  uncertainty k = 0.202505
        20        11        19        44     4      180.000000        3.090459         2    ;  uncertainty k = 0.173593
        20        19        44        11     4      180.000000        3.090459         2    ;  uncertainty k = 0.173593
        20        44        11        19     4      180.000000        3.090459         2    ;  uncertainty k = 0.173593
        22        21        23        45     4      180.000000       11.532156         2    ;  uncertainty k = 0.089529
        22        23        45        21     4      180.000000       11.532156         2    ;  uncertainty k = 0.089529
        22        45        21        23     4      180.000000       11.532156         2    ;  uncertainty k = 0.089529
        23        22        24        46     4      180.000000        2.219267         2    ;  uncertainty k = 0.396247
        23        24        46        22     4      180.000000        2.219267         2    ;  uncertainty k = 0.396247
        23        46        22        24     4      180.000000        2.219267         2    ;  uncertainty k = 0.396247
        24         8        23        47     4      180.000000        4.523752         2    ;  uncertainty k = 0.211544
        24        23        47         8     4      180.000000        4.523752         2    ;  uncertainty k = 0.211544
        24        47         8        23     4      180.000000        4.523752         2    ;  uncertainty k = 0.211544
        25         3        26        48     4      180.000000        3.554817         2    ;  uncertainty k = 0.313000
        25        26        48         3     4      180.000000        3.554817         2    ;  uncertainty k = 0.313000
        25        48         3        26     4      180.000000        3.554817         2    ;  uncertainty k = 0.313000
        26        25        27        49     4      180.000000        1.684238         2    ;  uncertainty k = 0.242393
        26        27        49        25     4      180.000000        1.684238         2    ;  uncertainty k = 0.242393
        26        49        25        27     4      180.000000        1.684238         2    ;  uncertainty k = 0.242393
        27        26        28        29     4      180.000000       16.377079         2    ;  uncertainty k = 0.056613
        27        28        29        26     4      180.000000       16.377079         2    ;  uncertainty k = 0.056613
        27        29        26        28     4      180.000000       16.377079         2    ;  uncertainty k = 0.056613
        29         2        27        50     4      180.000000        0.995246         2    ;  uncertainty k = 0.395215
        29        27        50         2     4      180.000000        0.995246         2    ;  uncertainty k = 0.395215
        29        50         2        27     4      180.000000        0.995246         2    ;  uncertainty k = 0.395215

[ pairs ]
;       ai        aj funct
         1         4     1
         1        25     1
         1        27     1
         1        50     1
         2         5     1
         2        26     1
         2        28     1
         2        30     1
         2        48     1
         3         6     1
         3         7     1
         3        27     1
         3        49     1
         3        50     1
         4         8     1
         4        26     1
         4        29     1
         4        31     1
         4        48     1
         5         9     1
         5        24     1
         5        25     1
         6         8     1
         6        30     1
         6        31     1
         7        10     1
         7        21     1
         7        23     1
         7        30     1
         7        47     1
         8        11     1
         8        22     1
         8        46     1
         9        12     1
         9        20     1
         9        23     1
         9        31     1
         9        45     1
         9        47     1
        10        13     1
        10        17     1
        10        19     1
        10        22     1
        10        24     1
        10        44     1
        11        14     1
        11        15     1
        11        16     1
        11        18     1
        11        21     1
        11        41     1
        11        43     1
        12        19     1
        12        32     1
        12        33     1
        12        34     1
        12        35     1
        12        36     1
        12        37     1
        12        38     1
        12        39     1
        12        40     1
        12        42     1
        12        44     1
        13        18     1
        13        20     1
        13        41     1
        14        17     1
        14        35     1
        14        36     1
        14        37     1
        14        38     1
        14        39     1
        14        40     1
        15        17     1
        15        32     1
        15        33     1
        15        34     1
        15        38     1
        15        39     1
        15        40     1
        16        17     1
        16        32     1
        16        33     1
        16        34     1
        16        35     1
        16        36     1
        16        37     1
        17        20     1
        17        43     1
        18        44     1
        19        41     1
        20        42     1
        21        24     1
        21        46     1
        22        47     1
        24        31     1
        24        45     1
        25        28     1
        25        29     1
        25        30     1
        26        50     1
        27        48     1
        28        49     1
        28        50     1
        29        49     1
        41        42     1
        42        43     1
        43        44     1
        45        46     1
        46        47     1
        48        49     1
