; ITP file created by ByteFF-joint-25, 2026-03-15 01:35:25.096839

[ atomtypes ]
;name           bonded.type        at.num        mass        charge   ptype           sigma         epsilon
 f0bf                                   9      0.0000       0.00000       A     3.03422e-01     3.48077e-01    ;  uncertainty sigma = 0.000014, epsilon = 0.000848
 c1bf                                   6      0.0000       0.00000       A     3.39798e-01     4.50486e-01    ;  uncertainty sigma = 0.000012, epsilon = 0.000754
 f2bf                                   9      0.0000       0.00000       A     3.03422e-01     3.48077e-01    ;  uncertainty sigma = 0.000014, epsilon = 0.000848
 f3bf                                   9      0.0000       0.00000       A     3.03422e-01     3.48077e-01    ;  uncertainty sigma = 0.000014, epsilon = 0.000848
 c4bf                                   6      0.0000       0.00000       A     3.31483e-01     4.13507e-01    ;  uncertainty sigma = 0.000015, epsilon = 0.000883
 c5bf                                   6      0.0000       0.00000       A     3.31564e-01     4.13237e-01    ;  uncertainty sigma = 0.000018, epsilon = 0.001201
 o6bf                                   8      0.0000       0.00000       A     3.15705e-01     3.03920e-01    ;  uncertainty sigma = 0.000041, epsilon = 0.003861
 c7bf                                   6      0.0000       0.00000       A     3.31574e-01     4.13378e-01    ;  uncertainty sigma = 0.000017, epsilon = 0.000574
 c8bf                                   6      0.0000       0.00000       A     3.31550e-01     4.12934e-01    ;  uncertainty sigma = 0.000036, epsilon = 0.001226
 n9bf                                   7      0.0000       0.00000       A     3.26911e-01     4.90562e-01    ;  uncertainty sigma = 0.000022, epsilon = 0.003078
 c10bf                                  6      0.0000       0.00000       A     3.31417e-01     4.11960e-01    ;  uncertainty sigma = 0.000092, epsilon = 0.001610
 o11bf                                  8      0.0000       0.00000       A     3.04768e-01     6.12506e-01    ;  uncertainty sigma = 0.000026, epsilon = 0.002291
 n12bf                                  7      0.0000       0.00000       A     3.26938e-01     4.90358e-01    ;  uncertainty sigma = 0.000022, epsilon = 0.001866
 c13bf                                  6      0.0000       0.00000       A     3.31557e-01     4.13180e-01    ;  uncertainty sigma = 0.000013, epsilon = 0.000992
 c14bf                                  6      0.0000       0.00000       A     3.31524e-01     4.13420e-01    ;  uncertainty sigma = 0.000010, epsilon = 0.000431
 f15bf                                  9      0.0000       0.00000       A     3.03460e-01     3.48159e-01    ;  uncertainty sigma = 0.000009, epsilon = 0.001179
 c16bf                                  6      0.0000       0.00000       A     3.31518e-01     4.13223e-01    ;  uncertainty sigma = 0.000007, epsilon = 0.000597
 c17bf                                  6      0.0000       0.00000       A     3.31522e-01     4.13330e-01    ;  uncertainty sigma = 0.000006, epsilon = 0.000632
 f18bf                                  9      0.0000       0.00000       A     3.03426e-01     3.47978e-01    ;  uncertainty sigma = 0.000008, epsilon = 0.000768
 c19bf                                  6      0.0000       0.00000       A     3.31520e-01     4.13283e-01    ;  uncertainty sigma = 0.000005, epsilon = 0.000613
 c20bf                                  6      0.0000       0.00000       A     3.31514e-01     4.13398e-01    ;  uncertainty sigma = 0.000007, epsilon = 0.000800
 c21bf                                  6      0.0000       0.00000       A     3.31539e-01     4.13382e-01    ;  uncertainty sigma = 0.000004, epsilon = 0.001208
 c22bf                                  6      0.0000       0.00000       A     3.31519e-01     4.13136e-01    ;  uncertainty sigma = 0.000006, epsilon = 0.000735
 c23bf                                  6      0.0000       0.00000       A     3.31528e-01     4.13303e-01    ;  uncertainty sigma = 0.000012, epsilon = 0.000565
 n24bf                                  7      0.0000       0.00000       A     3.38387e-01     3.93418e-01    ;  uncertainty sigma = 0.000011, epsilon = 0.000773
 c25bf                                  6      0.0000       0.00000       A     3.31521e-01     4.13613e-01    ;  uncertainty sigma = 0.000007, epsilon = 0.000608
 c26bf                                  6      0.0000       0.00000       A     3.31522e-01     4.13430e-01    ;  uncertainty sigma = 0.000004, epsilon = 0.000523
 c27bf                                  6      0.0000       0.00000       A     3.31514e-01     4.13342e-01    ;  uncertainty sigma = 0.000003, epsilon = 0.000647
 c28bf                                  6      0.0000       0.00000       A     3.31528e-01     4.13074e-01    ;  uncertainty sigma = 0.000003, epsilon = 0.000545
 h29bf                                  1      0.0000       0.00000       A     1.10682e-01     4.19025e-02    ;  uncertainty sigma = 0.000080, epsilon = 0.001074
 h30bf                                  1      0.0000       0.00000       A     1.10684e-01     4.18807e-02    ;  uncertainty sigma = 0.000084, epsilon = 0.000944
 h31bf                                  1      0.0000       0.00000       A     2.62561e-01     6.73634e-02    ;  uncertainty sigma = 0.000010, epsilon = 0.000362
 h32bf                                  1      0.0000       0.00000       A     2.62565e-01     6.70528e-02    ;  uncertainty sigma = 0.000013, epsilon = 0.000444
 h33bf                                  1      0.0000       0.00000       A     2.62556e-01     6.69781e-02    ;  uncertainty sigma = 0.000014, epsilon = 0.000427
 h34bf                                  1      0.0000       0.00000       A     2.62550e-01     6.71051e-02    ;  uncertainty sigma = 0.000018, epsilon = 0.000451
 h35bf                                  1      0.0000       0.00000       A     2.62567e-01     6.71101e-02    ;  uncertainty sigma = 0.000011, epsilon = 0.000575
 h36bf                                  1      0.0000       0.00000       A     2.53636e-01     6.70245e-02    ;  uncertainty sigma = 0.000013, epsilon = 0.000470
 h37bf                                  1      0.0000       0.00000       A     2.62554e-01     6.70866e-02    ;  uncertainty sigma = 0.000005, epsilon = 0.000421
 h38bf                                  1      0.0000       0.00000       A     2.62562e-01     6.69704e-02    ;  uncertainty sigma = 0.000010, epsilon = 0.000501
 h39bf                                  1      0.0000       0.00000       A     2.62558e-01     6.70322e-02    ;  uncertainty sigma = 0.000010, epsilon = 0.000442
 h40bf                                  1      0.0000       0.00000       A     2.62567e-01     6.70698e-02    ;  uncertainty sigma = 0.000015, epsilon = 0.000472

[ moleculetype ]
;name             nrexcl
 MOL                   3

[ atoms ]
;       nr            type      resi   res      atom      cgnr      charge          mass ; qtot
         1            f0bf         1   UNL        f0         1    -0.22724       18.9980 ; qtot   -0.227
         2            c1bf         1   UNL        c1         2     0.71978       12.0110 ; qtot    0.493
         3            f2bf         1   UNL        f2         3    -0.22724       18.9980 ; qtot    0.265
         4            f3bf         1   UNL        f3         4    -0.22724       18.9980 ; qtot    0.038
         5            c4bf         1   UNL        c4         5    -0.19640       12.0110 ; qtot   -0.158
         6            c5bf         1   UNL        c5         6     0.17193       12.0110 ; qtot    0.014
         7            o6bf         1   UNL        o6         7    -0.38749       15.9990 ; qtot   -0.374
         8            c7bf         1   UNL        c7         8     0.59850       12.0110 ; qtot    0.225
         9            c8bf         1   UNL        c8         9    -0.04623       12.0110 ; qtot    0.178
        10            n9bf         1   UNL        n9        10    -0.47318       14.0070 ; qtot   -0.295
        11           c10bf         1   UNL       c10        11     0.79837       12.0110 ; qtot    0.504
        12           o11bf         1   UNL       o11        12    -0.59331       15.9990 ; qtot   -0.090
        13           n12bf         1   UNL       n12        13    -0.47988       14.0070 ; qtot   -0.570
        14           c13bf         1   UNL       c13        14     0.03080       12.0110 ; qtot   -0.539
        15           c14bf         1   UNL       c14        15     0.11068       12.0110 ; qtot   -0.428
        16           f15bf         1   UNL       f15        16    -0.14472       18.9980 ; qtot   -0.573
        17           c16bf         1   UNL       c16        17    -0.17866       12.0110 ; qtot   -0.752
        18           c17bf         1   UNL       c17        18     0.12944       12.0110 ; qtot   -0.622
        19           f18bf         1   UNL       f18        19    -0.13815       18.9980 ; qtot   -0.760
        20           c19bf         1   UNL       c19        20    -0.15340       12.0110 ; qtot   -0.914
        21           c20bf         1   UNL       c20        21    -0.10855       12.0110 ; qtot   -1.022
        22           c21bf         1   UNL       c21        22    -0.10097       12.0110 ; qtot   -1.123
        23           c22bf         1   UNL       c22        23    -0.24092       12.0110 ; qtot   -1.364
        24           c23bf         1   UNL       c23        24     0.39652       12.0110 ; qtot   -0.968
        25           n24bf         1   UNL       n24        25    -0.69793       14.0070 ; qtot   -1.665
        26           c25bf         1   UNL       c25        26    -0.14154       12.0110 ; qtot   -1.807
        27           c26bf         1   UNL       c26        27    -0.08736       12.0110 ; qtot   -1.894
        28           c27bf         1   UNL       c27        28    -0.15128       12.0110 ; qtot   -2.046
        29           c28bf         1   UNL       c28        29    -0.06037       12.0110 ; qtot   -2.106
        30           h29bf         1   UNL       h29        30     0.34303        1.0080 ; qtot   -1.763
        31           h30bf         1   UNL       h30        31     0.33387        1.0080 ; qtot   -1.429
        32           h31bf         1   UNL       h31        32     0.16974        1.0080 ; qtot   -1.259
        33           h32bf         1   UNL       h32        33     0.15700        1.0080 ; qtot   -1.102
        34           h33bf         1   UNL       h33        34     0.16909        1.0080 ; qtot   -0.933
        35           h34bf         1   UNL       h34        35     0.17117        1.0080 ; qtot   -0.762
        36           h35bf         1   UNL       h35        36     0.14569        1.0080 ; qtot   -0.616
        37           h36bf         1   UNL       h36        37     0.02625        1.0080 ; qtot   -0.590
        38           h37bf         1   UNL       h37        38     0.15645        1.0080 ; qtot   -0.434
        39           h38bf         1   UNL       h38        39     0.13677        1.0080 ; qtot   -0.297
        40           h39bf         1   UNL       h39        40     0.14205        1.0080 ; qtot   -0.155
        41           h40bf         1   UNL       h40        41     0.15493        1.0080 ; qtot    0.000

[ bonds ]
;       ai        aj funct               r               k
         1         2     1        0.135458   282967.081494    ;  uncertainty r = 0.000065, k = 4.863427
         2         3     1        0.135458   282967.081494    ;  uncertainty r = 0.000065, k = 4.863427
         2         4     1        0.135458   282967.081494    ;  uncertainty r = 0.000065, k = 4.863427
         2         5     1        0.150116   225458.302832    ;  uncertainty r = 0.000111, k = 8.121699
         5         6     1        0.139599   334220.672900    ;  uncertainty r = 0.000073, k = 8.084016
         5        29     1        0.139193   351991.385498    ;  uncertainty r = 0.000036, k = 3.578341
         6         7     1        0.138682   320967.858008    ;  uncertainty r = 0.000174, k = 5.992383
         6        26     1        0.139231   351126.673438    ;  uncertainty r = 0.000081, k = 1.965096
         7         8     1        0.138037   292846.674072    ;  uncertainty r = 0.000222, k = 9.751197
         8         9     1        0.140067   355915.545410    ;  uncertainty r = 0.000170, k = 17.835503
         8        25     1        0.131661   342629.813184    ;  uncertainty r = 0.000152, k = 21.976982
         9        10     1        0.140096   339046.190625    ;  uncertainty r = 0.000118, k = 8.055116
         9        22     1        0.139587   350172.658105    ;  uncertainty r = 0.000051, k = 12.669235
        10        11     1        0.139803   380073.242285    ;  uncertainty r = 0.000194, k = 13.935263
        10        30     1        0.101870   417728.195264    ;  uncertainty r = 0.000093, k = 3.473121
        11        12     1        0.124129   777655.543945    ;  uncertainty r = 0.000120, k = 11.115159
        11        13     1        0.140076   385416.141846    ;  uncertainty r = 0.000128, k = 16.618004
        13        14     1        0.140639   329349.443750    ;  uncertainty r = 0.000086, k = 8.036004
        13        31     1        0.101809   421827.641895    ;  uncertainty r = 0.000091, k = 3.454311
        14        15     1        0.139859   349911.260254    ;  uncertainty r = 0.000046, k = 8.933373
        14        21     1        0.140083   346869.177637    ;  uncertainty r = 0.000051, k = 3.021685
        15        16     1        0.135857   334360.922705    ;  uncertainty r = 0.000090, k = 8.876580
        15        17     1        0.138599   357518.994971    ;  uncertainty r = 0.000038, k = 2.940046
        17        18     1        0.139027   367718.107861    ;  uncertainty r = 0.000039, k = 3.694834
        17        32     1        0.108776   338895.087549    ;  uncertainty r = 0.000015, k = 1.055099
        18        19     1        0.135460   342172.928760    ;  uncertainty r = 0.000027, k = 2.855745
        18        20     1        0.138862   363011.516455    ;  uncertainty r = 0.000029, k = 2.336411
        20        21     1        0.139338   371403.597949    ;  uncertainty r = 0.000031, k = 3.843572
        20        33     1        0.108740   336001.477686    ;  uncertainty r = 0.000018, k = 0.523219
        21        34     1        0.108476   335060.894873    ;  uncertainty r = 0.000026, k = 2.768301
        22        23     1        0.139560   376722.160645    ;  uncertainty r = 0.000043, k = 3.130754
        22        35     1        0.108477   334523.772852    ;  uncertainty r = 0.000051, k = 3.409790
        23        24     1        0.139039   373281.367139    ;  uncertainty r = 0.000047, k = 3.782627
        23        36     1        0.108806   337266.688232    ;  uncertainty r = 0.000012, k = 1.595181
        24        25     1        0.134174   386160.574121    ;  uncertainty r = 0.000069, k = 8.080813
        24        37     1        0.108937   336014.246240    ;  uncertainty r = 0.000016, k = 1.810732
        26        27     1        0.139295   373508.289893    ;  uncertainty r = 0.000043, k = 1.113444
        26        38     1        0.108764   335151.066406    ;  uncertainty r = 0.000032, k = 1.755789
        27        28     1        0.139558   375579.706982    ;  uncertainty r = 0.000033, k = 1.596121
        27        39     1        0.108786   333319.544922    ;  uncertainty r = 0.000016, k = 1.090676
        28        29     1        0.139368   368487.872949    ;  uncertainty r = 0.000011, k = 2.945901
        28        40     1        0.108768   333476.495996    ;  uncertainty r = 0.000015, k = 1.392411
        29        41     1        0.108547   331517.927393    ;  uncertainty r = 0.000029, k = 1.688075

[ angles ]
;       ai        aj        ak funct           theta             cth
         1         2         3     1      108.038475      811.615813    ;  uncertainty theta = 0.000850, k = 0.044751
         1         2         4     1      108.038475      811.615813    ;  uncertainty theta = 0.000850, k = 0.044751
         1         2         5     1      112.443848      643.160399    ;  uncertainty theta = 0.001593, k = 0.122978
         2         5         6     1      116.669312      357.407966    ;  uncertainty theta = 0.006868, k = 0.188741
         2         5        29     1      117.057724      365.517722    ;  uncertainty theta = 0.006485, k = 0.158882
         3         2         4     1      108.038475      811.615813    ;  uncertainty theta = 0.000850, k = 0.044751
         3         2         5     1      112.443848      643.160399    ;  uncertainty theta = 0.001593, k = 0.122978
         4         2         5     1      112.443848      643.160399    ;  uncertainty theta = 0.001593, k = 0.122978
         5         6         7     1      115.634560      439.092401    ;  uncertainty theta = 0.002569, k = 0.271513
         5         6        26     1      123.336868      376.372749    ;  uncertainty theta = 0.006092, k = 0.184767
         5        29        28     1      121.322495      502.048940    ;  uncertainty theta = 0.003114, k = 0.118074
         5        29        41     1      116.281593      265.184414    ;  uncertainty theta = 0.003805, k = 0.160730
         6         5        29     1      122.763695      447.127875    ;  uncertainty theta = 0.004766, k = 0.191675
         6         7         8     1      113.362183      456.596429    ;  uncertainty theta = 0.006915, k = 0.267307
         6        26        27     1      119.193558      506.722838    ;  uncertainty theta = 0.001557, k = 0.077120
         6        26        38     1      119.174637      273.798161    ;  uncertainty theta = 0.001218, k = 0.096442
         7         6        26     1      120.184982      430.227097    ;  uncertainty theta = 0.003395, k = 0.123300
         7         8         9     1      116.217628      379.874046    ;  uncertainty theta = 0.009959, k = 0.411994
         7         8        25     1      116.913437      562.790455    ;  uncertainty theta = 0.005887, k = 0.051879
         8         9        10     1      117.143044      488.349782    ;  uncertainty theta = 0.006973, k = 0.210022
         8         9        22     1      117.553139      354.267923    ;  uncertainty theta = 0.008696, k = 0.140912
         8        25        24     1      118.887047      387.285011    ;  uncertainty theta = 0.003090, k = 0.177781
         9         8        25     1      125.636276      516.970369    ;  uncertainty theta = 0.002499, k = 0.151920
         9        10        11     1      118.047020      383.931861    ;  uncertainty theta = 0.006145, k = 0.348845
         9        10        30     1      114.704041      335.957720    ;  uncertainty theta = 0.005639, k = 0.195191
         9        22        23     1      118.664589      535.632378    ;  uncertainty theta = 0.002867, k = 0.172990
         9        22        35     1      117.850075      264.486868    ;  uncertainty theta = 0.003879, k = 0.116474
        10         9        22     1      122.491943      468.987641    ;  uncertainty theta = 0.005717, k = 0.226575
        10        11        12     1      125.348587      731.379110    ;  uncertainty theta = 0.005732, k = 0.126463
        10        11        13     1      111.558266      574.708177    ;  uncertainty theta = 0.009111, k = 0.253121
        11        10        30     1      117.989967      329.422646    ;  uncertainty theta = 0.006582, k = 0.171883
        11        13        14     1      118.193810      381.929592    ;  uncertainty theta = 0.004842, k = 0.193416
        11        13        31     1      117.312866      317.781172    ;  uncertainty theta = 0.005441, k = 0.191735
        12        11        13     1      125.502602      724.225463    ;  uncertainty theta = 0.004432, k = 0.123613
        13        14        15     1      118.279419      529.118691    ;  uncertainty theta = 0.005041, k = 0.171308
        13        14        21     1      121.619789      495.938772    ;  uncertainty theta = 0.004320, k = 0.152847
        14        13        31     1      115.198143      310.153524    ;  uncertainty theta = 0.004351, k = 0.269571
        14        15        16     1      116.736191      467.720234    ;  uncertainty theta = 0.002974, k = 0.264124
        14        15        17     1      125.011475      355.194824    ;  uncertainty theta = 0.004666, k = 0.262239
        14        21        20     1      121.337158      511.202111    ;  uncertainty theta = 0.001573, k = 0.067381
        14        21        34     1      117.573708      261.445398    ;  uncertainty theta = 0.003375, k = 0.111123
        15        14        21     1      118.396774      360.750901    ;  uncertainty theta = 0.003932, k = 0.276952
        15        17        18     1      117.741173      453.839028    ;  uncertainty theta = 0.003901, k = 0.186862
        15        17        32     1      120.903954      271.854659    ;  uncertainty theta = 0.002836, k = 0.102662
        16        15        17     1      118.820862      531.087028    ;  uncertainty theta = 0.003627, k = 0.147571
        17        18        19     1      118.530540      506.283408    ;  uncertainty theta = 0.002389, k = 0.013247
        17        18        20     1      122.215164      369.437253    ;  uncertainty theta = 0.005625, k = 0.103914
        18        17        32     1      122.160446      275.853803    ;  uncertainty theta = 0.001471, k = 0.051745
        18        20        21     1      118.285049      484.279294    ;  uncertainty theta = 0.001768, k = 0.055731
        18        20        33     1      120.915672      281.926400    ;  uncertainty theta = 0.000927, k = 0.036510
        19        18        20     1      119.429977      517.007015    ;  uncertainty theta = 0.002152, k = 0.043401
        20        21        34     1      120.346207      308.716998    ;  uncertainty theta = 0.001985, k = 0.114318
        21        20        33     1      121.279221      274.103330    ;  uncertainty theta = 0.002275, k = 0.088219
        22        23        24     1      116.662033      486.639402    ;  uncertainty theta = 0.002659, k = 0.164042
        22        23        36     1      121.692772      278.904306    ;  uncertainty theta = 0.003629, k = 0.116071
        23        22        35     1      121.491959      306.835200    ;  uncertainty theta = 0.004314, k = 0.137900
        23        24        25     1      122.018661      680.497696    ;  uncertainty theta = 0.002657, k = 0.057695
        23        24        37     1      121.479836      279.479402    ;  uncertainty theta = 0.001106, k = 0.075569
        24        23        36     1      121.531288      284.776501    ;  uncertainty theta = 0.000829, k = 0.071895
        25        24        37     1      116.528885      326.284582    ;  uncertainty theta = 0.003532, k = 0.089660
        26        27        28     1      118.510803      516.719914    ;  uncertainty theta = 0.002841, k = 0.031385
        26        27        39     1      119.830162      284.141425    ;  uncertainty theta = 0.001441, k = 0.018583
        27        26        38     1      121.534325      292.944928    ;  uncertainty theta = 0.001320, k = 0.039286
        27        28        29     1      118.644997      518.899921    ;  uncertainty theta = 0.001404, k = 0.041691
        27        28        40     1      120.854591      289.038133    ;  uncertainty theta = 0.001903, k = 0.028542
        28        27        39     1      120.686172      286.059230    ;  uncertainty theta = 0.000976, k = 0.010909
        28        29        41     1      120.562050      286.111134    ;  uncertainty theta = 0.001898, k = 0.020339
        29        28        40     1      119.954712      285.558575    ;  uncertainty theta = 0.001342, k = 0.052309

[ dihedrals ] ; propers for gromacs 4.5 or higher, use funct 9
;       ai        aj        ak        al funct           phase               k        pn
         1         2         5         6     9        0.000000        0.227455         1    ;  uncertainty k = 0.739076
         1         2         5         6     9      180.000000        2.337666         2    ;  uncertainty k = 0.267805
         1         2         5         6     9        0.000000        0.817733         3    ;  uncertainty k = 0.156921
         1         2         5         6     9      180.000000        0.192156         4    ;  uncertainty k = 0.101460
         1         2         5        29     9        0.000000       -0.598920         1    ;  uncertainty k = 0.312305
         1         2         5        29     9      180.000000        2.516717         2    ;  uncertainty k = 0.216335
         1         2         5        29     9        0.000000        0.353672         3    ;  uncertainty k = 0.102669
         1         2         5        29     9      180.000000        0.151072         4    ;  uncertainty k = 0.047639
         2         5         6         7     9        0.000000        0.339938         1    ;  uncertainty k = 0.372679
         2         5         6         7     9      180.000000       11.416659         2    ;  uncertainty k = 0.362017
         2         5         6         7     9        0.000000        0.917453         3    ;  uncertainty k = 0.210260
         2         5         6         7     9      180.000000        1.422099         4    ;  uncertainty k = 0.434564
         2         5         6        26     9        0.000000        0.329142         1    ;  uncertainty k = 0.186405
         2         5         6        26     9      180.000000        8.034839         2    ;  uncertainty k = 0.533903
         2         5         6        26     9        0.000000        1.332615         3    ;  uncertainty k = 0.344343
         2         5         6        26     9      180.000000        1.763297         4    ;  uncertainty k = 0.123778
         2         5        29        28     9        0.000000        0.170829         1    ;  uncertainty k = 0.311741
         2         5        29        28     9      180.000000       10.521662         2    ;  uncertainty k = 0.581952
         2         5        29        28     9        0.000000        1.543726         3    ;  uncertainty k = 0.333823
         2         5        29        28     9      180.000000        1.913360         4    ;  uncertainty k = 0.320163
         2         5        29        41     9        0.000000        0.065101         1    ;  uncertainty k = 0.458896
         2         5        29        41     9      180.000000        8.862173         2    ;  uncertainty k = 0.504843
         2         5        29        41     9        0.000000        0.735731         3    ;  uncertainty k = 0.227991
         2         5        29        41     9      180.000000        1.146686         4    ;  uncertainty k = 0.150015
         3         2         5         6     9        0.000000        0.227455         1    ;  uncertainty k = 0.739076
         3         2         5         6     9      180.000000        2.337666         2    ;  uncertainty k = 0.267805
         3         2         5         6     9        0.000000        0.817733         3    ;  uncertainty k = 0.156921
         3         2         5         6     9      180.000000        0.192156         4    ;  uncertainty k = 0.101460
         3         2         5        29     9        0.000000       -0.598920         1    ;  uncertainty k = 0.312305
         3         2         5        29     9      180.000000        2.516717         2    ;  uncertainty k = 0.216335
         3         2         5        29     9        0.000000        0.353672         3    ;  uncertainty k = 0.102669
         3         2         5        29     9      180.000000        0.151072         4    ;  uncertainty k = 0.047639
         4         2         5         6     9        0.000000        0.227455         1    ;  uncertainty k = 0.739076
         4         2         5         6     9      180.000000        2.337666         2    ;  uncertainty k = 0.267805
         4         2         5         6     9        0.000000        0.817733         3    ;  uncertainty k = 0.156921
         4         2         5         6     9      180.000000        0.192156         4    ;  uncertainty k = 0.101460
         4         2         5        29     9        0.000000       -0.598920         1    ;  uncertainty k = 0.312305
         4         2         5        29     9      180.000000        2.516717         2    ;  uncertainty k = 0.216335
         4         2         5        29     9        0.000000        0.353672         3    ;  uncertainty k = 0.102669
         4         2         5        29     9      180.000000        0.151072         4    ;  uncertainty k = 0.047639
         5         6         7         8     9        0.000000        2.220666         1    ;  uncertainty k = 2.057201
         5         6         7         8     9      180.000000        6.469135         2    ;  uncertainty k = 0.444978
         5         6         7         8     9        0.000000       -0.100780         3    ;  uncertainty k = 0.222295
         5         6         7         8     9      180.000000        0.262262         4    ;  uncertainty k = 0.146134
         5         6        26        27     9        0.000000       -0.051590         1    ;  uncertainty k = 0.235967
         5         6        26        27     9      180.000000        8.766138         2    ;  uncertainty k = 0.385847
         5         6        26        27     9        0.000000        0.296996         3    ;  uncertainty k = 0.391147
         5         6        26        27     9      180.000000        1.269037         4    ;  uncertainty k = 0.376393
         5         6        26        38     9        0.000000        0.141425         1    ;  uncertainty k = 0.384593
         5         6        26        38     9      180.000000        6.251185         2    ;  uncertainty k = 0.593305
         5         6        26        38     9        0.000000        1.386135         3    ;  uncertainty k = 0.452239
         5         6        26        38     9      180.000000        1.589758         4    ;  uncertainty k = 0.177580
         5        29        28        27     9        0.000000       -0.154206         1    ;  uncertainty k = 0.343378
         5        29        28        27     9      180.000000       12.860160         2    ;  uncertainty k = 0.375079
         5        29        28        27     9        0.000000       -0.709199         3    ;  uncertainty k = 0.352274
         5        29        28        27     9      180.000000        0.764929         4    ;  uncertainty k = 0.317872
         5        29        28        40     9        0.000000        0.199021         1    ;  uncertainty k = 0.331777
         5        29        28        40     9      180.000000        7.466636         2    ;  uncertainty k = 0.427924
         5        29        28        40     9        0.000000        1.450487         3    ;  uncertainty k = 0.326702
         5        29        28        40     9      180.000000        1.755134         4    ;  uncertainty k = 0.152361
         6         5        29        28     9        0.000000       -0.221318         1    ;  uncertainty k = 0.243363
         6         5        29        28     9      180.000000       11.309197         2    ;  uncertainty k = 0.409259
         6         5        29        28     9        0.000000       -0.118739         3    ;  uncertainty k = 0.303717
         6         5        29        28     9      180.000000        1.099454         4    ;  uncertainty k = 0.292261
         6         5        29        41     9        0.000000       -0.062713         1    ;  uncertainty k = 0.320039
         6         5        29        41     9      180.000000        8.212110         2    ;  uncertainty k = 0.392777
         6         5        29        41     9        0.000000        1.117611         3    ;  uncertainty k = 0.347336
         6         5        29        41     9      180.000000        1.510156         4    ;  uncertainty k = 0.236915
         6         7         8         9     9        0.000000        6.047911         1    ;  uncertainty k = 0.679167
         6         7         8         9     9      180.000000        3.456549         2    ;  uncertainty k = 0.310347
         6         7         8         9     9        0.000000        0.500798         3    ;  uncertainty k = 0.375665
         6         7         8         9     9      180.000000        0.094230         4    ;  uncertainty k = 0.159583
         6         7         8        25     9        0.000000        2.167568         1    ;  uncertainty k = 1.240601
         6         7         8        25     9      180.000000        6.324641         2    ;  uncertainty k = 0.119170
         6         7         8        25     9        0.000000        0.089864         3    ;  uncertainty k = 0.432043
         6         7         8        25     9      180.000000        0.125013         4    ;  uncertainty k = 0.091196
         6        26        27        28     9        0.000000       -0.202727         1    ;  uncertainty k = 0.284366
         6        26        27        28     9      180.000000       14.079560         2    ;  uncertainty k = 0.286264
         6        26        27        28     9        0.000000       -0.935908         3    ;  uncertainty k = 0.521912
         6        26        27        28     9      180.000000        0.781840         4    ;  uncertainty k = 0.258314
         6        26        27        39     9        0.000000        0.015657         1    ;  uncertainty k = 0.117887
         6        26        27        39     9      180.000000        7.790585         2    ;  uncertainty k = 0.300295
         6        26        27        39     9        0.000000        1.313494         3    ;  uncertainty k = 0.133697
         6        26        27        39     9      180.000000        1.686333         4    ;  uncertainty k = 0.173352
         7         6         5        29     9        0.000000        0.203861         1    ;  uncertainty k = 0.321221
         7         6         5        29     9      180.000000        9.898461         2    ;  uncertainty k = 0.404167
         7         6         5        29     9        0.000000        1.350263         3    ;  uncertainty k = 0.115144
         7         6         5        29     9      180.000000        1.676563         4    ;  uncertainty k = 0.063997
         7         6        26        27     9        0.000000       -0.043880         1    ;  uncertainty k = 0.196284
         7         6        26        27     9      180.000000       11.638775         2    ;  uncertainty k = 0.191658
         7         6        26        27     9        0.000000        1.327078         3    ;  uncertainty k = 0.215111
         7         6        26        27     9      180.000000        1.653776         4    ;  uncertainty k = 0.116519
         7         6        26        38     9        0.000000        0.100641         1    ;  uncertainty k = 0.164372
         7         6        26        38     9      180.000000        9.054356         2    ;  uncertainty k = 0.506051
         7         6        26        38     9        0.000000        0.783534         3    ;  uncertainty k = 0.326276
         7         6        26        38     9      180.000000        1.164593         4    ;  uncertainty k = 0.255574
         7         8         9        10     9        0.000000        0.302202         1    ;  uncertainty k = 0.647487
         7         8         9        10     9      180.000000        8.170234         2    ;  uncertainty k = 0.477820
         7         8         9        10     9        0.000000        0.761442         3    ;  uncertainty k = 0.218985
         7         8         9        10     9      180.000000        1.378402         4    ;  uncertainty k = 0.278718
         7         8         9        22     9        0.000000        0.852554         1    ;  uncertainty k = 0.295291
         7         8         9        22     9      180.000000        5.771310         2    ;  uncertainty k = 0.499784
         7         8         9        22     9        0.000000        0.910522         3    ;  uncertainty k = 0.123367
         7         8         9        22     9      180.000000        1.471011         4    ;  uncertainty k = 0.485482
         7         8        25        24     9        0.000000        0.695253         1    ;  uncertainty k = 1.193380
         7         8        25        24     9      180.000000       16.862947         2    ;  uncertainty k = 0.293887
         7         8        25        24     9        0.000000        2.837506         3    ;  uncertainty k = 0.600093
         7         8        25        24     9      180.000000        1.985761         4    ;  uncertainty k = 0.187340
         8         7         6        26     9        0.000000        5.153079         1    ;  uncertainty k = 0.525111
         8         7         6        26     9      180.000000        6.040754         2    ;  uncertainty k = 0.296509
         8         7         6        26     9        0.000000       -0.006353         3    ;  uncertainty k = 0.242226
         8         7         6        26     9      180.000000        0.338714         4    ;  uncertainty k = 0.106676
         8         9        10        11     9        0.000000        1.939332         1    ;  uncertainty k = 1.216326
         8         9        10        11     9      180.000000        3.870714         2    ;  uncertainty k = 0.553933
         8         9        10        11     9        0.000000        0.264668         3    ;  uncertainty k = 0.178631
         8         9        10        11     9      180.000000        0.001919         4    ;  uncertainty k = 0.061055
         8         9        10        30     9        0.000000        1.790871         1    ;  uncertainty k = 1.008652
         8         9        10        30     9      180.000000        2.157695         2    ;  uncertainty k = 0.861321
         8         9        10        30     9        0.000000       -0.062950         3    ;  uncertainty k = 0.367837
         8         9        10        30     9      180.000000       -0.089320         4    ;  uncertainty k = 0.133767
         8         9        22        23     9        0.000000       -0.030132         1    ;  uncertainty k = 0.350193
         8         9        22        23     9      180.000000        9.735746         2    ;  uncertainty k = 0.562603
         8         9        22        23     9        0.000000        0.093353         3    ;  uncertainty k = 0.450931
         8         9        22        23     9      180.000000        1.415785         4    ;  uncertainty k = 0.220677
         8         9        22        35     9        0.000000       -0.041478         1    ;  uncertainty k = 0.340993
         8         9        22        35     9      180.000000        7.165696         2    ;  uncertainty k = 0.370158
         8         9        22        35     9        0.000000        1.218945         3    ;  uncertainty k = 0.132784
         8         9        22        35     9      180.000000        1.470983         4    ;  uncertainty k = 0.083532
         8        25        24        23     9        0.000000       -0.152779         1    ;  uncertainty k = 0.652820
         8        25        24        23     9      180.000000       15.169948         2    ;  uncertainty k = 0.219950
         8        25        24        23     9        0.000000        0.738976         3    ;  uncertainty k = 0.607844
         8        25        24        23     9      180.000000        1.309388         4    ;  uncertainty k = 0.318753
         8        25        24        37     9        0.000000        0.094454         1    ;  uncertainty k = 0.461568
         8        25        24        37     9      180.000000       15.212743         2    ;  uncertainty k = 0.638779
         8        25        24        37     9        0.000000        2.097180         3    ;  uncertainty k = 0.681642
         8        25        24        37     9      180.000000        1.294776         4    ;  uncertainty k = 0.576515
         9         8        25        24     9        0.000000        0.676172         1    ;  uncertainty k = 0.497916
         9         8        25        24     9      180.000000       12.399767         2    ;  uncertainty k = 0.361751
         9         8        25        24     9        0.000000        1.802644         3    ;  uncertainty k = 0.394747
         9         8        25        24     9      180.000000        1.364744         4    ;  uncertainty k = 0.214528
         9        10        11        12     9        0.000000        6.938510         1    ;  uncertainty k = 0.914338
         9        10        11        12     9      180.000000        9.497243         2    ;  uncertainty k = 0.342217
         9        10        11        12     9        0.000000        1.312535         3    ;  uncertainty k = 0.340454
         9        10        11        12     9      180.000000       -0.549591         4    ;  uncertainty k = 0.268139
         9        10        11        13     9        0.000000        8.195238         1    ;  uncertainty k = 0.774429
         9        10        11        13     9      180.000000        6.135431         2    ;  uncertainty k = 1.014380
         9        10        11        13     9        0.000000        0.633534         3    ;  uncertainty k = 0.253995
         9        10        11        13     9      180.000000       -0.183396         4    ;  uncertainty k = 0.464402
         9        22        23        24     9        0.000000       -0.219716         1    ;  uncertainty k = 0.258710
         9        22        23        24     9      180.000000       13.489343         2    ;  uncertainty k = 0.300398
         9        22        23        24     9        0.000000       -1.177535         3    ;  uncertainty k = 0.825068
         9        22        23        24     9      180.000000        0.747942         4    ;  uncertainty k = 0.391509
         9        22        23        36     9        0.000000        0.313278         1    ;  uncertainty k = 0.255484
         9        22        23        36     9      180.000000        7.639765         2    ;  uncertainty k = 0.597194
         9        22        23        36     9        0.000000        1.394865         3    ;  uncertainty k = 0.301688
         9        22        23        36     9      180.000000        1.632044         4    ;  uncertainty k = 0.213680
        10         9         8        25     9        0.000000        0.354398         1    ;  uncertainty k = 0.466578
        10         9         8        25     9      180.000000        6.341080         2    ;  uncertainty k = 0.780089
        10         9         8        25     9        0.000000        0.768341         3    ;  uncertainty k = 0.321756
        10         9         8        25     9      180.000000        1.504548         4    ;  uncertainty k = 0.289127
        10         9        22        23     9        0.000000       -0.104132         1    ;  uncertainty k = 0.141361
        10         9        22        23     9      180.000000       11.628690         2    ;  uncertainty k = 0.794318
        10         9        22        23     9        0.000000        1.107583         3    ;  uncertainty k = 0.487861
        10         9        22        23     9      180.000000        1.611587         4    ;  uncertainty k = 0.361445
        10         9        22        35     9        0.000000       -0.339226         1    ;  uncertainty k = 0.473731
        10         9        22        35     9      180.000000        8.956187         2    ;  uncertainty k = 0.817387
        10         9        22        35     9        0.000000        0.715306         3    ;  uncertainty k = 0.150871
        10         9        22        35     9      180.000000        1.268140         4    ;  uncertainty k = 0.406222
        10        11        13        14     9        0.000000        7.603735         1    ;  uncertainty k = 0.763172
        10        11        13        14     9      180.000000        6.226504         2    ;  uncertainty k = 0.785717
        10        11        13        14     9        0.000000        0.607677         3    ;  uncertainty k = 0.278533
        10        11        13        14     9      180.000000       -0.139698         4    ;  uncertainty k = 0.327452
        10        11        13        31     9        0.000000        2.840840         1    ;  uncertainty k = 0.918049
        10        11        13        31     9      180.000000        4.417857         2    ;  uncertainty k = 1.192847
        10        11        13        31     9        0.000000        0.896698         3    ;  uncertainty k = 0.320711
        10        11        13        31     9      180.000000       -0.379140         4    ;  uncertainty k = 0.206919
        11        10         9        22     9        0.000000        1.567098         1    ;  uncertainty k = 1.278446
        11        10         9        22     9      180.000000        3.967892         2    ;  uncertainty k = 0.530672
        11        10         9        22     9        0.000000        0.661734         3    ;  uncertainty k = 0.282621
        11        10         9        22     9      180.000000        0.352400         4    ;  uncertainty k = 0.138282
        11        13        14        15     9        0.000000        1.102742         1    ;  uncertainty k = 1.073573
        11        13        14        15     9      180.000000        4.355582         2    ;  uncertainty k = 0.328195
        11        13        14        15     9        0.000000        0.826132         3    ;  uncertainty k = 0.184405
        11        13        14        15     9      180.000000        0.060796         4    ;  uncertainty k = 0.031085
        11        13        14        21     9        0.000000        1.587779         1    ;  uncertainty k = 1.012218
        11        13        14        21     9      180.000000        3.674664         2    ;  uncertainty k = 0.238098
        11        13        14        21     9        0.000000        0.747420         3    ;  uncertainty k = 0.203029
        11        13        14        21     9      180.000000        0.388772         4    ;  uncertainty k = 0.124494
        12        11        10        30     9        0.000000        0.713542         1    ;  uncertainty k = 0.342834
        12        11        10        30     9      180.000000        8.667986         2    ;  uncertainty k = 0.453147
        12        11        10        30     9        0.000000        1.867006         3    ;  uncertainty k = 0.222363
        12        11        10        30     9      180.000000       -0.443812         4    ;  uncertainty k = 0.252468
        12        11        13        14     9        0.000000        6.466955         1    ;  uncertainty k = 0.945490
        12        11        13        14     9      180.000000        9.641418         2    ;  uncertainty k = 0.397964
        12        11        13        14     9        0.000000        1.224658         3    ;  uncertainty k = 0.302776
        12        11        13        14     9      180.000000       -0.489460         4    ;  uncertainty k = 0.205453
        12        11        13        31     9        0.000000        0.954701         1    ;  uncertainty k = 0.377358
        12        11        13        31     9      180.000000        8.819628         2    ;  uncertainty k = 0.292028
        12        11        13        31     9        0.000000        1.864982         3    ;  uncertainty k = 0.267326
        12        11        13        31     9      180.000000       -0.377917         4    ;  uncertainty k = 0.210061
        13        11        10        30     9        0.000000        2.929481         1    ;  uncertainty k = 1.008370
        13        11        10        30     9      180.000000        4.487898         2    ;  uncertainty k = 1.223013
        13        11        10        30     9        0.000000        0.811151         3    ;  uncertainty k = 0.207045
        13        11        10        30     9      180.000000       -0.390351         4    ;  uncertainty k = 0.250539
        13        14        15        16     9        0.000000        0.160525         1    ;  uncertainty k = 0.421604
        13        14        15        16     9      180.000000       11.170225         2    ;  uncertainty k = 0.644858
        13        14        15        16     9        0.000000        0.977782         3    ;  uncertainty k = 0.194168
        13        14        15        16     9      180.000000        1.392614         4    ;  uncertainty k = 0.457788
        13        14        15        17     9        0.000000       -0.005877         1    ;  uncertainty k = 0.229534
        13        14        15        17     9      180.000000        7.356193         2    ;  uncertainty k = 0.365758
        13        14        15        17     9        0.000000        1.055882         3    ;  uncertainty k = 0.365644
        13        14        15        17     9      180.000000        1.733629         4    ;  uncertainty k = 0.186462
        13        14        21        20     9        0.000000        0.039337         1    ;  uncertainty k = 0.295351
        13        14        21        20     9      180.000000       10.679407         2    ;  uncertainty k = 0.704468
        13        14        21        20     9        0.000000        1.147084         3    ;  uncertainty k = 0.505891
        13        14        21        20     9      180.000000        1.714043         4    ;  uncertainty k = 0.291279
        13        14        21        34     9        0.000000       -0.337143         1    ;  uncertainty k = 0.369468
        13        14        21        34     9      180.000000        8.330856         2    ;  uncertainty k = 0.638478
        13        14        21        34     9        0.000000        0.817316         3    ;  uncertainty k = 0.200036
        13        14        21        34     9      180.000000        1.246975         4    ;  uncertainty k = 0.250931
        14        15        17        18     9        0.000000       -0.165241         1    ;  uncertainty k = 0.364036
        14        15        17        18     9      180.000000        8.631343         2    ;  uncertainty k = 0.403041
        14        15        17        18     9        0.000000        0.231801         3    ;  uncertainty k = 0.408310
        14        15        17        18     9      180.000000        1.184367         4    ;  uncertainty k = 0.308451
        14        15        17        32     9        0.000000        0.059375         1    ;  uncertainty k = 0.533931
        14        15        17        32     9      180.000000        5.844886         2    ;  uncertainty k = 0.878896
        14        15        17        32     9        0.000000        1.269323         3    ;  uncertainty k = 0.215214
        14        15        17        32     9      180.000000        1.480512         4    ;  uncertainty k = 0.179711
        14        21        20        18     9        0.000000       -0.204716         1    ;  uncertainty k = 0.162298
        14        21        20        18     9      180.000000       13.608290         2    ;  uncertainty k = 0.242241
        14        21        20        18     9        0.000000       -0.739659         3    ;  uncertainty k = 0.541524
        14        21        20        18     9      180.000000        0.908221         4    ;  uncertainty k = 0.219568
        14        21        20        33     9        0.000000        0.222127         1    ;  uncertainty k = 0.208959
        14        21        20        33     9      180.000000        7.706030         2    ;  uncertainty k = 0.493084
        14        21        20        33     9        0.000000        1.443504         3    ;  uncertainty k = 0.268422
        14        21        20        33     9      180.000000        1.722112         4    ;  uncertainty k = 0.143262
        15        14        13        31     9        0.000000        1.446213         1    ;  uncertainty k = 0.837531
        15        14        13        31     9      180.000000        2.234040         2    ;  uncertainty k = 0.278402
        15        14        13        31     9        0.000000        0.118908         3    ;  uncertainty k = 0.139066
        15        14        13        31     9      180.000000       -0.177320         4    ;  uncertainty k = 0.119437
        15        14        21        20     9        0.000000       -0.012319         1    ;  uncertainty k = 0.330053
        15        14        21        20     9      180.000000        9.307745         2    ;  uncertainty k = 0.530981
        15        14        21        20     9        0.000000        0.226771         3    ;  uncertainty k = 0.181246
        15        14        21        20     9      180.000000        1.440929         4    ;  uncertainty k = 0.312195
        15        14        21        34     9        0.000000        0.065007         1    ;  uncertainty k = 0.484935
        15        14        21        34     9      180.000000        6.971212         2    ;  uncertainty k = 0.391590
        15        14        21        34     9        0.000000        1.282903         3    ;  uncertainty k = 0.269565
        15        14        21        34     9      180.000000        1.525248         4    ;  uncertainty k = 0.117715
        15        17        18        19     9        0.000000        0.055242         1    ;  uncertainty k = 0.241498
        15        17        18        19     9      180.000000       12.277294         2    ;  uncertainty k = 0.427894
        15        17        18        19     9        0.000000        1.538731         3    ;  uncertainty k = 0.392990
        15        17        18        19     9      180.000000        1.507857         4    ;  uncertainty k = 0.216063
        15        17        18        20     9        0.000000       -0.127835         1    ;  uncertainty k = 0.214508
        15        17        18        20     9      180.000000        8.898659         2    ;  uncertainty k = 0.463050
        15        17        18        20     9        0.000000       -0.075985         3    ;  uncertainty k = 0.355342
        15        17        18        20     9      180.000000        1.297640         4    ;  uncertainty k = 0.222628
        16        15        14        21     9        0.000000        0.245084         1    ;  uncertainty k = 0.313901
        16        15        14        21     9      180.000000        8.890451         2    ;  uncertainty k = 0.608394
        16        15        14        21     9        0.000000        1.363087         3    ;  uncertainty k = 0.075345
        16        15        14        21     9      180.000000        1.626558         4    ;  uncertainty k = 0.309394
        16        15        17        18     9        0.000000        0.036917         1    ;  uncertainty k = 0.173047
        16        15        17        18     9      180.000000       13.192884         2    ;  uncertainty k = 0.607875
        16        15        17        18     9        0.000000        1.501887         3    ;  uncertainty k = 0.427028
        16        15        17        18     9      180.000000        1.531977         4    ;  uncertainty k = 0.229303
        16        15        17        32     9        0.000000       -0.114872         1    ;  uncertainty k = 0.231347
        16        15        17        32     9      180.000000        9.192255         2    ;  uncertainty k = 0.368990
        16        15        17        32     9        0.000000        0.849509         3    ;  uncertainty k = 0.238093
        16        15        17        32     9      180.000000        1.103137         4    ;  uncertainty k = 0.246438
        17        15        14        21     9        0.000000       -0.347846         1    ;  uncertainty k = 0.707678
        17        15        14        21     9      180.000000        5.498151         2    ;  uncertainty k = 1.280336
        17        15        14        21     9        0.000000        0.274929         3    ;  uncertainty k = 0.386588
        17        15        14        21     9      180.000000        1.396833         4    ;  uncertainty k = 0.329412
        17        18        20        21     9        0.000000       -0.145017         1    ;  uncertainty k = 0.198922
        17        18        20        21     9      180.000000        9.651566         2    ;  uncertainty k = 0.544606
        17        18        20        21     9        0.000000       -0.239046         3    ;  uncertainty k = 0.338082
        17        18        20        21     9      180.000000        1.154011         4    ;  uncertainty k = 0.240193
        17        18        20        33     9        0.000000        0.053888         1    ;  uncertainty k = 0.209743
        17        18        20        33     9      180.000000        5.663165         2    ;  uncertainty k = 0.622745
        17        18        20        33     9        0.000000        1.285342         3    ;  uncertainty k = 0.316149
        17        18        20        33     9      180.000000        1.505279         4    ;  uncertainty k = 0.194728
        18        20        21        34     9        0.000000       -0.020916         1    ;  uncertainty k = 0.214501
        18        20        21        34     9      180.000000        8.038455         2    ;  uncertainty k = 0.394853
        18        20        21        34     9        0.000000        1.372910         3    ;  uncertainty k = 0.244469
        18        20        21        34     9      180.000000        1.777415         4    ;  uncertainty k = 0.166593
        19        18        17        32     9        0.000000       -0.291300         1    ;  uncertainty k = 0.270824
        19        18        17        32     9      180.000000        8.289551         2    ;  uncertainty k = 0.324950
        19        18        17        32     9        0.000000        0.815180         3    ;  uncertainty k = 0.327930
        19        18        17        32     9      180.000000        0.995860         4    ;  uncertainty k = 0.217002
        19        18        20        21     9        0.000000       -0.029063         1    ;  uncertainty k = 0.270457
        19        18        20        21     9      180.000000       11.951017         2    ;  uncertainty k = 0.496814
        19        18        20        21     9        0.000000        1.487440         3    ;  uncertainty k = 0.321591
        19        18        20        21     9      180.000000        1.558964         4    ;  uncertainty k = 0.244594
        19        18        20        33     9        0.000000       -0.400128         1    ;  uncertainty k = 0.228453
        19        18        20        33     9      180.000000        8.688984         2    ;  uncertainty k = 0.258478
        19        18        20        33     9        0.000000        0.812386         3    ;  uncertainty k = 0.243970
        19        18        20        33     9      180.000000        0.931610         4    ;  uncertainty k = 0.182856
        20        18        17        32     9        0.000000        0.151418         1    ;  uncertainty k = 0.137717
        20        18        17        32     9      180.000000        5.401458         2    ;  uncertainty k = 0.651709
        20        18        17        32     9        0.000000        1.287176         3    ;  uncertainty k = 0.273676
        20        18        17        32     9      180.000000        1.452362         4    ;  uncertainty k = 0.206285
        21        14        13        31     9        0.000000        0.307704         1    ;  uncertainty k = 0.470379
        21        14        13        31     9      180.000000        2.973551         2    ;  uncertainty k = 0.198975
        21        14        13        31     9        0.000000        0.311996         3    ;  uncertainty k = 0.135945
        21        14        13        31     9      180.000000       -0.004471         4    ;  uncertainty k = 0.147942
        22         9         8        25     9        0.000000       -0.007483         1    ;  uncertainty k = 0.640546
        22         9         8        25     9      180.000000        5.383479         2    ;  uncertainty k = 1.412913
        22         9         8        25     9        0.000000       -0.125467         3    ;  uncertainty k = 0.198792
        22         9         8        25     9      180.000000        1.222453         4    ;  uncertainty k = 0.566062
        22         9        10        30     9        0.000000        0.848164         1    ;  uncertainty k = 0.508399
        22         9        10        30     9      180.000000        2.941026         2    ;  uncertainty k = 0.300123
        22         9        10        30     9        0.000000        0.417155         3    ;  uncertainty k = 0.206641
        22         9        10        30     9      180.000000        0.143213         4    ;  uncertainty k = 0.162479
        22        23        24        25     9        0.000000        0.122912         1    ;  uncertainty k = 0.377649
        22        23        24        25     9      180.000000       16.205385         2    ;  uncertainty k = 0.253451
        22        23        24        25     9        0.000000       -1.374142         3    ;  uncertainty k = 0.567402
        22        23        24        25     9      180.000000        0.764887         4    ;  uncertainty k = 0.233190
        22        23        24        37     9        0.000000       -0.129492         1    ;  uncertainty k = 0.287892
        22        23        24        37     9      180.000000        6.663212         2    ;  uncertainty k = 0.558016
        22        23        24        37     9        0.000000        1.279159         3    ;  uncertainty k = 0.228439
        22        23        24        37     9      180.000000        1.542370         4    ;  uncertainty k = 0.207680
        24        23        22        35     9        0.000000       -0.096932         1    ;  uncertainty k = 0.224659
        24        23        22        35     9      180.000000        7.599749         2    ;  uncertainty k = 0.300024
        24        23        22        35     9        0.000000        1.345914         3    ;  uncertainty k = 0.259018
        24        23        22        35     9      180.000000        1.606126         4    ;  uncertainty k = 0.220858
        25        24        23        36     9        0.000000        0.109573         1    ;  uncertainty k = 0.140060
        25        24        23        36     9      180.000000       10.004732         2    ;  uncertainty k = 0.564196
        25        24        23        36     9        0.000000        0.906339         3    ;  uncertainty k = 0.280019
        25        24        23        36     9      180.000000        1.603453         4    ;  uncertainty k = 0.128881
        26         6         5        29     9        0.000000       -0.370548         1    ;  uncertainty k = 0.278814
        26         6         5        29     9      180.000000        7.210527         2    ;  uncertainty k = 0.739024
        26         6         5        29     9        0.000000        0.128675         3    ;  uncertainty k = 0.315287
        26         6         5        29     9      180.000000        1.190461         4    ;  uncertainty k = 0.330065
        26        27        28        29     9        0.000000       -0.021025         1    ;  uncertainty k = 0.099137
        26        27        28        29     9      180.000000       14.884480         2    ;  uncertainty k = 0.275581
        26        27        28        29     9        0.000000       -1.182255         3    ;  uncertainty k = 0.414932
        26        27        28        29     9      180.000000        0.573867         4    ;  uncertainty k = 0.220372
        26        27        28        40     9        0.000000        0.020144         1    ;  uncertainty k = 0.215119
        26        27        28        40     9      180.000000        7.759839         2    ;  uncertainty k = 0.341472
        26        27        28        40     9        0.000000        1.497733         3    ;  uncertainty k = 0.233958
        26        27        28        40     9      180.000000        1.811864         4    ;  uncertainty k = 0.153827
        27        28        29        41     9        0.000000       -0.012826         1    ;  uncertainty k = 0.119060
        27        28        29        41     9      180.000000        7.676703         2    ;  uncertainty k = 0.411308
        27        28        29        41     9        0.000000        1.306262         3    ;  uncertainty k = 0.247121
        27        28        29        41     9      180.000000        1.725038         4    ;  uncertainty k = 0.178284
        28        27        26        38     9        0.000000        0.066115         1    ;  uncertainty k = 0.140978
        28        27        26        38     9      180.000000        7.760078         2    ;  uncertainty k = 0.342943
        28        27        26        38     9        0.000000        1.375143         3    ;  uncertainty k = 0.319440
        28        27        26        38     9      180.000000        1.811530         4    ;  uncertainty k = 0.106112
        29        28        27        39     9        0.000000        0.036266         1    ;  uncertainty k = 0.190153
        29        28        27        39     9      180.000000        7.604313         2    ;  uncertainty k = 0.238283
        29        28        27        39     9        0.000000        1.450857         3    ;  uncertainty k = 0.293478
        29        28        27        39     9      180.000000        1.713858         4    ;  uncertainty k = 0.153570
        33        20        21        34     9        0.000000       -0.019828         1    ;  uncertainty k = 0.436153
        33        20        21        34     9      180.000000        7.844475         2    ;  uncertainty k = 0.402230
        33        20        21        34     9        0.000000       -0.352063         3    ;  uncertainty k = 0.208758
        33        20        21        34     9      180.000000        0.147197         4    ;  uncertainty k = 0.147423
        35        22        23        36     9        0.000000        0.077279         1    ;  uncertainty k = 0.355604
        35        22        23        36     9      180.000000        7.819655         2    ;  uncertainty k = 0.531204
        35        22        23        36     9        0.000000       -0.430593         3    ;  uncertainty k = 0.317162
        35        22        23        36     9      180.000000        0.145196         4    ;  uncertainty k = 0.160605
        36        23        24        37     9        0.000000       -0.176778         1    ;  uncertainty k = 0.222996
        36        23        24        37     9      180.000000        6.567607         2    ;  uncertainty k = 0.260169
        36        23        24        37     9        0.000000       -0.010460         3    ;  uncertainty k = 0.138988
        36        23        24        37     9      180.000000        0.217242         4    ;  uncertainty k = 0.090307
        38        26        27        39     9        0.000000       -0.013367         1    ;  uncertainty k = 0.101752
        38        26        27        39     9      180.000000        7.465383         2    ;  uncertainty k = 0.303186
        38        26        27        39     9        0.000000       -0.396137         3    ;  uncertainty k = 0.305989
        38        26        27        39     9      180.000000        0.137600         4    ;  uncertainty k = 0.125607
        39        27        28        40     9        0.000000       -0.002431         1    ;  uncertainty k = 0.022854
        39        27        28        40     9      180.000000        7.638073         2    ;  uncertainty k = 0.428048
        39        27        28        40     9        0.000000       -0.397881         3    ;  uncertainty k = 0.313255
        39        27        28        40     9      180.000000        0.041071         4    ;  uncertainty k = 0.184047
        40        28        29        41     9        0.000000        0.082035         1    ;  uncertainty k = 0.224289
        40        28        29        41     9      180.000000        7.779568         2    ;  uncertainty k = 0.453184
        40        28        29        41     9        0.000000       -0.366918         3    ;  uncertainty k = 0.269023
        40        28        29        41     9      180.000000        0.124739         4    ;  uncertainty k = 0.150556

[ dihedrals ] ; impropers
;       ai        aj        ak        al funct           phase               k        pn
         5         2         6        29     4      180.000000        7.257350         2    ;  uncertainty k = 0.206812
         5         6        29         2     4      180.000000        7.257350         2    ;  uncertainty k = 0.206812
         5        29         2         6     4      180.000000        7.257350         2    ;  uncertainty k = 0.206812
         6         5         7        26     4      180.000000       17.478920         2    ;  uncertainty k = 0.139417
         6         7        26         5     4      180.000000       17.478920         2    ;  uncertainty k = 0.139417
         6        26         5         7     4      180.000000       17.478920         2    ;  uncertainty k = 0.139417
         8         7         9        25     4      180.000000       23.361582         2    ;  uncertainty k = 0.109496
         8         9        25         7     4      180.000000       23.361582         2    ;  uncertainty k = 0.109496
         8        25         7         9     4      180.000000       23.361582         2    ;  uncertainty k = 0.109496
         9         8        10        22     4      180.000000       12.947090         2    ;  uncertainty k = 0.234161
         9        10        22         8     4      180.000000       12.947090         2    ;  uncertainty k = 0.234161
         9        22         8        10     4      180.000000       12.947090         2    ;  uncertainty k = 0.234161
        10         9        11        30     4      180.000000        0.392997         2    ;  uncertainty k = 0.571996
        10        11        30         9     4      180.000000        0.392997         2    ;  uncertainty k = 0.571996
        10        30         9        11     4      180.000000        0.392997         2    ;  uncertainty k = 0.571996
        11        10        12        13     4      180.000000       63.041132         2    ;  uncertainty k = 0.062030
        11        12        13        10     4      180.000000       63.041132         2    ;  uncertainty k = 0.062030
        11        13        10        12     4      180.000000       63.041132         2    ;  uncertainty k = 0.062030
        13        11        14        31     4      180.000000        0.405461         2    ;  uncertainty k = 0.506049
        13        14        31        11     4      180.000000        0.405461         2    ;  uncertainty k = 0.506049
        13        31        11        14     4      180.000000        0.405461         2    ;  uncertainty k = 0.506049
        14        13        15        21     4      180.000000       13.263524         2    ;  uncertainty k = 0.082270
        14        15        21        13     4      180.000000       13.263524         2    ;  uncertainty k = 0.082270
        14        21        13        15     4      180.000000       13.263524         2    ;  uncertainty k = 0.082270
        15        14        16        17     4      180.000000       13.044014         2    ;  uncertainty k = 0.157284
        15        16        17        14     4      180.000000       13.044014         2    ;  uncertainty k = 0.157284
        15        17        14        16     4      180.000000       13.044014         2    ;  uncertainty k = 0.157284
        17        15        18        32     4      180.000000        0.995246         2    ;  uncertainty k = 0.395215
        17        18        32        15     4      180.000000        0.995246         2    ;  uncertainty k = 0.395215
        17        32        15        18     4      180.000000        0.995246         2    ;  uncertainty k = 0.395215
        18        17        19        20     4      180.000000       16.377076         2    ;  uncertainty k = 0.056613
        18        19        20        17     4      180.000000       16.377076         2    ;  uncertainty k = 0.056613
        18        20        17        19     4      180.000000       16.377076         2    ;  uncertainty k = 0.056613
        20        18        21        33     4      180.000000        1.684238         2    ;  uncertainty k = 0.242394
        20        21        33        18     4      180.000000        1.684238         2    ;  uncertainty k = 0.242394
        20        33        18        21     4      180.000000        1.684238         2    ;  uncertainty k = 0.242394
        21        14        20        34     4      180.000000        3.554817         2    ;  uncertainty k = 0.313000
        21        20        34        14     4      180.000000        3.554817         2    ;  uncertainty k = 0.313000
        21        34        14        20     4      180.000000        3.554817         2    ;  uncertainty k = 0.313000
        22         9        23        35     4      180.000000        4.523752         2    ;  uncertainty k = 0.211544
        22        23        35         9     4      180.000000        4.523752         2    ;  uncertainty k = 0.211544
        22        35         9        23     4      180.000000        4.523752         2    ;  uncertainty k = 0.211544
        23        22        24        36     4      180.000000        2.219267         2    ;  uncertainty k = 0.396247
        23        24        36        22     4      180.000000        2.219267         2    ;  uncertainty k = 0.396247
        23        36        22        24     4      180.000000        2.219267         2    ;  uncertainty k = 0.396247
        24        23        25        37     4      180.000000       11.532156         2    ;  uncertainty k = 0.089529
        24        25        37        23     4      180.000000       11.532156         2    ;  uncertainty k = 0.089529
        24        37        23        25     4      180.000000       11.532156         2    ;  uncertainty k = 0.089529
        26         6        27        38     4      180.000000        2.725531         2    ;  uncertainty k = 0.164401
        26        27        38         6     4      180.000000        2.725531         2    ;  uncertainty k = 0.164401
        26        38         6        27     4      180.000000        2.725531         2    ;  uncertainty k = 0.164401
        27        26        28        39     4      180.000000        4.720104         2    ;  uncertainty k = 0.089818
        27        28        39        26     4      180.000000        4.720104         2    ;  uncertainty k = 0.089818
        27        39        26        28     4      180.000000        4.720104         2    ;  uncertainty k = 0.089818
        28        27        29        40     4      180.000000        3.393698         2    ;  uncertainty k = 0.101184
        28        29        40        27     4      180.000000        3.393698         2    ;  uncertainty k = 0.101184
        28        40        27        29     4      180.000000        3.393698         2    ;  uncertainty k = 0.101184
        29         5        28        41     4      180.000000        4.437663         2    ;  uncertainty k = 0.109150
        29        28        41         5     4      180.000000        4.437663         2    ;  uncertainty k = 0.109150
        29        41         5        28     4      180.000000        4.437663         2    ;  uncertainty k = 0.109150

[ pairs ]
;       ai        aj funct
         1         6     1
         1        29     1
         2         7     1
         2        26     1
         2        28     1
         2        41     1
         3         6     1
         3        29     1
         4         6     1
         4        29     1
         5         8     1
         5        27     1
         5        38     1
         5        40     1
         6         9     1
         6        25     1
         6        28     1
         6        39     1
         6        41     1
         7        10     1
         7        22     1
         7        24     1
         7        27     1
         7        29     1
         7        38     1
         8        11     1
         8        23     1
         8        26     1
         8        30     1
         8        35     1
         8        37     1
         9        12     1
         9        13     1
         9        24     1
         9        36     1
        10        14     1
        10        23     1
        10        25     1
        10        31     1
        10        35     1
        11        15     1
        11        21     1
        11        22     1
        12        14     1
        12        30     1
        12        31     1
        13        16     1
        13        17     1
        13        20     1
        13        30     1
        13        34     1
        14        18     1
        14        32     1
        14        33     1
        15        19     1
        15        20     1
        15        31     1
        15        34     1
        16        18     1
        16        21     1
        16        32     1
        17        21     1
        17        33     1
        18        34     1
        19        21     1
        19        32     1
        19        33     1
        20        32     1
        21        31     1
        22        25     1
        22        30     1
        22        37     1
        24        35     1
        25        36     1
        26        29     1
        26        40     1
        27        41     1
        28        38     1
        29        39     1
        33        34     1
        35        36     1
        36        37     1
        38        39     1
        39        40     1
        40        41     1
