; ITP file created by ByteFF-joint-25, 2026-03-15 01:35:06.298277

[ atomtypes ]
;name           bonded.type        at.num        mass        charge   ptype           sigma         epsilon
 o0bf                                   8      0.0000       0.00000       A     3.04768e-01     6.12506e-01    ;  uncertainty sigma = 0.000026, epsilon = 0.002291
 c1bf                                   6      0.0000       0.00000       A     3.31430e-01     4.12461e-01    ;  uncertainty sigma = 0.000089, epsilon = 0.001757
 n2bf                                   7      0.0000       0.00000       A     3.26911e-01     4.90562e-01    ;  uncertainty sigma = 0.000022, epsilon = 0.003078
 c3bf                                   6      0.0000       0.00000       A     3.31550e-01     4.12934e-01    ;  uncertainty sigma = 0.000036, epsilon = 0.001226
 c4bf                                   6      0.0000       0.00000       A     3.31574e-01     4.13378e-01    ;  uncertainty sigma = 0.000017, epsilon = 0.000574
 o5bf                                   8      0.0000       0.00000       A     3.15764e-01     3.04464e-01    ;  uncertainty sigma = 0.000026, epsilon = 0.003346
 c6bf                                   6      0.0000       0.00000       A     3.31533e-01     4.12587e-01    ;  uncertainty sigma = 0.000015, epsilon = 0.000889
 c7bf                                   6      0.0000       0.00000       A     3.31543e-01     4.13917e-01    ;  uncertainty sigma = 0.000018, epsilon = 0.001447
 c8bf                                   6      0.0000       0.00000       A     3.39800e-01     4.51450e-01    ;  uncertainty sigma = 0.000009, epsilon = 0.001229
 c9bf                                   6      0.0000       0.00000       A     3.39766e-01     4.50871e-01    ;  uncertainty sigma = 0.000004, epsilon = 0.000384
 c10bf                                  6      0.0000       0.00000       A     3.39766e-01     4.50871e-01    ;  uncertainty sigma = 0.000004, epsilon = 0.000384
 c11bf                                  6      0.0000       0.00000       A     3.39766e-01     4.50871e-01    ;  uncertainty sigma = 0.000004, epsilon = 0.000384
 c12bf                                  6      0.0000       0.00000       A     3.31539e-01     4.13149e-01    ;  uncertainty sigma = 0.000007, epsilon = 0.000841
 c13bf                                  6      0.0000       0.00000       A     3.31516e-01     4.13243e-01    ;  uncertainty sigma = 0.000002, epsilon = 0.000537
 c14bf                                  6      0.0000       0.00000       A     3.31522e-01     4.13430e-01    ;  uncertainty sigma = 0.000004, epsilon = 0.000523
 c15bf                                  6      0.0000       0.00000       A     3.31533e-01     4.13216e-01    ;  uncertainty sigma = 0.000013, epsilon = 0.000369
 n16bf                                  7      0.0000       0.00000       A     3.38387e-01     3.93418e-01    ;  uncertainty sigma = 0.000011, epsilon = 0.000773
 c17bf                                  6      0.0000       0.00000       A     3.31528e-01     4.13303e-01    ;  uncertainty sigma = 0.000012, epsilon = 0.000565
 c18bf                                  6      0.0000       0.00000       A     3.31519e-01     4.13136e-01    ;  uncertainty sigma = 0.000006, epsilon = 0.000735
 c19bf                                  6      0.0000       0.00000       A     3.31539e-01     4.13382e-01    ;  uncertainty sigma = 0.000004, epsilon = 0.001208
 n20bf                                  7      0.0000       0.00000       A     3.27001e-01     4.89717e-01    ;  uncertainty sigma = 0.000033, epsilon = 0.001946
 c21bf                                  6      0.0000       0.00000       A     3.31538e-01     4.13042e-01    ;  uncertainty sigma = 0.000019, epsilon = 0.000836
 c22bf                                  6      0.0000       0.00000       A     3.31527e-01     4.13329e-01    ;  uncertainty sigma = 0.000006, epsilon = 0.000573
 c23bf                                  6      0.0000       0.00000       A     3.31527e-01     4.13427e-01    ;  uncertainty sigma = 0.000004, epsilon = 0.000524
 c24bf                                  6      0.0000       0.00000       A     3.31519e-01     4.13223e-01    ;  uncertainty sigma = 0.000002, epsilon = 0.000761
 c25bf                                  6      0.0000       0.00000       A     3.39773e-01     4.50878e-01    ;  uncertainty sigma = 0.000005, epsilon = 0.000421
 c26bf                                  6      0.0000       0.00000       A     3.31527e-01     4.13427e-01    ;  uncertainty sigma = 0.000004, epsilon = 0.000524
 c27bf                                  6      0.0000       0.00000       A     3.31527e-01     4.13329e-01    ;  uncertainty sigma = 0.000006, epsilon = 0.000573
 h28bf                                  1      0.0000       0.00000       A     1.10682e-01     4.19025e-02    ;  uncertainty sigma = 0.000080, epsilon = 0.001074
 h29bf                                  1      0.0000       0.00000       A     2.60023e-01     8.66594e-02    ;  uncertainty sigma = 0.000006, epsilon = 0.000286
 h30bf                                  1      0.0000       0.00000       A     2.60023e-01     8.66594e-02    ;  uncertainty sigma = 0.000006, epsilon = 0.000286
 h31bf                                  1      0.0000       0.00000       A     2.60023e-01     8.66594e-02    ;  uncertainty sigma = 0.000006, epsilon = 0.000286
 h32bf                                  1      0.0000       0.00000       A     2.60023e-01     8.66594e-02    ;  uncertainty sigma = 0.000006, epsilon = 0.000286
 h33bf                                  1      0.0000       0.00000       A     2.60023e-01     8.66594e-02    ;  uncertainty sigma = 0.000006, epsilon = 0.000286
 h34bf                                  1      0.0000       0.00000       A     2.60023e-01     8.66594e-02    ;  uncertainty sigma = 0.000006, epsilon = 0.000286
 h35bf                                  1      0.0000       0.00000       A     2.60023e-01     8.66594e-02    ;  uncertainty sigma = 0.000006, epsilon = 0.000286
 h36bf                                  1      0.0000       0.00000       A     2.60023e-01     8.66594e-02    ;  uncertainty sigma = 0.000006, epsilon = 0.000286
 h37bf                                  1      0.0000       0.00000       A     2.60023e-01     8.66594e-02    ;  uncertainty sigma = 0.000006, epsilon = 0.000286
 h38bf                                  1      0.0000       0.00000       A     2.62550e-01     6.71729e-02    ;  uncertainty sigma = 0.000018, epsilon = 0.000412
 h39bf                                  1      0.0000       0.00000       A     2.62558e-01     6.70323e-02    ;  uncertainty sigma = 0.000010, epsilon = 0.000442
 h40bf                                  1      0.0000       0.00000       A     2.62562e-01     6.69705e-02    ;  uncertainty sigma = 0.000010, epsilon = 0.000501
 h41bf                                  1      0.0000       0.00000       A     2.62554e-01     6.70866e-02    ;  uncertainty sigma = 0.000005, epsilon = 0.000421
 h42bf                                  1      0.0000       0.00000       A     2.53636e-01     6.70245e-02    ;  uncertainty sigma = 0.000013, epsilon = 0.000470
 h43bf                                  1      0.0000       0.00000       A     2.62567e-01     6.71101e-02    ;  uncertainty sigma = 0.000011, epsilon = 0.000575
 h44bf                                  1      0.0000       0.00000       A     2.62550e-01     6.71051e-02    ;  uncertainty sigma = 0.000018, epsilon = 0.000451
 h45bf                                  1      0.0000       0.00000       A     1.10658e-01     4.17922e-02    ;  uncertainty sigma = 0.000100, epsilon = 0.000972
 h46bf                                  1      0.0000       0.00000       A     2.62561e-01     6.70939e-02    ;  uncertainty sigma = 0.000014, epsilon = 0.000476
 h47bf                                  1      0.0000       0.00000       A     2.62561e-01     6.70799e-02    ;  uncertainty sigma = 0.000009, epsilon = 0.000537
 h48bf                                  1      0.0000       0.00000       A     2.60034e-01     8.66893e-02    ;  uncertainty sigma = 0.000006, epsilon = 0.000488
 h49bf                                  1      0.0000       0.00000       A     2.60034e-01     8.66893e-02    ;  uncertainty sigma = 0.000006, epsilon = 0.000488
 h50bf                                  1      0.0000       0.00000       A     2.60034e-01     8.66893e-02    ;  uncertainty sigma = 0.000006, epsilon = 0.000488
 h51bf                                  1      0.0000       0.00000       A     2.62561e-01     6.70799e-02    ;  uncertainty sigma = 0.000009, epsilon = 0.000537
 h52bf                                  1      0.0000       0.00000       A     2.62561e-01     6.70939e-02    ;  uncertainty sigma = 0.000014, epsilon = 0.000476

[ moleculetype ]
;name             nrexcl
 MOL                   3

[ atoms ]
;       nr            type      resi   res      atom      cgnr      charge          mass ; qtot
         1            o0bf         1   UNL        o0         1    -0.59887       15.9990 ; qtot   -0.599
         2            c1bf         1   UNL        c1         2     0.79866       12.0110 ; qtot    0.200
         3            n2bf         1   UNL        n2         3    -0.47413       14.0070 ; qtot   -0.274
         4            c3bf         1   UNL        c3         4    -0.04623       12.0110 ; qtot   -0.321
         5            c4bf         1   UNL        c4         5     0.59867       12.0110 ; qtot    0.278
         6            o5bf         1   UNL        o5         6    -0.39242       15.9990 ; qtot   -0.114
         7            c6bf         1   UNL        c6         7     0.10284       12.0110 ; qtot   -0.011
         8            c7bf         1   UNL        c7         8    -0.05637       12.0110 ; qtot   -0.068
         9            c8bf         1   UNL        c8         9     0.00501       12.0110 ; qtot   -0.063
        10            c9bf         1   UNL        c9        10    -0.08679       12.0110 ; qtot   -0.150
        11           c10bf         1   UNL       c10        11    -0.08679       12.0110 ; qtot   -0.236
        12           c11bf         1   UNL       c11        12    -0.08679       12.0110 ; qtot   -0.323
        13           c12bf         1   UNL       c12        13    -0.11966       12.0110 ; qtot   -0.443
        14           c13bf         1   UNL       c13        14    -0.14369       12.0110 ; qtot   -0.587
        15           c14bf         1   UNL       c14        15    -0.11464       12.0110 ; qtot   -0.701
        16           c15bf         1   UNL       c15        16    -0.13200       12.0110 ; qtot   -0.833
        17           n16bf         1   UNL       n16        17    -0.69793       14.0070 ; qtot   -1.531
        18           c17bf         1   UNL       c17        18     0.39652       12.0110 ; qtot   -1.135
        19           c18bf         1   UNL       c18        19    -0.24092       12.0110 ; qtot   -1.376
        20           c19bf         1   UNL       c19        20    -0.10097       12.0110 ; qtot   -1.477
        21           n20bf         1   UNL       n20        21    -0.48860       14.0070 ; qtot   -1.965
        22           c21bf         1   UNL       c21        22     0.07301       12.0110 ; qtot   -1.892
        23           c22bf         1   UNL       c22        23    -0.16836       12.0110 ; qtot   -2.060
        24           c23bf         1   UNL       c23        24    -0.10278       12.0110 ; qtot   -2.163
        25           c24bf         1   UNL       c24        25    -0.10191       12.0110 ; qtot   -2.265
        26           c25bf         1   UNL       c25        26    -0.04598       12.0110 ; qtot   -2.311
        27           c26bf         1   UNL       c26        27    -0.10278       12.0110 ; qtot   -2.414
        28           c27bf         1   UNL       c27        28    -0.16836       12.0110 ; qtot   -2.582
        29           h28bf         1   UNL       h28        29     0.34303        1.0080 ; qtot   -2.239
        30           h29bf         1   UNL       h29        30     0.03697        1.0080 ; qtot   -2.202
        31           h30bf         1   UNL       h30        31     0.03697        1.0080 ; qtot   -2.165
        32           h31bf         1   UNL       h31        32     0.03697        1.0080 ; qtot   -2.128
        33           h32bf         1   UNL       h32        33     0.03697        1.0080 ; qtot   -2.091
        34           h33bf         1   UNL       h33        34     0.03697        1.0080 ; qtot   -2.054
        35           h34bf         1   UNL       h34        35     0.03697        1.0080 ; qtot   -2.017
        36           h35bf         1   UNL       h35        36     0.03697        1.0080 ; qtot   -1.980
        37           h36bf         1   UNL       h36        37     0.03697        1.0080 ; qtot   -1.943
        38           h37bf         1   UNL       h37        38     0.03697        1.0080 ; qtot   -1.906
        39           h38bf         1   UNL       h38        39     0.13450        1.0080 ; qtot   -1.772
        40           h39bf         1   UNL       h39        40     0.13417        1.0080 ; qtot   -1.638
        41           h40bf         1   UNL       h40        41     0.13677        1.0080 ; qtot   -1.501
        42           h41bf         1   UNL       h41        42     0.14870        1.0080 ; qtot   -1.352
        43           h42bf         1   UNL       h42        43     0.02625        1.0080 ; qtot   -1.326
        44           h43bf         1   UNL       h43        44     0.14569        1.0080 ; qtot   -1.180
        45           h44bf         1   UNL       h44        45     0.17117        1.0080 ; qtot   -1.009
        46           h45bf         1   UNL       h45        46     0.32276        1.0080 ; qtot   -0.686
        47           h46bf         1   UNL       h46        47     0.14821        1.0080 ; qtot   -0.538
        48           h47bf         1   UNL       h47        48     0.13010        1.0080 ; qtot   -0.408
        49           h48bf         1   UNL       h48        49     0.04329        1.0080 ; qtot   -0.365
        50           h49bf         1   UNL       h49        50     0.04329        1.0080 ; qtot   -0.322
        51           h50bf         1   UNL       h50        51     0.04329        1.0080 ; qtot   -0.278
        52           h51bf         1   UNL       h51        52     0.13010        1.0080 ; qtot   -0.148
        53           h52bf         1   UNL       h52        53     0.14821        1.0080 ; qtot    0.000

[ bonds ]
;       ai        aj funct               r               k
         1         2     1        0.124145   784756.086133    ;  uncertainty r = 0.000126, k = 12.841202
         2         3     1        0.139930   382450.338574    ;  uncertainty r = 0.000140, k = 14.422927
         2        21     1        0.139710   394377.266748    ;  uncertainty r = 0.000110, k = 16.822253
         3         4     1        0.140096   339046.190625    ;  uncertainty r = 0.000118, k = 8.055116
         3        29     1        0.101870   417728.195264    ;  uncertainty r = 0.000093, k = 3.473121
         4         5     1        0.140067   355915.545410    ;  uncertainty r = 0.000170, k = 17.835503
         4        20     1        0.139587   350172.658105    ;  uncertainty r = 0.000051, k = 12.669235
         5         6     1        0.137561   291879.047461    ;  uncertainty r = 0.000157, k = 8.416399
         5        17     1        0.131661   342629.813184    ;  uncertainty r = 0.000152, k = 21.976982
         6         7     1        0.139970   310102.481934    ;  uncertainty r = 0.000174, k = 12.353069
         7         8     1        0.139755   326948.189355    ;  uncertainty r = 0.000152, k = 6.718657
         7        16     1        0.139462   348332.147559    ;  uncertainty r = 0.000068, k = 6.494419
         8         9     1        0.152013   212155.256445    ;  uncertainty r = 0.000158, k = 5.218524
         8        13     1        0.140039   341105.503125    ;  uncertainty r = 0.000074, k = 5.411932
         9        10     1        0.153766   196771.152710    ;  uncertainty r = 0.000034, k = 4.467960
         9        11     1        0.153766   196771.152710    ;  uncertainty r = 0.000034, k = 4.467960
         9        12     1        0.153766   196771.152710    ;  uncertainty r = 0.000034, k = 4.467960
        10        30     1        0.109624   309135.034082    ;  uncertainty r = 0.000022, k = 1.451984
        10        31     1        0.109624   309135.034082    ;  uncertainty r = 0.000022, k = 1.451984
        10        32     1        0.109624   309135.034082    ;  uncertainty r = 0.000022, k = 1.451984
        11        33     1        0.109624   309135.034082    ;  uncertainty r = 0.000022, k = 1.451984
        11        34     1        0.109624   309135.034082    ;  uncertainty r = 0.000022, k = 1.451984
        11        35     1        0.109624   309135.034082    ;  uncertainty r = 0.000022, k = 1.451984
        12        36     1        0.109624   309135.034082    ;  uncertainty r = 0.000022, k = 1.451984
        12        37     1        0.109624   309135.034082    ;  uncertainty r = 0.000022, k = 1.451984
        12        38     1        0.109624   309135.034082    ;  uncertainty r = 0.000022, k = 1.451984
        13        14     1        0.139725   370071.582324    ;  uncertainty r = 0.000065, k = 4.429234
        13        39     1        0.108679   334355.636523    ;  uncertainty r = 0.000029, k = 1.644634
        14        15     1        0.139341   380593.841797    ;  uncertainty r = 0.000031, k = 2.283626
        14        40     1        0.108816   332973.006348    ;  uncertainty r = 0.000011, k = 1.868679
        15        16     1        0.139224   375940.852783    ;  uncertainty r = 0.000046, k = 1.528344
        15        41     1        0.108786   333319.595996    ;  uncertainty r = 0.000016, k = 1.090668
        16        42     1        0.108801   334217.353076    ;  uncertainty r = 0.000035, k = 1.936727
        17        18     1        0.134174   386160.574121    ;  uncertainty r = 0.000069, k = 8.080813
        18        19     1        0.139039   373281.367139    ;  uncertainty r = 0.000047, k = 3.782627
        18        43     1        0.108937   336014.246240    ;  uncertainty r = 0.000016, k = 1.810732
        19        20     1        0.139560   376722.160645    ;  uncertainty r = 0.000043, k = 3.130754
        19        44     1        0.108806   337266.688232    ;  uncertainty r = 0.000012, k = 1.595181
        20        45     1        0.108477   334523.772852    ;  uncertainty r = 0.000051, k = 3.409790
        21        22     1        0.141220   327424.967187    ;  uncertainty r = 0.000114, k = 3.976236
        21        46     1        0.101889   423258.869189    ;  uncertainty r = 0.000036, k = 1.970059
        22        23     1        0.140241   353989.153564    ;  uncertainty r = 0.000036, k = 3.787348
        22        28     1        0.140241   353989.153564    ;  uncertainty r = 0.000036, k = 3.787348
        23        24     1        0.139469   366385.658105    ;  uncertainty r = 0.000039, k = 1.749893
        23        47     1        0.108701   336211.009668    ;  uncertainty r = 0.000013, k = 2.548507
        24        25     1        0.140160   352301.737988    ;  uncertainty r = 0.000026, k = 1.454488
        24        48     1        0.108855   333941.016016    ;  uncertainty r = 0.000010, k = 0.838847
        25        26     1        0.151142   253576.498926    ;  uncertainty r = 0.000010, k = 5.370839
        25        27     1        0.140160   352301.737988    ;  uncertainty r = 0.000026, k = 1.454488
        26        49     1        0.109534   307894.977588    ;  uncertainty r = 0.000008, k = 1.140231
        26        50     1        0.109534   307894.977588    ;  uncertainty r = 0.000008, k = 1.140231
        26        51     1        0.109534   307894.977588    ;  uncertainty r = 0.000008, k = 1.140231
        27        28     1        0.139469   366385.658105    ;  uncertainty r = 0.000039, k = 1.749896
        27        52     1        0.108855   333941.016016    ;  uncertainty r = 0.000010, k = 0.838847
        28        53     1        0.108701   336211.009668    ;  uncertainty r = 0.000013, k = 2.548506

[ angles ]
;       ai        aj        ak funct           theta             cth
         1         2         3     1      125.188744      728.667516    ;  uncertainty theta = 0.005334, k = 0.101797
         1         2        21     1      125.128220      719.646532    ;  uncertainty theta = 0.005098, k = 0.058138
         2         3         4     1      118.191467      382.545068    ;  uncertainty theta = 0.006597, k = 0.353698
         2         3        29     1      118.027504      326.505350    ;  uncertainty theta = 0.007877, k = 0.178566
         2        21        22     1      118.741501      400.287646    ;  uncertainty theta = 0.008267, k = 0.100922
         2        21        46     1      116.812340      320.715641    ;  uncertainty theta = 0.007303, k = 0.165146
         3         2        21     1      111.600075      570.961692    ;  uncertainty theta = 0.006100, k = 0.244008
         3         4         5     1      117.143044      488.349782    ;  uncertainty theta = 0.006973, k = 0.210022
         3         4        20     1      122.491943      468.987641    ;  uncertainty theta = 0.005717, k = 0.226575
         4         3        29     1      114.704041      335.957720    ;  uncertainty theta = 0.005639, k = 0.195191
         4         5         6     1      116.665405      383.002183    ;  uncertainty theta = 0.010825, k = 0.414064
         4         5        17     1      125.636276      516.970369    ;  uncertainty theta = 0.002499, k = 0.151920
         4        20        19     1      118.664589      535.632378    ;  uncertainty theta = 0.002867, k = 0.172990
         4        20        45     1      117.850075      264.486868    ;  uncertainty theta = 0.003879, k = 0.116474
         5         4        20     1      117.553139      354.267923    ;  uncertainty theta = 0.008696, k = 0.140912
         5         6         7     1      113.934570      458.766094    ;  uncertainty theta = 0.006345, k = 0.242727
         5        17        18     1      118.887047      387.285011    ;  uncertainty theta = 0.003090, k = 0.177781
         6         5        17     1      116.872818      566.720617    ;  uncertainty theta = 0.005694, k = 0.116575
         6         7         8     1      115.704712      440.626542    ;  uncertainty theta = 0.009198, k = 0.210354
         6         7        16     1      119.159546      447.710473    ;  uncertainty theta = 0.002729, k = 0.169501
         7         8         9     1      118.737160      372.186451    ;  uncertainty theta = 0.003397, k = 0.213070
         7         8        13     1      120.132469      438.775357    ;  uncertainty theta = 0.007365, k = 0.148070
         7        16        15     1      119.480576      490.828541    ;  uncertainty theta = 0.002125, k = 0.081840
         7        16        42     1      119.573265      274.059565    ;  uncertainty theta = 0.001641, k = 0.136046
         8         7        16     1      125.177345      372.242792    ;  uncertainty theta = 0.005517, k = 0.226102
         8         9        10     1      107.456909      541.166461    ;  uncertainty theta = 0.003458, k = 0.119418
         8         9        11     1      107.456909      541.166461    ;  uncertainty theta = 0.003458, k = 0.119418
         8         9        12     1      107.456909      541.166461    ;  uncertainty theta = 0.003458, k = 0.119418
         8        13        14     1      123.242630      514.417807    ;  uncertainty theta = 0.003199, k = 0.098485
         8        13        39     1      116.080551      265.953417    ;  uncertainty theta = 0.003541, k = 0.034864
         9         8        13     1      119.965210      395.832537    ;  uncertainty theta = 0.007267, k = 0.110311
         9        10        30     1      107.500168      381.640672    ;  uncertainty theta = 0.001147, k = 0.021560
         9        10        31     1      107.500168      381.640672    ;  uncertainty theta = 0.001147, k = 0.021560
         9        10        32     1      107.500168      381.640672    ;  uncertainty theta = 0.001147, k = 0.021560
         9        11        33     1      107.500168      381.640672    ;  uncertainty theta = 0.001147, k = 0.021560
         9        11        34     1      107.500168      381.640672    ;  uncertainty theta = 0.001147, k = 0.021560
         9        11        35     1      107.500168      381.640672    ;  uncertainty theta = 0.001147, k = 0.021560
         9        12        36     1      107.500168      381.640672    ;  uncertainty theta = 0.001147, k = 0.021560
         9        12        37     1      107.500168      381.640672    ;  uncertainty theta = 0.001147, k = 0.021560
         9        12        38     1      107.500168      381.640672    ;  uncertainty theta = 0.001147, k = 0.021560
        10         9        11     1      108.493637      588.176577    ;  uncertainty theta = 0.003882, k = 0.042667
        10         9        12     1      108.493637      588.176577    ;  uncertainty theta = 0.003882, k = 0.042667
        11         9        12     1      108.493637      588.176577    ;  uncertainty theta = 0.003882, k = 0.042667
        13        14        15     1      118.796059      505.826102    ;  uncertainty theta = 0.001491, k = 0.032531
        13        14        40     1      120.467178      285.900038    ;  uncertainty theta = 0.000756, k = 0.041357
        14        13        39     1      119.427261      294.851273    ;  uncertainty theta = 0.002057, k = 0.072753
        14        15        16     1      117.188576      509.111994    ;  uncertainty theta = 0.001525, k = 0.077398
        14        15        41     1      120.940086      285.996313    ;  uncertainty theta = 0.001006, k = 0.032460
        15        14        40     1      120.888123      288.547821    ;  uncertainty theta = 0.001467, k = 0.029276
        15        16        42     1      121.582420      291.615370    ;  uncertainty theta = 0.001569, k = 0.034478
        16        15        41     1      120.197647      284.975945    ;  uncertainty theta = 0.000893, k = 0.020665
        17        18        19     1      122.018661      680.497696    ;  uncertainty theta = 0.002657, k = 0.057695
        17        18        43     1      116.528885      326.284582    ;  uncertainty theta = 0.003532, k = 0.089660
        18        19        20     1      116.662033      486.639402    ;  uncertainty theta = 0.002659, k = 0.164042
        18        19        44     1      121.531288      284.776501    ;  uncertainty theta = 0.000829, k = 0.071895
        19        18        43     1      121.479836      279.479402    ;  uncertainty theta = 0.001106, k = 0.075569
        19        20        45     1      121.491959      306.835200    ;  uncertainty theta = 0.004314, k = 0.137900
        20        19        44     1      121.692772      278.904306    ;  uncertainty theta = 0.003629, k = 0.116071
        21        22        23     1      120.275162      539.393100    ;  uncertainty theta = 0.003346, k = 0.120881
        21        22        28     1      120.275162      539.393100    ;  uncertainty theta = 0.003346, k = 0.120881
        22        21        46     1      114.543373      302.741282    ;  uncertainty theta = 0.006390, k = 0.291565
        22        23        24     1      119.653893      501.604180    ;  uncertainty theta = 0.001579, k = 0.059523
        22        23        47     1      118.871094      266.112672    ;  uncertainty theta = 0.000900, k = 0.035786
        22        28        27     1      119.653893      501.604180    ;  uncertainty theta = 0.001579, k = 0.059523
        22        28        53     1      118.871094      266.112640    ;  uncertainty theta = 0.000900, k = 0.035786
        23        22        28     1      119.316849      393.884120    ;  uncertainty theta = 0.006884, k = 0.168590
        23        24        25     1      121.913330      521.129598    ;  uncertainty theta = 0.001490, k = 0.040218
        23        24        48     1      119.279648      280.069149    ;  uncertainty theta = 0.001360, k = 0.057119
        24        23        47     1      120.810837      313.237417    ;  uncertainty theta = 0.001783, k = 0.070891
        24        25        26     1      120.933083      430.943732    ;  uncertainty theta = 0.001220, k = 0.030012
        24        25        27     1      117.982712      464.880093    ;  uncertainty theta = 0.002440, k = 0.056463
        25        24        48     1      119.355301      280.627263    ;  uncertainty theta = 0.000659, k = 0.034176
        25        26        49     1      110.024803      398.314808    ;  uncertainty theta = 0.001037, k = 0.032592
        25        26        50     1      110.024803      398.314808    ;  uncertainty theta = 0.001037, k = 0.032592
        25        26        51     1      110.024803      398.314808    ;  uncertainty theta = 0.001037, k = 0.032592
        25        27        28     1      121.913330      521.129598    ;  uncertainty theta = 0.001490, k = 0.040218
        25        27        52     1      119.355301      280.627263    ;  uncertainty theta = 0.000659, k = 0.034176
        26        25        27     1      120.933083      430.943732    ;  uncertainty theta = 0.001220, k = 0.030012
        27        28        53     1      120.810837      313.237417    ;  uncertainty theta = 0.001783, k = 0.070891
        28        27        52     1      119.279648      280.069149    ;  uncertainty theta = 0.001360, k = 0.057119
        30        10        31     1      105.383629      318.495891    ;  uncertainty theta = 0.000917, k = 0.009330
        30        10        32     1      105.383629      318.495891    ;  uncertainty theta = 0.000917, k = 0.009330
        31        10        32     1      105.383629      318.495891    ;  uncertainty theta = 0.000917, k = 0.009330
        33        11        34     1      105.383629      318.495891    ;  uncertainty theta = 0.000917, k = 0.009330
        33        11        35     1      105.383629      318.495891    ;  uncertainty theta = 0.000917, k = 0.009330
        34        11        35     1      105.383629      318.495891    ;  uncertainty theta = 0.000917, k = 0.009330
        36        12        37     1      105.383629      318.495891    ;  uncertainty theta = 0.000917, k = 0.009330
        36        12        38     1      105.383629      318.495891    ;  uncertainty theta = 0.000917, k = 0.009330
        37        12        38     1      105.383629      318.495891    ;  uncertainty theta = 0.000917, k = 0.009330
        49        26        50     1      106.736984      316.781394    ;  uncertainty theta = 0.000965, k = 0.019303
        49        26        51     1      106.736984      316.781394    ;  uncertainty theta = 0.000965, k = 0.019303
        50        26        51     1      106.736984      316.781394    ;  uncertainty theta = 0.000965, k = 0.019303

[ dihedrals ] ; propers for gromacs 4.5 or higher, use funct 9
;       ai        aj        ak        al funct           phase               k        pn
         1         2         3         4     9        0.000000        6.946391         1    ;  uncertainty k = 0.908900
         1         2         3         4     9      180.000000        9.319621         2    ;  uncertainty k = 0.343353
         1         2         3         4     9        0.000000        1.327878         3    ;  uncertainty k = 0.355434
         1         2         3         4     9      180.000000       -0.511187         4    ;  uncertainty k = 0.273826
         1         2         3        29     9        0.000000        0.648440         1    ;  uncertainty k = 0.303766
         1         2         3        29     9      180.000000        8.524097         2    ;  uncertainty k = 0.415172
         1         2         3        29     9        0.000000        1.856516         3    ;  uncertainty k = 0.251832
         1         2         3        29     9      180.000000       -0.422622         4    ;  uncertainty k = 0.241463
         1         2        21        22     9        0.000000        5.998684         1    ;  uncertainty k = 0.978328
         1         2        21        22     9      180.000000        9.807731         2    ;  uncertainty k = 0.358166
         1         2        21        22     9        0.000000        1.222113         3    ;  uncertainty k = 0.167867
         1         2        21        22     9      180.000000       -0.549179         4    ;  uncertainty k = 0.168102
         1         2        21        46     9        0.000000        0.944313         1    ;  uncertainty k = 0.481750
         1         2        21        46     9      180.000000        9.631718         2    ;  uncertainty k = 0.218445
         1         2        21        46     9        0.000000        2.134538         3    ;  uncertainty k = 0.211370
         1         2        21        46     9      180.000000       -0.270741         4    ;  uncertainty k = 0.205350
         2         3         4         5     9        0.000000        1.819734         1    ;  uncertainty k = 1.175759
         2         3         4         5     9      180.000000        3.891026         2    ;  uncertainty k = 0.508443
         2         3         4         5     9        0.000000        0.244164         3    ;  uncertainty k = 0.174200
         2         3         4         5     9      180.000000       -0.003039         4    ;  uncertainty k = 0.063222
         2         3         4        20     9        0.000000        1.590482         1    ;  uncertainty k = 1.223146
         2         3         4        20     9      180.000000        3.933823         2    ;  uncertainty k = 0.529572
         2         3         4        20     9        0.000000        0.641748         3    ;  uncertainty k = 0.289818
         2         3         4        20     9      180.000000        0.355266         4    ;  uncertainty k = 0.131763
         2        21        22        23     9        0.000000        1.261884         1    ;  uncertainty k = 0.519166
         2        21        22        23     9      180.000000        4.207438         2    ;  uncertainty k = 0.231546
         2        21        22        23     9        0.000000        0.961622         3    ;  uncertainty k = 0.218449
         2        21        22        23     9      180.000000        0.350917         4    ;  uncertainty k = 0.083511
         2        21        22        28     9        0.000000        1.261884         1    ;  uncertainty k = 0.519166
         2        21        22        28     9      180.000000        4.207438         2    ;  uncertainty k = 0.231546
         2        21        22        28     9        0.000000        0.961622         3    ;  uncertainty k = 0.218449
         2        21        22        28     9      180.000000        0.350917         4    ;  uncertainty k = 0.083511
         3         2        21        22     9        0.000000        6.768532         1    ;  uncertainty k = 0.793668
         3         2        21        22     9      180.000000        5.966923         2    ;  uncertainty k = 0.784880
         3         2        21        22     9        0.000000        0.544657         3    ;  uncertainty k = 0.315919
         3         2        21        22     9      180.000000       -0.113123         4    ;  uncertainty k = 0.250691
         3         2        21        46     9        0.000000        2.784091         1    ;  uncertainty k = 0.996550
         3         2        21        46     9      180.000000        4.681544         2    ;  uncertainty k = 1.140007
         3         2        21        46     9        0.000000        0.937857         3    ;  uncertainty k = 0.238446
         3         2        21        46     9      180.000000       -0.387398         4    ;  uncertainty k = 0.267785
         3         4         5         6     9        0.000000        0.284377         1    ;  uncertainty k = 0.661904
         3         4         5         6     9      180.000000        8.262305         2    ;  uncertainty k = 0.431304
         3         4         5         6     9        0.000000        0.747454         3    ;  uncertainty k = 0.255999
         3         4         5         6     9      180.000000        1.323897         4    ;  uncertainty k = 0.314136
         3         4         5        17     9        0.000000        0.354398         1    ;  uncertainty k = 0.466578
         3         4         5        17     9      180.000000        6.341080         2    ;  uncertainty k = 0.780089
         3         4         5        17     9        0.000000        0.768341         3    ;  uncertainty k = 0.321756
         3         4         5        17     9      180.000000        1.504548         4    ;  uncertainty k = 0.289127
         3         4        20        19     9        0.000000       -0.104132         1    ;  uncertainty k = 0.141361
         3         4        20        19     9      180.000000       11.628690         2    ;  uncertainty k = 0.794318
         3         4        20        19     9        0.000000        1.107583         3    ;  uncertainty k = 0.487861
         3         4        20        19     9      180.000000        1.611587         4    ;  uncertainty k = 0.361445
         3         4        20        45     9        0.000000       -0.339226         1    ;  uncertainty k = 0.473731
         3         4        20        45     9      180.000000        8.956187         2    ;  uncertainty k = 0.817387
         3         4        20        45     9        0.000000        0.715306         3    ;  uncertainty k = 0.150871
         3         4        20        45     9      180.000000        1.268140         4    ;  uncertainty k = 0.406222
         4         3         2        21     9        0.000000        8.097415         1    ;  uncertainty k = 0.965583
         4         3         2        21     9      180.000000        6.079945         2    ;  uncertainty k = 0.980607
         4         3         2        21     9        0.000000        0.638674         3    ;  uncertainty k = 0.171911
         4         3         2        21     9      180.000000       -0.161954         4    ;  uncertainty k = 0.445618
         4         5         6         7     9        0.000000        6.319504         1    ;  uncertainty k = 0.288881
         4         5         6         7     9      180.000000        3.783411         2    ;  uncertainty k = 0.446259
         4         5         6         7     9        0.000000        0.494205         3    ;  uncertainty k = 0.396184
         4         5         6         7     9      180.000000        0.042530         4    ;  uncertainty k = 0.132321
         4         5        17        18     9        0.000000        0.676172         1    ;  uncertainty k = 0.497916
         4         5        17        18     9      180.000000       12.399767         2    ;  uncertainty k = 0.361751
         4         5        17        18     9        0.000000        1.802644         3    ;  uncertainty k = 0.394747
         4         5        17        18     9      180.000000        1.364744         4    ;  uncertainty k = 0.214528
         4        20        19        18     9        0.000000       -0.219716         1    ;  uncertainty k = 0.258710
         4        20        19        18     9      180.000000       13.489343         2    ;  uncertainty k = 0.300398
         4        20        19        18     9        0.000000       -1.177535         3    ;  uncertainty k = 0.825068
         4        20        19        18     9      180.000000        0.747942         4    ;  uncertainty k = 0.391509
         4        20        19        44     9        0.000000        0.313278         1    ;  uncertainty k = 0.255484
         4        20        19        44     9      180.000000        7.639765         2    ;  uncertainty k = 0.597194
         4        20        19        44     9        0.000000        1.394865         3    ;  uncertainty k = 0.301688
         4        20        19        44     9      180.000000        1.632044         4    ;  uncertainty k = 0.213680
         5         4         3        29     9        0.000000        1.790871         1    ;  uncertainty k = 1.008652
         5         4         3        29     9      180.000000        2.157695         2    ;  uncertainty k = 0.861321
         5         4         3        29     9        0.000000       -0.062950         3    ;  uncertainty k = 0.367837
         5         4         3        29     9      180.000000       -0.089320         4    ;  uncertainty k = 0.133767
         5         4        20        19     9        0.000000       -0.030132         1    ;  uncertainty k = 0.350193
         5         4        20        19     9      180.000000        9.735746         2    ;  uncertainty k = 0.562603
         5         4        20        19     9        0.000000        0.093353         3    ;  uncertainty k = 0.450931
         5         4        20        19     9      180.000000        1.415785         4    ;  uncertainty k = 0.220677
         5         4        20        45     9        0.000000       -0.041478         1    ;  uncertainty k = 0.340993
         5         4        20        45     9      180.000000        7.165696         2    ;  uncertainty k = 0.370158
         5         4        20        45     9        0.000000        1.218945         3    ;  uncertainty k = 0.132784
         5         4        20        45     9      180.000000        1.470983         4    ;  uncertainty k = 0.083532
         5         6         7         8     9        0.000000        3.730429         1    ;  uncertainty k = 1.378013
         5         6         7         8     9      180.000000        4.333442         2    ;  uncertainty k = 0.552013
         5         6         7         8     9        0.000000        0.718711         3    ;  uncertainty k = 0.348202
         5         6         7         8     9      180.000000        0.143674         4    ;  uncertainty k = 0.148995
         5         6         7        16     9        0.000000        4.828384         1    ;  uncertainty k = 0.228401
         5         6         7        16     9      180.000000        5.455596         2    ;  uncertainty k = 0.415365
         5         6         7        16     9        0.000000       -0.018089         3    ;  uncertainty k = 0.211291
         5         6         7        16     9      180.000000        0.330158         4    ;  uncertainty k = 0.134735
         5        17        18        19     9        0.000000       -0.152779         1    ;  uncertainty k = 0.652820
         5        17        18        19     9      180.000000       15.169948         2    ;  uncertainty k = 0.219950
         5        17        18        19     9        0.000000        0.738976         3    ;  uncertainty k = 0.607844
         5        17        18        19     9      180.000000        1.309388         4    ;  uncertainty k = 0.318753
         5        17        18        43     9        0.000000        0.094454         1    ;  uncertainty k = 0.461568
         5        17        18        43     9      180.000000       15.212743         2    ;  uncertainty k = 0.638779
         5        17        18        43     9        0.000000        2.097180         3    ;  uncertainty k = 0.681642
         5        17        18        43     9      180.000000        1.294776         4    ;  uncertainty k = 0.576515
         6         5         4        20     9        0.000000        0.860567         1    ;  uncertainty k = 0.279878
         6         5         4        20     9      180.000000        5.860297         2    ;  uncertainty k = 0.477196
         6         5         4        20     9        0.000000        0.925541         3    ;  uncertainty k = 0.130265
         6         5         4        20     9      180.000000        1.461354         4    ;  uncertainty k = 0.520030
         6         5        17        18     9        0.000000        0.619901         1    ;  uncertainty k = 1.068275
         6         5        17        18     9      180.000000       16.868085         2    ;  uncertainty k = 0.330039
         6         5        17        18     9        0.000000        2.787028         3    ;  uncertainty k = 0.528095
         6         5        17        18     9      180.000000        1.961008         4    ;  uncertainty k = 0.174090
         6         7         8         9     9        0.000000        0.071295         1    ;  uncertainty k = 0.718375
         6         7         8         9     9      180.000000       10.741282         2    ;  uncertainty k = 0.337093
         6         7         8         9     9        0.000000        0.888843         3    ;  uncertainty k = 0.255369
         6         7         8         9     9      180.000000        1.287663         4    ;  uncertainty k = 0.239386
         6         7         8        13     9        0.000000        0.320263         1    ;  uncertainty k = 0.419950
         6         7         8        13     9      180.000000       10.472768         2    ;  uncertainty k = 0.337593
         6         7         8        13     9        0.000000        1.489016         3    ;  uncertainty k = 0.149649
         6         7         8        13     9      180.000000        1.584858         4    ;  uncertainty k = 0.104525
         6         7        16        15     9        0.000000       -0.152210         1    ;  uncertainty k = 0.328719
         6         7        16        15     9      180.000000       11.693228         2    ;  uncertainty k = 0.449003
         6         7        16        15     9        0.000000        1.385270         3    ;  uncertainty k = 0.330045
         6         7        16        15     9      180.000000        1.643559         4    ;  uncertainty k = 0.179015
         6         7        16        42     9        0.000000        0.040346         1    ;  uncertainty k = 0.229436
         6         7        16        42     9      180.000000        9.017925         2    ;  uncertainty k = 0.427767
         6         7        16        42     9        0.000000        0.908575         3    ;  uncertainty k = 0.205593
         6         7        16        42     9      180.000000        1.196649         4    ;  uncertainty k = 0.148818
         7         6         5        17     9        0.000000        1.236360         1    ;  uncertainty k = 0.784559
         7         6         5        17     9      180.000000        6.633409         2    ;  uncertainty k = 0.131050
         7         6         5        17     9        0.000000        0.346052         3    ;  uncertainty k = 0.468515
         7         6         5        17     9      180.000000        0.035651         4    ;  uncertainty k = 0.112089
         7         8         9        10     9        0.000000        0.692757         1    ;  uncertainty k = 0.625038
         7         8         9        10     9      180.000000        2.494036         2    ;  uncertainty k = 0.205161
         7         8         9        10     9        0.000000        0.692709         3    ;  uncertainty k = 0.170840
         7         8         9        10     9      180.000000        0.361032         4    ;  uncertainty k = 0.059208
         7         8         9        11     9        0.000000        0.692757         1    ;  uncertainty k = 0.625038
         7         8         9        11     9      180.000000        2.494036         2    ;  uncertainty k = 0.205161
         7         8         9        11     9        0.000000        0.692709         3    ;  uncertainty k = 0.170840
         7         8         9        11     9      180.000000        0.361032         4    ;  uncertainty k = 0.059208
         7         8         9        12     9        0.000000        0.692757         1    ;  uncertainty k = 0.625038
         7         8         9        12     9      180.000000        2.494036         2    ;  uncertainty k = 0.205161
         7         8         9        12     9        0.000000        0.692709         3    ;  uncertainty k = 0.170840
         7         8         9        12     9      180.000000        0.361032         4    ;  uncertainty k = 0.059208
         7         8        13        14     9        0.000000       -0.087990         1    ;  uncertainty k = 0.215347
         7         8        13        14     9      180.000000       11.417029         2    ;  uncertainty k = 0.445007
         7         8        13        14     9        0.000000        0.283233         3    ;  uncertainty k = 0.342146
         7         8        13        14     9      180.000000        1.093874         4    ;  uncertainty k = 0.359115
         7         8        13        39     9        0.000000        0.204171         1    ;  uncertainty k = 0.456467
         7         8        13        39     9      180.000000        8.527552         2    ;  uncertainty k = 0.711155
         7         8        13        39     9        0.000000        1.297625         3    ;  uncertainty k = 0.189137
         7         8        13        39     9      180.000000        1.553421         4    ;  uncertainty k = 0.302198
         7        16        15        14     9        0.000000       -0.154765         1    ;  uncertainty k = 0.223350
         7        16        15        14     9      180.000000       14.338534         2    ;  uncertainty k = 0.288581
         7        16        15        14     9        0.000000       -1.132698         3    ;  uncertainty k = 0.713240
         7        16        15        14     9      180.000000        0.707918         4    ;  uncertainty k = 0.306895
         7        16        15        41     9        0.000000        0.072811         1    ;  uncertainty k = 0.138823
         7        16        15        41     9      180.000000        7.800304         2    ;  uncertainty k = 0.378572
         7        16        15        41     9        0.000000        1.277510         3    ;  uncertainty k = 0.172534
         7        16        15        41     9      180.000000        1.721022         4    ;  uncertainty k = 0.153665
         8         7        16        15     9        0.000000       -0.092321         1    ;  uncertainty k = 0.296002
         8         7        16        15     9      180.000000        8.818596         2    ;  uncertainty k = 0.383492
         8         7        16        15     9        0.000000        0.177342         3    ;  uncertainty k = 0.550609
         8         7        16        15     9      180.000000        1.255625         4    ;  uncertainty k = 0.353641
         8         7        16        42     9        0.000000       -0.007025         1    ;  uncertainty k = 0.261528
         8         7        16        42     9      180.000000        6.316864         2    ;  uncertainty k = 0.706980
         8         7        16        42     9        0.000000        1.208484         3    ;  uncertainty k = 0.381412
         8         7        16        42     9      180.000000        1.573825         4    ;  uncertainty k = 0.136193
         8         9        10        30     9        0.000000        1.183863         1    ;  uncertainty k = 0.358830
         8         9        10        30     9      180.000000       -1.361095         2    ;  uncertainty k = 0.206012
         8         9        10        30     9        0.000000        0.666766         3    ;  uncertainty k = 0.110848
         8         9        10        30     9      180.000000        0.017306         4    ;  uncertainty k = 0.086274
         8         9        10        31     9        0.000000        1.183863         1    ;  uncertainty k = 0.358830
         8         9        10        31     9      180.000000       -1.361095         2    ;  uncertainty k = 0.206012
         8         9        10        31     9        0.000000        0.666766         3    ;  uncertainty k = 0.110848
         8         9        10        31     9      180.000000        0.017306         4    ;  uncertainty k = 0.086274
         8         9        10        32     9        0.000000        1.183863         1    ;  uncertainty k = 0.358830
         8         9        10        32     9      180.000000       -1.361095         2    ;  uncertainty k = 0.206012
         8         9        10        32     9        0.000000        0.666766         3    ;  uncertainty k = 0.110848
         8         9        10        32     9      180.000000        0.017306         4    ;  uncertainty k = 0.086274
         8         9        11        33     9        0.000000        1.183863         1    ;  uncertainty k = 0.358830
         8         9        11        33     9      180.000000       -1.361095         2    ;  uncertainty k = 0.206012
         8         9        11        33     9        0.000000        0.666766         3    ;  uncertainty k = 0.110848
         8         9        11        33     9      180.000000        0.017306         4    ;  uncertainty k = 0.086274
         8         9        11        34     9        0.000000        1.183863         1    ;  uncertainty k = 0.358830
         8         9        11        34     9      180.000000       -1.361095         2    ;  uncertainty k = 0.206012
         8         9        11        34     9        0.000000        0.666766         3    ;  uncertainty k = 0.110848
         8         9        11        34     9      180.000000        0.017306         4    ;  uncertainty k = 0.086274
         8         9        11        35     9        0.000000        1.183863         1    ;  uncertainty k = 0.358830
         8         9        11        35     9      180.000000       -1.361095         2    ;  uncertainty k = 0.206012
         8         9        11        35     9        0.000000        0.666766         3    ;  uncertainty k = 0.110848
         8         9        11        35     9      180.000000        0.017306         4    ;  uncertainty k = 0.086274
         8         9        12        36     9        0.000000        1.183863         1    ;  uncertainty k = 0.358830
         8         9        12        36     9      180.000000       -1.361095         2    ;  uncertainty k = 0.206012
         8         9        12        36     9        0.000000        0.666766         3    ;  uncertainty k = 0.110848
         8         9        12        36     9      180.000000        0.017306         4    ;  uncertainty k = 0.086274
         8         9        12        37     9        0.000000        1.183863         1    ;  uncertainty k = 0.358830
         8         9        12        37     9      180.000000       -1.361095         2    ;  uncertainty k = 0.206012
         8         9        12        37     9        0.000000        0.666766         3    ;  uncertainty k = 0.110848
         8         9        12        37     9      180.000000        0.017306         4    ;  uncertainty k = 0.086274
         8         9        12        38     9        0.000000        1.183863         1    ;  uncertainty k = 0.358830
         8         9        12        38     9      180.000000       -1.361095         2    ;  uncertainty k = 0.206012
         8         9        12        38     9        0.000000        0.666766         3    ;  uncertainty k = 0.110848
         8         9        12        38     9      180.000000        0.017306         4    ;  uncertainty k = 0.086274
         8        13        14        15     9        0.000000       -0.111191         1    ;  uncertainty k = 0.057807
         8        13        14        15     9      180.000000       12.582001         2    ;  uncertainty k = 0.145714
         8        13        14        15     9        0.000000       -0.876441         3    ;  uncertainty k = 0.567674
         8        13        14        15     9      180.000000        0.771695         4    ;  uncertainty k = 0.267770
         8        13        14        40     9        0.000000        0.094930         1    ;  uncertainty k = 0.423666
         8        13        14        40     9      180.000000        7.086738         2    ;  uncertainty k = 0.326226
         8        13        14        40     9        0.000000        1.351545         3    ;  uncertainty k = 0.142260
         8        13        14        40     9      180.000000        1.716092         4    ;  uncertainty k = 0.173771
         9         8         7        16     9        0.000000        0.237675         1    ;  uncertainty k = 0.432753
         9         8         7        16     9      180.000000        6.664017         2    ;  uncertainty k = 0.552301
         9         8         7        16     9        0.000000        1.253491         3    ;  uncertainty k = 0.250441
         9         8         7        16     9      180.000000        1.536451         4    ;  uncertainty k = 0.196953
         9         8        13        14     9        0.000000        0.094351         1    ;  uncertainty k = 0.377237
         9         8        13        14     9      180.000000        9.157917         2    ;  uncertainty k = 0.334207
         9         8        13        14     9        0.000000        1.485406         3    ;  uncertainty k = 0.284266
         9         8        13        14     9      180.000000        1.874048         4    ;  uncertainty k = 0.146638
         9         8        13        39     9        0.000000        0.039103         1    ;  uncertainty k = 0.081652
         9         8        13        39     9      180.000000        7.522433         2    ;  uncertainty k = 0.448358
         9         8        13        39     9        0.000000        0.766656         3    ;  uncertainty k = 0.198358
         9         8        13        39     9      180.000000        1.247515         4    ;  uncertainty k = 0.270572
        10         9         8        13     9        0.000000       -0.693212         1    ;  uncertainty k = 0.501680
        10         9         8        13     9      180.000000        2.787225         2    ;  uncertainty k = 0.278723
        10         9         8        13     9        0.000000       -0.069925         3    ;  uncertainty k = 0.111566
        10         9         8        13     9      180.000000        0.393022         4    ;  uncertainty k = 0.139142
        10         9        11        33     9        0.000000       -1.113239         1    ;  uncertainty k = 0.344859
        10         9        11        33     9      180.000000       -0.258828         2    ;  uncertainty k = 0.141356
        10         9        11        33     9        0.000000        0.787573         3    ;  uncertainty k = 0.076235
        10         9        11        33     9      180.000000       -0.054394         4    ;  uncertainty k = 0.041878
        10         9        11        34     9        0.000000       -1.113239         1    ;  uncertainty k = 0.344859
        10         9        11        34     9      180.000000       -0.258828         2    ;  uncertainty k = 0.141356
        10         9        11        34     9        0.000000        0.787573         3    ;  uncertainty k = 0.076235
        10         9        11        34     9      180.000000       -0.054394         4    ;  uncertainty k = 0.041878
        10         9        11        35     9        0.000000       -1.113239         1    ;  uncertainty k = 0.344859
        10         9        11        35     9      180.000000       -0.258828         2    ;  uncertainty k = 0.141356
        10         9        11        35     9        0.000000        0.787573         3    ;  uncertainty k = 0.076235
        10         9        11        35     9      180.000000       -0.054394         4    ;  uncertainty k = 0.041878
        10         9        12        36     9        0.000000       -1.113239         1    ;  uncertainty k = 0.344859
        10         9        12        36     9      180.000000       -0.258828         2    ;  uncertainty k = 0.141356
        10         9        12        36     9        0.000000        0.787573         3    ;  uncertainty k = 0.076235
        10         9        12        36     9      180.000000       -0.054394         4    ;  uncertainty k = 0.041878
        10         9        12        37     9        0.000000       -1.113239         1    ;  uncertainty k = 0.344859
        10         9        12        37     9      180.000000       -0.258828         2    ;  uncertainty k = 0.141356
        10         9        12        37     9        0.000000        0.787573         3    ;  uncertainty k = 0.076235
        10         9        12        37     9      180.000000       -0.054394         4    ;  uncertainty k = 0.041878
        10         9        12        38     9        0.000000       -1.113239         1    ;  uncertainty k = 0.344859
        10         9        12        38     9      180.000000       -0.258828         2    ;  uncertainty k = 0.141356
        10         9        12        38     9        0.000000        0.787573         3    ;  uncertainty k = 0.076235
        10         9        12        38     9      180.000000       -0.054394         4    ;  uncertainty k = 0.041878
        11         9         8        13     9        0.000000       -0.693212         1    ;  uncertainty k = 0.501680
        11         9         8        13     9      180.000000        2.787225         2    ;  uncertainty k = 0.278723
        11         9         8        13     9        0.000000       -0.069925         3    ;  uncertainty k = 0.111566
        11         9         8        13     9      180.000000        0.393022         4    ;  uncertainty k = 0.139142
        11         9        10        30     9        0.000000       -1.113239         1    ;  uncertainty k = 0.344859
        11         9        10        30     9      180.000000       -0.258828         2    ;  uncertainty k = 0.141356
        11         9        10        30     9        0.000000        0.787573         3    ;  uncertainty k = 0.076235
        11         9        10        30     9      180.000000       -0.054394         4    ;  uncertainty k = 0.041878
        11         9        10        31     9        0.000000       -1.113239         1    ;  uncertainty k = 0.344859
        11         9        10        31     9      180.000000       -0.258828         2    ;  uncertainty k = 0.141356
        11         9        10        31     9        0.000000        0.787573         3    ;  uncertainty k = 0.076235
        11         9        10        31     9      180.000000       -0.054394         4    ;  uncertainty k = 0.041878
        11         9        10        32     9        0.000000       -1.113239         1    ;  uncertainty k = 0.344859
        11         9        10        32     9      180.000000       -0.258828         2    ;  uncertainty k = 0.141356
        11         9        10        32     9        0.000000        0.787573         3    ;  uncertainty k = 0.076235
        11         9        10        32     9      180.000000       -0.054394         4    ;  uncertainty k = 0.041878
        11         9        12        36     9        0.000000       -1.113239         1    ;  uncertainty k = 0.344859
        11         9        12        36     9      180.000000       -0.258828         2    ;  uncertainty k = 0.141356
        11         9        12        36     9        0.000000        0.787573         3    ;  uncertainty k = 0.076235
        11         9        12        36     9      180.000000       -0.054394         4    ;  uncertainty k = 0.041878
        11         9        12        37     9        0.000000       -1.113239         1    ;  uncertainty k = 0.344859
        11         9        12        37     9      180.000000       -0.258828         2    ;  uncertainty k = 0.141356
        11         9        12        37     9        0.000000        0.787573         3    ;  uncertainty k = 0.076235
        11         9        12        37     9      180.000000       -0.054394         4    ;  uncertainty k = 0.041878
        11         9        12        38     9        0.000000       -1.113239         1    ;  uncertainty k = 0.344859
        11         9        12        38     9      180.000000       -0.258828         2    ;  uncertainty k = 0.141356
        11         9        12        38     9        0.000000        0.787573         3    ;  uncertainty k = 0.076235
        11         9        12        38     9      180.000000       -0.054394         4    ;  uncertainty k = 0.041878
        12         9         8        13     9        0.000000       -0.693212         1    ;  uncertainty k = 0.501680
        12         9         8        13     9      180.000000        2.787225         2    ;  uncertainty k = 0.278723
        12         9         8        13     9        0.000000       -0.069925         3    ;  uncertainty k = 0.111566
        12         9         8        13     9      180.000000        0.393022         4    ;  uncertainty k = 0.139142
        12         9        10        30     9        0.000000       -1.113239         1    ;  uncertainty k = 0.344859
        12         9        10        30     9      180.000000       -0.258828         2    ;  uncertainty k = 0.141356
        12         9        10        30     9        0.000000        0.787573         3    ;  uncertainty k = 0.076235
        12         9        10        30     9      180.000000       -0.054394         4    ;  uncertainty k = 0.041878
        12         9        10        31     9        0.000000       -1.113239         1    ;  uncertainty k = 0.344859
        12         9        10        31     9      180.000000       -0.258828         2    ;  uncertainty k = 0.141356
        12         9        10        31     9        0.000000        0.787573         3    ;  uncertainty k = 0.076235
        12         9        10        31     9      180.000000       -0.054394         4    ;  uncertainty k = 0.041878
        12         9        10        32     9        0.000000       -1.113239         1    ;  uncertainty k = 0.344859
        12         9        10        32     9      180.000000       -0.258828         2    ;  uncertainty k = 0.141356
        12         9        10        32     9        0.000000        0.787573         3    ;  uncertainty k = 0.076235
        12         9        10        32     9      180.000000       -0.054394         4    ;  uncertainty k = 0.041878
        12         9        11        33     9        0.000000       -1.113239         1    ;  uncertainty k = 0.344859
        12         9        11        33     9      180.000000       -0.258828         2    ;  uncertainty k = 0.141356
        12         9        11        33     9        0.000000        0.787573         3    ;  uncertainty k = 0.076235
        12         9        11        33     9      180.000000       -0.054394         4    ;  uncertainty k = 0.041878
        12         9        11        34     9        0.000000       -1.113239         1    ;  uncertainty k = 0.344859
        12         9        11        34     9      180.000000       -0.258828         2    ;  uncertainty k = 0.141356
        12         9        11        34     9        0.000000        0.787573         3    ;  uncertainty k = 0.076235
        12         9        11        34     9      180.000000       -0.054394         4    ;  uncertainty k = 0.041878
        12         9        11        35     9        0.000000       -1.113239         1    ;  uncertainty k = 0.344859
        12         9        11        35     9      180.000000       -0.258828         2    ;  uncertainty k = 0.141356
        12         9        11        35     9        0.000000        0.787573         3    ;  uncertainty k = 0.076235
        12         9        11        35     9      180.000000       -0.054394         4    ;  uncertainty k = 0.041878
        13         8         7        16     9        0.000000       -0.455221         1    ;  uncertainty k = 0.423301
        13         8         7        16     9      180.000000        6.899943         2    ;  uncertainty k = 0.664278
        13         8         7        16     9        0.000000        0.492862         3    ;  uncertainty k = 0.189412
        13         8         7        16     9      180.000000        1.158502         4    ;  uncertainty k = 0.353855
        13        14        15        16     9        0.000000        0.095864         1    ;  uncertainty k = 0.125003
        13        14        15        16     9      180.000000       15.472829         2    ;  uncertainty k = 0.369879
        13        14        15        16     9        0.000000       -1.428442         3    ;  uncertainty k = 0.466432
        13        14        15        16     9      180.000000        0.461505         4    ;  uncertainty k = 0.275701
        13        14        15        41     9        0.000000        0.196367         1    ;  uncertainty k = 0.225332
        13        14        15        41     9      180.000000        7.748136         2    ;  uncertainty k = 0.366773
        13        14        15        41     9        0.000000        1.431480         3    ;  uncertainty k = 0.276011
        13        14        15        41     9      180.000000        1.742439         4    ;  uncertainty k = 0.135728
        14        15        16        42     9        0.000000        0.044012         1    ;  uncertainty k = 0.104028
        14        15        16        42     9      180.000000        7.644419         2    ;  uncertainty k = 0.414807
        14        15        16        42     9        0.000000        1.332517         3    ;  uncertainty k = 0.344513
        14        15        16        42     9      180.000000        1.758476         4    ;  uncertainty k = 0.127012
        15        14        13        39     9        0.000000        0.098563         1    ;  uncertainty k = 0.132996
        15        14        13        39     9      180.000000        7.726820         2    ;  uncertainty k = 0.347678
        15        14        13        39     9        0.000000        1.334311         3    ;  uncertainty k = 0.252566
        15        14        13        39     9      180.000000        1.784032         4    ;  uncertainty k = 0.214443
        16        15        14        40     9        0.000000        0.029750         1    ;  uncertainty k = 0.172174
        16        15        14        40     9      180.000000        7.646668         2    ;  uncertainty k = 0.266100
        16        15        14        40     9        0.000000        1.436766         3    ;  uncertainty k = 0.295275
        16        15        14        40     9      180.000000        1.769690         4    ;  uncertainty k = 0.176664
        17         5         4        20     9        0.000000       -0.007483         1    ;  uncertainty k = 0.640546
        17         5         4        20     9      180.000000        5.383479         2    ;  uncertainty k = 1.412913
        17         5         4        20     9        0.000000       -0.125467         3    ;  uncertainty k = 0.198792
        17         5         4        20     9      180.000000        1.222453         4    ;  uncertainty k = 0.566062
        17        18        19        20     9        0.000000        0.122912         1    ;  uncertainty k = 0.377649
        17        18        19        20     9      180.000000       16.205385         2    ;  uncertainty k = 0.253451
        17        18        19        20     9        0.000000       -1.374142         3    ;  uncertainty k = 0.567402
        17        18        19        20     9      180.000000        0.764887         4    ;  uncertainty k = 0.233190
        17        18        19        44     9        0.000000        0.109573         1    ;  uncertainty k = 0.140060
        17        18        19        44     9      180.000000       10.004732         2    ;  uncertainty k = 0.564196
        17        18        19        44     9        0.000000        0.906339         3    ;  uncertainty k = 0.280019
        17        18        19        44     9      180.000000        1.603453         4    ;  uncertainty k = 0.128881
        18        19        20        45     9        0.000000       -0.096932         1    ;  uncertainty k = 0.224659
        18        19        20        45     9      180.000000        7.599749         2    ;  uncertainty k = 0.300024
        18        19        20        45     9        0.000000        1.345914         3    ;  uncertainty k = 0.259018
        18        19        20        45     9      180.000000        1.606126         4    ;  uncertainty k = 0.220858
        20         4         3        29     9        0.000000        0.848164         1    ;  uncertainty k = 0.508399
        20         4         3        29     9      180.000000        2.941026         2    ;  uncertainty k = 0.300123
        20         4         3        29     9        0.000000        0.417155         3    ;  uncertainty k = 0.206641
        20         4         3        29     9      180.000000        0.143213         4    ;  uncertainty k = 0.162479
        20        19        18        43     9        0.000000       -0.129492         1    ;  uncertainty k = 0.287892
        20        19        18        43     9      180.000000        6.663212         2    ;  uncertainty k = 0.558016
        20        19        18        43     9        0.000000        1.279159         3    ;  uncertainty k = 0.228439
        20        19        18        43     9      180.000000        1.542370         4    ;  uncertainty k = 0.207680
        21         2         3        29     9        0.000000        3.140674         1    ;  uncertainty k = 0.997162
        21         2         3        29     9      180.000000        4.606960         2    ;  uncertainty k = 1.129894
        21         2         3        29     9        0.000000        0.781755         3    ;  uncertainty k = 0.203639
        21         2         3        29     9      180.000000       -0.387105         4    ;  uncertainty k = 0.270301
        21        22        23        24     9        0.000000        0.017649         1    ;  uncertainty k = 0.292411
        21        22        23        24     9      180.000000       10.353585         2    ;  uncertainty k = 0.515323
        21        22        23        24     9        0.000000        1.172383         3    ;  uncertainty k = 0.433484
        21        22        23        24     9      180.000000        1.655259         4    ;  uncertainty k = 0.252038
        21        22        23        47     9        0.000000       -0.082625         1    ;  uncertainty k = 0.208758
        21        22        23        47     9      180.000000        8.142832         2    ;  uncertainty k = 0.464162
        21        22        23        47     9        0.000000        0.766707         3    ;  uncertainty k = 0.238709
        21        22        23        47     9      180.000000        1.174450         4    ;  uncertainty k = 0.189454
        21        22        28        27     9        0.000000        0.017649         1    ;  uncertainty k = 0.292411
        21        22        28        27     9      180.000000       10.353585         2    ;  uncertainty k = 0.515323
        21        22        28        27     9        0.000000        1.172383         3    ;  uncertainty k = 0.433484
        21        22        28        27     9      180.000000        1.655259         4    ;  uncertainty k = 0.252038
        21        22        28        53     9        0.000000       -0.082625         1    ;  uncertainty k = 0.208758
        21        22        28        53     9      180.000000        8.142832         2    ;  uncertainty k = 0.464162
        21        22        28        53     9        0.000000        0.766707         3    ;  uncertainty k = 0.238709
        21        22        28        53     9      180.000000        1.174450         4    ;  uncertainty k = 0.189454
        22        23        24        25     9        0.000000       -0.260608         1    ;  uncertainty k = 0.172114
        22        23        24        25     9      180.000000       13.904110         2    ;  uncertainty k = 0.306273
        22        23        24        25     9        0.000000       -0.839601         3    ;  uncertainty k = 0.394268
        22        23        24        25     9      180.000000        0.830309         4    ;  uncertainty k = 0.313710
        22        23        24        48     9        0.000000        0.026427         1    ;  uncertainty k = 0.236778
        22        23        24        48     9      180.000000        8.555097         2    ;  uncertainty k = 0.535713
        22        23        24        48     9        0.000000        1.305380         3    ;  uncertainty k = 0.327181
        22        23        24        48     9      180.000000        1.678395         4    ;  uncertainty k = 0.128002
        22        28        27        25     9        0.000000       -0.260608         1    ;  uncertainty k = 0.172114
        22        28        27        25     9      180.000000       13.904110         2    ;  uncertainty k = 0.306273
        22        28        27        25     9        0.000000       -0.839601         3    ;  uncertainty k = 0.394268
        22        28        27        25     9      180.000000        0.830309         4    ;  uncertainty k = 0.313710
        22        28        27        52     9        0.000000        0.026427         1    ;  uncertainty k = 0.236778
        22        28        27        52     9      180.000000        8.555097         2    ;  uncertainty k = 0.535713
        22        28        27        52     9        0.000000        1.305380         3    ;  uncertainty k = 0.327181
        22        28        27        52     9      180.000000        1.678395         4    ;  uncertainty k = 0.128002
        23        22        21        46     9        0.000000        0.759438         1    ;  uncertainty k = 0.750172
        23        22        21        46     9      180.000000        3.348035         2    ;  uncertainty k = 0.137288
        23        22        21        46     9        0.000000        0.666238         3    ;  uncertainty k = 0.089398
        23        22        21        46     9      180.000000        0.244591         4    ;  uncertainty k = 0.038346
        23        22        28        27     9        0.000000       -0.163997         1    ;  uncertainty k = 0.164753
        23        22        28        27     9      180.000000        9.808844         2    ;  uncertainty k = 0.316410
        23        22        28        27     9        0.000000       -0.118605         3    ;  uncertainty k = 0.088056
        23        22        28        27     9      180.000000        1.164230         4    ;  uncertainty k = 0.227167
        23        22        28        53     9        0.000000        0.135607         1    ;  uncertainty k = 0.362074
        23        22        28        53     9      180.000000        6.657389         2    ;  uncertainty k = 0.509201
        23        22        28        53     9        0.000000        1.294106         3    ;  uncertainty k = 0.322580
        23        22        28        53     9      180.000000        1.522452         4    ;  uncertainty k = 0.149136
        23        24        25        26     9        0.000000       -0.008046         1    ;  uncertainty k = 0.213643
        23        24        25        26     9      180.000000        9.046073         2    ;  uncertainty k = 0.184256
        23        24        25        26     9        0.000000        1.385716         3    ;  uncertainty k = 0.263795
        23        24        25        26     9      180.000000        1.852886         4    ;  uncertainty k = 0.177340
        23        24        25        27     9        0.000000       -0.193453         1    ;  uncertainty k = 0.131024
        23        24        25        27     9      180.000000       11.975772         2    ;  uncertainty k = 0.302472
        23        24        25        27     9        0.000000       -0.559050         3    ;  uncertainty k = 0.331148
        23        24        25        27     9      180.000000        0.839289         4    ;  uncertainty k = 0.320611
        24        23        22        28     9        0.000000       -0.163997         1    ;  uncertainty k = 0.164753
        24        23        22        28     9      180.000000        9.808844         2    ;  uncertainty k = 0.316410
        24        23        22        28     9        0.000000       -0.118605         3    ;  uncertainty k = 0.088056
        24        23        22        28     9      180.000000        1.164230         4    ;  uncertainty k = 0.227167
        24        25        26        49     9        0.000000       -0.059247         1    ;  uncertainty k = 0.032886
        24        25        26        49     9      180.000000        0.995495         2    ;  uncertainty k = 0.091475
        24        25        26        49     9        0.000000        0.368006         3    ;  uncertainty k = 0.038322
        24        25        26        49     9      180.000000        0.175549         4    ;  uncertainty k = 0.029881
        24        25        26        50     9        0.000000       -0.059247         1    ;  uncertainty k = 0.032886
        24        25        26        50     9      180.000000        0.995495         2    ;  uncertainty k = 0.091475
        24        25        26        50     9        0.000000        0.368006         3    ;  uncertainty k = 0.038322
        24        25        26        50     9      180.000000        0.175549         4    ;  uncertainty k = 0.029881
        24        25        26        51     9        0.000000       -0.059247         1    ;  uncertainty k = 0.032886
        24        25        26        51     9      180.000000        0.995495         2    ;  uncertainty k = 0.091475
        24        25        26        51     9        0.000000        0.368006         3    ;  uncertainty k = 0.038322
        24        25        26        51     9      180.000000        0.175549         4    ;  uncertainty k = 0.029881
        24        25        27        28     9        0.000000       -0.193453         1    ;  uncertainty k = 0.131024
        24        25        27        28     9      180.000000       11.975772         2    ;  uncertainty k = 0.302472
        24        25        27        28     9        0.000000       -0.559050         3    ;  uncertainty k = 0.331148
        24        25        27        28     9      180.000000        0.839289         4    ;  uncertainty k = 0.320611
        24        25        27        52     9        0.000000        0.038600         1    ;  uncertainty k = 0.196959
        24        25        27        52     9      180.000000        6.982064         2    ;  uncertainty k = 0.396809
        24        25        27        52     9        0.000000        1.475595         3    ;  uncertainty k = 0.397920
        24        25        27        52     9      180.000000        1.592902         4    ;  uncertainty k = 0.137962
        25        24        23        47     9        0.000000        0.037923         1    ;  uncertainty k = 0.161700
        25        24        23        47     9      180.000000        8.098277         2    ;  uncertainty k = 0.434905
        25        24        23        47     9        0.000000        1.441648         3    ;  uncertainty k = 0.253802
        25        24        23        47     9      180.000000        1.883769         4    ;  uncertainty k = 0.215567
        25        27        28        53     9        0.000000        0.037923         1    ;  uncertainty k = 0.161700
        25        27        28        53     9      180.000000        8.098277         2    ;  uncertainty k = 0.434905
        25        27        28        53     9        0.000000        1.441648         3    ;  uncertainty k = 0.253802
        25        27        28        53     9      180.000000        1.883769         4    ;  uncertainty k = 0.215567
        26        25        24        48     9        0.000000       -0.421823         1    ;  uncertainty k = 0.454558
        26        25        24        48     9      180.000000        8.243609         2    ;  uncertainty k = 0.145359
        26        25        24        48     9        0.000000        0.465995         3    ;  uncertainty k = 0.266375
        26        25        24        48     9      180.000000        0.847338         4    ;  uncertainty k = 0.211968
        26        25        27        28     9        0.000000       -0.008046         1    ;  uncertainty k = 0.213643
        26        25        27        28     9      180.000000        9.046073         2    ;  uncertainty k = 0.184256
        26        25        27        28     9        0.000000        1.385716         3    ;  uncertainty k = 0.263795
        26        25        27        28     9      180.000000        1.852886         4    ;  uncertainty k = 0.177340
        26        25        27        52     9        0.000000       -0.421823         1    ;  uncertainty k = 0.454558
        26        25        27        52     9      180.000000        8.243609         2    ;  uncertainty k = 0.145359
        26        25        27        52     9        0.000000        0.465995         3    ;  uncertainty k = 0.266375
        26        25        27        52     9      180.000000        0.847338         4    ;  uncertainty k = 0.211968
        27        25        24        48     9        0.000000        0.038600         1    ;  uncertainty k = 0.196959
        27        25        24        48     9      180.000000        6.982064         2    ;  uncertainty k = 0.396809
        27        25        24        48     9        0.000000        1.475595         3    ;  uncertainty k = 0.397920
        27        25        24        48     9      180.000000        1.592902         4    ;  uncertainty k = 0.137962
        27        25        26        49     9        0.000000       -0.059247         1    ;  uncertainty k = 0.032886
        27        25        26        49     9      180.000000        0.995495         2    ;  uncertainty k = 0.091475
        27        25        26        49     9        0.000000        0.368006         3    ;  uncertainty k = 0.038322
        27        25        26        49     9      180.000000        0.175549         4    ;  uncertainty k = 0.029881
        27        25        26        50     9        0.000000       -0.059247         1    ;  uncertainty k = 0.032886
        27        25        26        50     9      180.000000        0.995495         2    ;  uncertainty k = 0.091475
        27        25        26        50     9        0.000000        0.368006         3    ;  uncertainty k = 0.038322
        27        25        26        50     9      180.000000        0.175549         4    ;  uncertainty k = 0.029881
        27        25        26        51     9        0.000000       -0.059247         1    ;  uncertainty k = 0.032886
        27        25        26        51     9      180.000000        0.995495         2    ;  uncertainty k = 0.091475
        27        25        26        51     9        0.000000        0.368006         3    ;  uncertainty k = 0.038322
        27        25        26        51     9      180.000000        0.175549         4    ;  uncertainty k = 0.029881
        28        22        21        46     9        0.000000        0.759438         1    ;  uncertainty k = 0.750172
        28        22        21        46     9      180.000000        3.348035         2    ;  uncertainty k = 0.137288
        28        22        21        46     9        0.000000        0.666238         3    ;  uncertainty k = 0.089398
        28        22        21        46     9      180.000000        0.244591         4    ;  uncertainty k = 0.038346
        28        22        23        47     9        0.000000        0.135607         1    ;  uncertainty k = 0.362074
        28        22        23        47     9      180.000000        6.657389         2    ;  uncertainty k = 0.509201
        28        22        23        47     9        0.000000        1.294106         3    ;  uncertainty k = 0.322580
        28        22        23        47     9      180.000000        1.522452         4    ;  uncertainty k = 0.149136
        39        13        14        40     9        0.000000        0.031582         1    ;  uncertainty k = 0.187338
        39        13        14        40     9      180.000000        7.710167         2    ;  uncertainty k = 0.275220
        39        13        14        40     9        0.000000       -0.387163         3    ;  uncertainty k = 0.299535
        39        13        14        40     9      180.000000        0.170877         4    ;  uncertainty k = 0.131539
        40        14        15        41     9        0.000000       -0.000085         1    ;  uncertainty k = 0.148397
        40        14        15        41     9      180.000000        7.399573         2    ;  uncertainty k = 0.368163
        40        14        15        41     9        0.000000       -0.403325         3    ;  uncertainty k = 0.316858
        40        14        15        41     9      180.000000        0.039164         4    ;  uncertainty k = 0.177265
        41        15        16        42     9        0.000000       -0.031117         1    ;  uncertainty k = 0.171417
        41        15        16        42     9      180.000000        7.206183         2    ;  uncertainty k = 0.294542
        41        15        16        42     9        0.000000       -0.364827         3    ;  uncertainty k = 0.310616
        41        15        16        42     9      180.000000        0.157814         4    ;  uncertainty k = 0.104466
        43        18        19        44     9        0.000000       -0.176778         1    ;  uncertainty k = 0.222996
        43        18        19        44     9      180.000000        6.567607         2    ;  uncertainty k = 0.260169
        43        18        19        44     9        0.000000       -0.010460         3    ;  uncertainty k = 0.138988
        43        18        19        44     9      180.000000        0.217242         4    ;  uncertainty k = 0.090307
        44        19        20        45     9        0.000000        0.077279         1    ;  uncertainty k = 0.355604
        44        19        20        45     9      180.000000        7.819655         2    ;  uncertainty k = 0.531204
        44        19        20        45     9        0.000000       -0.430593         3    ;  uncertainty k = 0.317162
        44        19        20        45     9      180.000000        0.145196         4    ;  uncertainty k = 0.160605
        47        23        24        48     9        0.000000       -0.113483         1    ;  uncertainty k = 0.310054
        47        23        24        48     9      180.000000        8.057953         2    ;  uncertainty k = 0.335110
        47        23        24        48     9        0.000000       -0.446014         3    ;  uncertainty k = 0.269990
        47        23        24        48     9      180.000000        0.229102         4    ;  uncertainty k = 0.145597
        52        27        28        53     9        0.000000       -0.113483         1    ;  uncertainty k = 0.310054
        52        27        28        53     9      180.000000        8.057953         2    ;  uncertainty k = 0.335110
        52        27        28        53     9        0.000000       -0.446014         3    ;  uncertainty k = 0.269990
        52        27        28        53     9      180.000000        0.229102         4    ;  uncertainty k = 0.145597

[ dihedrals ] ; impropers
;       ai        aj        ak        al funct           phase               k        pn
         2         1         3        21     4      180.000000       63.229447         2    ;  uncertainty k = 0.059119
         2         3        21         1     4      180.000000       63.229447         2    ;  uncertainty k = 0.059119
         2        21         1         3     4      180.000000       63.229447         2    ;  uncertainty k = 0.059119
         3         2         4        29     4      180.000000        0.392750         2    ;  uncertainty k = 0.562771
         3         4        29         2     4      180.000000        0.392750         2    ;  uncertainty k = 0.562771
         3        29         2         4     4      180.000000        0.392750         2    ;  uncertainty k = 0.562771
         4         3         5        20     4      180.000000       12.947090         2    ;  uncertainty k = 0.234161
         4         5        20         3     4      180.000000       12.947090         2    ;  uncertainty k = 0.234161
         4        20         3         5     4      180.000000       12.947090         2    ;  uncertainty k = 0.234161
         5         4         6        17     4      180.000000       23.082544         2    ;  uncertainty k = 0.081809
         5         6        17         4     4      180.000000       23.082544         2    ;  uncertainty k = 0.081809
         5        17         4         6     4      180.000000       23.082544         2    ;  uncertainty k = 0.081809
         7         6         8        16     4      180.000000       15.545495         2    ;  uncertainty k = 0.149472
         7         8        16         6     4      180.000000       15.545495         2    ;  uncertainty k = 0.149472
         7        16         6         8     4      180.000000       15.545495         2    ;  uncertainty k = 0.149472
         8         7         9        13     4      180.000000       14.310281         2    ;  uncertainty k = 0.159675
         8         9        13         7     4      180.000000       14.310281         2    ;  uncertainty k = 0.159675
         8        13         7         9     4      180.000000       14.310281         2    ;  uncertainty k = 0.159675
        13         8        14        39     4      180.000000        4.242233         2    ;  uncertainty k = 0.258633
        13        14        39         8     4      180.000000        4.242233         2    ;  uncertainty k = 0.258633
        13        39         8        14     4      180.000000        4.242233         2    ;  uncertainty k = 0.258633
        14        13        15        40     4      180.000000        3.276195         2    ;  uncertainty k = 0.154517
        14        15        40        13     4      180.000000        3.276195         2    ;  uncertainty k = 0.154517
        14        40        13        15     4      180.000000        3.276195         2    ;  uncertainty k = 0.154517
        15        14        16        41     4      180.000000        3.602513         2    ;  uncertainty k = 0.202505
        15        16        41        14     4      180.000000        3.602513         2    ;  uncertainty k = 0.202505
        15        41        14        16     4      180.000000        3.602513         2    ;  uncertainty k = 0.202505
        16         7        15        42     4      180.000000        3.090459         2    ;  uncertainty k = 0.173593
        16        15        42         7     4      180.000000        3.090459         2    ;  uncertainty k = 0.173593
        16        42         7        15     4      180.000000        3.090459         2    ;  uncertainty k = 0.173593
        18        17        19        43     4      180.000000       11.532156         2    ;  uncertainty k = 0.089529
        18        19        43        17     4      180.000000       11.532156         2    ;  uncertainty k = 0.089529
        18        43        17        19     4      180.000000       11.532156         2    ;  uncertainty k = 0.089529
        19        18        20        44     4      180.000000        2.219267         2    ;  uncertainty k = 0.396247
        19        20        44        18     4      180.000000        2.219267         2    ;  uncertainty k = 0.396247
        19        44        18        20     4      180.000000        2.219267         2    ;  uncertainty k = 0.396247
        20         4        19        45     4      180.000000        4.523752         2    ;  uncertainty k = 0.211544
        20        19        45         4     4      180.000000        4.523752         2    ;  uncertainty k = 0.211544
        20        45         4        19     4      180.000000        4.523752         2    ;  uncertainty k = 0.211544
        21         2        22        46     4      180.000000        0.550284         2    ;  uncertainty k = 0.605192
        21        22        46         2     4      180.000000        0.550284         2    ;  uncertainty k = 0.605192
        21        46         2        22     4      180.000000        0.550284         2    ;  uncertainty k = 0.605192
        22        21        23        28     4      180.000000       17.539560         2    ;  uncertainty k = 0.093878
        22        23        28        21     4      180.000000       17.539560         2    ;  uncertainty k = 0.093878
        22        28        21        23     4      180.000000       17.539560         2    ;  uncertainty k = 0.093878
        23        22        24        47     4      180.000000        2.987740         2    ;  uncertainty k = 0.246193
        23        24        47        22     4      180.000000        2.987740         2    ;  uncertainty k = 0.246193
        23        47        22        24     4      180.000000        2.987740         2    ;  uncertainty k = 0.246193
        24        23        25        48     4      180.000000        3.739107         2    ;  uncertainty k = 0.147153
        24        25        48        23     4      180.000000        3.739107         2    ;  uncertainty k = 0.147153
        24        48        23        25     4      180.000000        3.739107         2    ;  uncertainty k = 0.147153
        25        24        26        27     4      180.000000       13.580355         2    ;  uncertainty k = 0.070424
        25        26        27        24     4      180.000000       13.580355         2    ;  uncertainty k = 0.070424
        25        27        24        26     4      180.000000       13.580355         2    ;  uncertainty k = 0.070424
        27        25        28        52     4      180.000000        3.739107         2    ;  uncertainty k = 0.147153
        27        28        52        25     4      180.000000        3.739107         2    ;  uncertainty k = 0.147153
        27        52        25        28     4      180.000000        3.739107         2    ;  uncertainty k = 0.147153
        28        22        27        53     4      180.000000        2.987740         2    ;  uncertainty k = 0.246193
        28        27        53        22     4      180.000000        2.987740         2    ;  uncertainty k = 0.246193
        28        53        22        27     4      180.000000        2.987740         2    ;  uncertainty k = 0.246193

[ pairs ]
;       ai        aj funct
         1         4     1
         1        22     1
         1        29     1
         1        46     1
         2         5     1
         2        20     1
         2        23     1
         2        28     1
         3         6     1
         3        17     1
         3        19     1
         3        22     1
         3        45     1
         3        46     1
         4         7     1
         4        18     1
         4        21     1
         4        44     1
         5         8     1
         5        16     1
         5        19     1
         5        29     1
         5        43     1
         5        45     1
         6         9     1
         6        13     1
         6        15     1
         6        18     1
         6        20     1
         6        42     1
         7        10     1
         7        11     1
         7        12     1
         7        14     1
         7        17     1
         7        39     1
         7        41     1
         8        15     1
         8        30     1
         8        31     1
         8        32     1
         8        33     1
         8        34     1
         8        35     1
         8        36     1
         8        37     1
         8        38     1
         8        40     1
         8        42     1
         9        14     1
         9        16     1
         9        39     1
        10        13     1
        10        33     1
        10        34     1
        10        35     1
        10        36     1
        10        37     1
        10        38     1
        11        13     1
        11        30     1
        11        31     1
        11        32     1
        11        36     1
        11        37     1
        11        38     1
        12        13     1
        12        30     1
        12        31     1
        12        32     1
        12        33     1
        12        34     1
        12        35     1
        13        16     1
        13        41     1
        14        42     1
        15        39     1
        16        40     1
        17        20     1
        17        44     1
        18        45     1
        20        29     1
        20        43     1
        21        24     1
        21        27     1
        21        29     1
        21        47     1
        21        53     1
        22        25     1
        22        48     1
        22        52     1
        23        26     1
        23        27     1
        23        46     1
        23        53     1
        24        28     1
        24        49     1
        24        50     1
        24        51     1
        24        52     1
        25        47     1
        25        53     1
        26        28     1
        26        48     1
        26        52     1
        27        48     1
        27        49     1
        27        50     1
        27        51     1
        28        46     1
        28        47     1
        39        40     1
        40        41     1
        41        42     1
        43        44     1
        44        45     1
        47        48     1
        52        53     1
