; ITP file created by ByteFF-joint-25, 2026-03-15 01:34:22.398570

[ atomtypes ]
;name           bonded.type        at.num        mass        charge   ptype           sigma         epsilon
 f0bf                                   9      0.0000       0.00000       A     3.03363e-01     3.48180e-01    ;  uncertainty sigma = 0.000019, epsilon = 0.001644
 c1bf                                   6      0.0000       0.00000       A     3.39778e-01     4.50411e-01    ;  uncertainty sigma = 0.000027, epsilon = 0.000825
 f2bf                                   9      0.0000       0.00000       A     3.03363e-01     3.48180e-01    ;  uncertainty sigma = 0.000019, epsilon = 0.001644
 f3bf                                   9      0.0000       0.00000       A     3.03363e-01     3.48180e-01    ;  uncertainty sigma = 0.000019, epsilon = 0.001644
 o4bf                                   8      0.0000       0.00000       A     3.15654e-01     3.04705e-01    ;  uncertainty sigma = 0.000025, epsilon = 0.002255
 c5bf                                   6      0.0000       0.00000       A     3.31525e-01     4.13708e-01    ;  uncertainty sigma = 0.000010, epsilon = 0.001214
 c6bf                                   6      0.0000       0.00000       A     3.31516e-01     4.13483e-01    ;  uncertainty sigma = 0.000007, epsilon = 0.000536
 c7bf                                   6      0.0000       0.00000       A     3.31528e-01     4.13409e-01    ;  uncertainty sigma = 0.000007, epsilon = 0.000530
 c8bf                                   6      0.0000       0.00000       A     3.31516e-01     4.13483e-01    ;  uncertainty sigma = 0.000007, epsilon = 0.000536
 c9bf                                   6      0.0000       0.00000       A     3.31528e-01     4.13409e-01    ;  uncertainty sigma = 0.000007, epsilon = 0.000530
 c10bf                                  6      0.0000       0.00000       A     3.31545e-01     4.13138e-01    ;  uncertainty sigma = 0.000020, epsilon = 0.001003
 n11bf                                  7      0.0000       0.00000       A     3.27001e-01     4.89717e-01    ;  uncertainty sigma = 0.000033, epsilon = 0.001945
 c12bf                                  6      0.0000       0.00000       A     3.31430e-01     4.12461e-01    ;  uncertainty sigma = 0.000089, epsilon = 0.001757
 o13bf                                  8      0.0000       0.00000       A     3.04768e-01     6.12507e-01    ;  uncertainty sigma = 0.000026, epsilon = 0.002291
 n14bf                                  7      0.0000       0.00000       A     3.26911e-01     4.90562e-01    ;  uncertainty sigma = 0.000022, epsilon = 0.003078
 c15bf                                  6      0.0000       0.00000       A     3.31550e-01     4.12934e-01    ;  uncertainty sigma = 0.000036, epsilon = 0.001226
 c16bf                                  6      0.0000       0.00000       A     3.31539e-01     4.13381e-01    ;  uncertainty sigma = 0.000004, epsilon = 0.001208
 c17bf                                  6      0.0000       0.00000       A     3.31519e-01     4.13136e-01    ;  uncertainty sigma = 0.000006, epsilon = 0.000735
 c18bf                                  6      0.0000       0.00000       A     3.31528e-01     4.13303e-01    ;  uncertainty sigma = 0.000012, epsilon = 0.000565
 n19bf                                  7      0.0000       0.00000       A     3.38387e-01     3.93418e-01    ;  uncertainty sigma = 0.000011, epsilon = 0.000773
 c20bf                                  6      0.0000       0.00000       A     3.31574e-01     4.13378e-01    ;  uncertainty sigma = 0.000017, epsilon = 0.000574
 o21bf                                  8      0.0000       0.00000       A     3.15764e-01     3.04464e-01    ;  uncertainty sigma = 0.000026, epsilon = 0.003346
 c22bf                                  6      0.0000       0.00000       A     3.31533e-01     4.12587e-01    ;  uncertainty sigma = 0.000015, epsilon = 0.000889
 c23bf                                  6      0.0000       0.00000       A     3.31533e-01     4.13216e-01    ;  uncertainty sigma = 0.000013, epsilon = 0.000369
 c24bf                                  6      0.0000       0.00000       A     3.31522e-01     4.13430e-01    ;  uncertainty sigma = 0.000004, epsilon = 0.000523
 c25bf                                  6      0.0000       0.00000       A     3.31516e-01     4.13243e-01    ;  uncertainty sigma = 0.000002, epsilon = 0.000537
 c26bf                                  6      0.0000       0.00000       A     3.31539e-01     4.13149e-01    ;  uncertainty sigma = 0.000007, epsilon = 0.000841
 c27bf                                  6      0.0000       0.00000       A     3.31543e-01     4.13917e-01    ;  uncertainty sigma = 0.000018, epsilon = 0.001447
 c28bf                                  6      0.0000       0.00000       A     3.39800e-01     4.51450e-01    ;  uncertainty sigma = 0.000009, epsilon = 0.001230
 c29bf                                  6      0.0000       0.00000       A     3.39766e-01     4.50871e-01    ;  uncertainty sigma = 0.000004, epsilon = 0.000384
 c30bf                                  6      0.0000       0.00000       A     3.39766e-01     4.50871e-01    ;  uncertainty sigma = 0.000004, epsilon = 0.000384
 c31bf                                  6      0.0000       0.00000       A     3.39766e-01     4.50871e-01    ;  uncertainty sigma = 0.000004, epsilon = 0.000384
 h32bf                                  1      0.0000       0.00000       A     2.62561e-01     6.71266e-02    ;  uncertainty sigma = 0.000010, epsilon = 0.000397
 h33bf                                  1      0.0000       0.00000       A     2.62566e-01     6.70271e-02    ;  uncertainty sigma = 0.000016, epsilon = 0.000422
 h34bf                                  1      0.0000       0.00000       A     2.62561e-01     6.71266e-02    ;  uncertainty sigma = 0.000010, epsilon = 0.000397
 h35bf                                  1      0.0000       0.00000       A     2.62566e-01     6.70271e-02    ;  uncertainty sigma = 0.000016, epsilon = 0.000422
 h36bf                                  1      0.0000       0.00000       A     1.10658e-01     4.17921e-02    ;  uncertainty sigma = 0.000100, epsilon = 0.000972
 h37bf                                  1      0.0000       0.00000       A     1.10682e-01     4.19027e-02    ;  uncertainty sigma = 0.000080, epsilon = 0.001074
 h38bf                                  1      0.0000       0.00000       A     2.62550e-01     6.71053e-02    ;  uncertainty sigma = 0.000018, epsilon = 0.000451
 h39bf                                  1      0.0000       0.00000       A     2.62567e-01     6.71101e-02    ;  uncertainty sigma = 0.000011, epsilon = 0.000575
 h40bf                                  1      0.0000       0.00000       A     2.53636e-01     6.70245e-02    ;  uncertainty sigma = 0.000013, epsilon = 0.000470
 h41bf                                  1      0.0000       0.00000       A     2.62554e-01     6.70867e-02    ;  uncertainty sigma = 0.000005, epsilon = 0.000421
 h42bf                                  1      0.0000       0.00000       A     2.62562e-01     6.69705e-02    ;  uncertainty sigma = 0.000010, epsilon = 0.000501
 h43bf                                  1      0.0000       0.00000       A     2.62558e-01     6.70323e-02    ;  uncertainty sigma = 0.000010, epsilon = 0.000442
 h44bf                                  1      0.0000       0.00000       A     2.62550e-01     6.71728e-02    ;  uncertainty sigma = 0.000018, epsilon = 0.000412
 h45bf                                  1      0.0000       0.00000       A     2.60023e-01     8.66594e-02    ;  uncertainty sigma = 0.000006, epsilon = 0.000286
 h46bf                                  1      0.0000       0.00000       A     2.60023e-01     8.66594e-02    ;  uncertainty sigma = 0.000006, epsilon = 0.000286
 h47bf                                  1      0.0000       0.00000       A     2.60023e-01     8.66594e-02    ;  uncertainty sigma = 0.000006, epsilon = 0.000286
 h48bf                                  1      0.0000       0.00000       A     2.60023e-01     8.66594e-02    ;  uncertainty sigma = 0.000006, epsilon = 0.000286
 h49bf                                  1      0.0000       0.00000       A     2.60023e-01     8.66594e-02    ;  uncertainty sigma = 0.000006, epsilon = 0.000286
 h50bf                                  1      0.0000       0.00000       A     2.60023e-01     8.66594e-02    ;  uncertainty sigma = 0.000006, epsilon = 0.000286
 h51bf                                  1      0.0000       0.00000       A     2.60023e-01     8.66594e-02    ;  uncertainty sigma = 0.000006, epsilon = 0.000286
 h52bf                                  1      0.0000       0.00000       A     2.60023e-01     8.66594e-02    ;  uncertainty sigma = 0.000006, epsilon = 0.000286
 h53bf                                  1      0.0000       0.00000       A     2.60023e-01     8.66592e-02    ;  uncertainty sigma = 0.000006, epsilon = 0.000286

[ moleculetype ]
;name             nrexcl
 MOL                   3

[ atoms ]
;       nr            type      resi   res      atom      cgnr      charge          mass ; qtot
         1            f0bf         1   UNL        f0         1    -0.21705       18.9980 ; qtot   -0.217
         2            c1bf         1   UNL        c1         2     0.84099       12.0110 ; qtot    0.624
         3            f2bf         1   UNL        f2         3    -0.21705       18.9980 ; qtot    0.407
         4            f3bf         1   UNL        f3         4    -0.21705       18.9980 ; qtot    0.190
         5            o4bf         1   UNL        o4         5    -0.36649       15.9990 ; qtot   -0.177
         6            c5bf         1   UNL        c5         6     0.05951       12.0110 ; qtot   -0.117
         7            c6bf         1   UNL        c6         7    -0.09074       12.0110 ; qtot   -0.208
         8            c7bf         1   UNL        c7         8    -0.15169       12.0110 ; qtot   -0.360
         9            c8bf         1   UNL        c8         9    -0.09074       12.0110 ; qtot   -0.450
        10            c9bf         1   UNL        c9        10    -0.15169       12.0110 ; qtot   -0.602
        11           c10bf         1   UNL       c10        11     0.05687       12.0110 ; qtot   -0.545
        12           n11bf         1   UNL       n11        12    -0.48702       14.0070 ; qtot   -1.032
        13           c12bf         1   UNL       c12        13     0.79866       12.0110 ; qtot   -0.233
        14           o13bf         1   UNL       o13        14    -0.59887       15.9990 ; qtot   -0.832
        15           n14bf         1   UNL       n14        15    -0.47413       14.0070 ; qtot   -1.306
        16           c15bf         1   UNL       c15        16    -0.04623       12.0110 ; qtot   -1.353
        17           c16bf         1   UNL       c16        17    -0.10097       12.0110 ; qtot   -1.454
        18           c17bf         1   UNL       c17        18    -0.24092       12.0110 ; qtot   -1.695
        19           c18bf         1   UNL       c18        19     0.39652       12.0110 ; qtot   -1.298
        20           n19bf         1   UNL       n19        20    -0.69793       14.0070 ; qtot   -1.996
        21           c20bf         1   UNL       c20        21     0.59867       12.0110 ; qtot   -1.397
        22           o21bf         1   UNL       o21        22    -0.39242       15.9990 ; qtot   -1.790
        23           c22bf         1   UNL       c22        23     0.10284       12.0110 ; qtot   -1.687
        24           c23bf         1   UNL       c23        24    -0.13200       12.0110 ; qtot   -1.819
        25           c24bf         1   UNL       c24        25    -0.11464       12.0110 ; qtot   -1.934
        26           c25bf         1   UNL       c25        26    -0.14369       12.0110 ; qtot   -2.077
        27           c26bf         1   UNL       c26        27    -0.11966       12.0110 ; qtot   -2.197
        28           c27bf         1   UNL       c27        28    -0.05637       12.0110 ; qtot   -2.253
        29           c28bf         1   UNL       c28        29     0.00501       12.0110 ; qtot   -2.248
        30           c29bf         1   UNL       c29        30    -0.08679       12.0110 ; qtot   -2.335
        31           c30bf         1   UNL       c30        31    -0.08679       12.0110 ; qtot   -2.422
        32           c31bf         1   UNL       c31        32    -0.08679       12.0110 ; qtot   -2.509
        33           h32bf         1   UNL       h32        33     0.15345        1.0080 ; qtot   -2.355
        34           h33bf         1   UNL       h33        34     0.15297        1.0080 ; qtot   -2.202
        35           h34bf         1   UNL       h34        35     0.15345        1.0080 ; qtot   -2.049
        36           h35bf         1   UNL       h35        36     0.15297        1.0080 ; qtot   -1.896
        37           h36bf         1   UNL       h36        37     0.32276        1.0080 ; qtot   -1.573
        38           h37bf         1   UNL       h37        38     0.34303        1.0080 ; qtot   -1.230
        39           h38bf         1   UNL       h38        39     0.17117        1.0080 ; qtot   -1.059
        40           h39bf         1   UNL       h39        40     0.14569        1.0080 ; qtot   -0.913
        41           h40bf         1   UNL       h40        41     0.02625        1.0080 ; qtot   -0.887
        42           h41bf         1   UNL       h41        42     0.14870        1.0080 ; qtot   -0.738
        43           h42bf         1   UNL       h42        43     0.13677        1.0080 ; qtot   -0.601
        44           h43bf         1   UNL       h43        44     0.13417        1.0080 ; qtot   -0.467
        45           h44bf         1   UNL       h44        45     0.13450        1.0080 ; qtot   -0.333
        46           h45bf         1   UNL       h45        46     0.03697        1.0080 ; qtot   -0.296
        47           h46bf         1   UNL       h46        47     0.03697        1.0080 ; qtot   -0.259
        48           h47bf         1   UNL       h47        48     0.03697        1.0080 ; qtot   -0.222
        49           h48bf         1   UNL       h48        49     0.03697        1.0080 ; qtot   -0.185
        50           h49bf         1   UNL       h49        50     0.03697        1.0080 ; qtot   -0.148
        51           h50bf         1   UNL       h50        51     0.03697        1.0080 ; qtot   -0.111
        52           h51bf         1   UNL       h51        52     0.03697        1.0080 ; qtot   -0.074
        53           h52bf         1   UNL       h52        53     0.03697        1.0080 ; qtot   -0.037
        54           h53bf         1   UNL       h53        54     0.03701        1.0080 ; qtot   -0.000

[ bonds ]
;       ai        aj funct               r               k
         1         2     1        0.133539   307871.508984    ;  uncertainty r = 0.000080, k = 1.653889
         2         3     1        0.133539   307871.508984    ;  uncertainty r = 0.000080, k = 1.653889
         2         4     1        0.133539   307871.508984    ;  uncertainty r = 0.000080, k = 1.653889
         2         5     1        0.133871   237299.758301    ;  uncertainty r = 0.000158, k = 9.138876
         5         6     1        0.139692   320166.963184    ;  uncertainty r = 0.000034, k = 8.591846
         6         7     1        0.139176   356724.075830    ;  uncertainty r = 0.000042, k = 3.600771
         6         9     1        0.139176   356724.075830    ;  uncertainty r = 0.000042, k = 3.600771
         7         8     1        0.138974   363764.197217    ;  uncertainty r = 0.000061, k = 3.693285
         7        33     1        0.108742   335621.204590    ;  uncertainty r = 0.000038, k = 1.020990
         8        11     1        0.140147   352337.821924    ;  uncertainty r = 0.000067, k = 1.394020
         8        34     1        0.108678   335906.351953    ;  uncertainty r = 0.000034, k = 1.744867
         9        10     1        0.138974   363764.197217    ;  uncertainty r = 0.000061, k = 3.693285
         9        35     1        0.108742   335621.204590    ;  uncertainty r = 0.000038, k = 1.020990
        10        11     1        0.140147   352337.821924    ;  uncertainty r = 0.000067, k = 1.394020
        10        36     1        0.108678   335906.351953    ;  uncertainty r = 0.000034, k = 1.744867
        11        12     1        0.141380   325711.886816    ;  uncertainty r = 0.000134, k = 3.858550
        12        13     1        0.139710   394377.215674    ;  uncertainty r = 0.000110, k = 16.822264
        12        37     1        0.101889   423258.920264    ;  uncertainty r = 0.000036, k = 1.970098
        13        14     1        0.124145   784756.188281    ;  uncertainty r = 0.000126, k = 12.841189
        13        15     1        0.139930   382450.287500    ;  uncertainty r = 0.000140, k = 14.422890
        15        16     1        0.140096   339046.190625    ;  uncertainty r = 0.000118, k = 8.055101
        15        38     1        0.101870   417728.195264    ;  uncertainty r = 0.000093, k = 3.473138
        16        17     1        0.139587   350172.607031    ;  uncertainty r = 0.000051, k = 12.669271
        16        21     1        0.140067   355915.519873    ;  uncertainty r = 0.000170, k = 17.835495
        17        18     1        0.139560   376722.160645    ;  uncertainty r = 0.000043, k = 3.130754
        17        39     1        0.108477   334523.772852    ;  uncertainty r = 0.000051, k = 3.409792
        18        19     1        0.139039   373281.367139    ;  uncertainty r = 0.000047, k = 3.782607
        18        40     1        0.108806   337266.662695    ;  uncertainty r = 0.000012, k = 1.595180
        19        20     1        0.134174   386160.599658    ;  uncertainty r = 0.000069, k = 8.080827
        19        41     1        0.108937   336014.246240    ;  uncertainty r = 0.000016, k = 1.810732
        20        21     1        0.131661   342629.813184    ;  uncertainty r = 0.000152, k = 21.976983
        21        22     1        0.137561   291879.047461    ;  uncertainty r = 0.000157, k = 8.416397
        22        23     1        0.139970   310102.481934    ;  uncertainty r = 0.000174, k = 12.353102
        23        24     1        0.139462   348332.147559    ;  uncertainty r = 0.000068, k = 6.494424
        23        28     1        0.139755   326948.163818    ;  uncertainty r = 0.000152, k = 6.718659
        24        25     1        0.139224   375940.852783    ;  uncertainty r = 0.000046, k = 1.528345
        24        42     1        0.108801   334217.353076    ;  uncertainty r = 0.000035, k = 1.936704
        25        26     1        0.139341   380593.892871    ;  uncertainty r = 0.000031, k = 2.283616
        25        43     1        0.108786   333319.570459    ;  uncertainty r = 0.000016, k = 1.090673
        26        27     1        0.139725   370071.582324    ;  uncertainty r = 0.000065, k = 4.429234
        26        44     1        0.108816   332973.006348    ;  uncertainty r = 0.000011, k = 1.868679
        27        28     1        0.140039   341105.503125    ;  uncertainty r = 0.000074, k = 5.411936
        27        45     1        0.108679   334355.636523    ;  uncertainty r = 0.000029, k = 1.644621
        28        29     1        0.152013   212155.281982    ;  uncertainty r = 0.000158, k = 5.218512
        29        30     1        0.153766   196771.165479    ;  uncertainty r = 0.000034, k = 4.467969
        29        31     1        0.153766   196771.165479    ;  uncertainty r = 0.000034, k = 4.467969
        29        32     1        0.153766   196771.165479    ;  uncertainty r = 0.000034, k = 4.467969
        30        46     1        0.109624   309135.034082    ;  uncertainty r = 0.000022, k = 1.452001
        30        47     1        0.109624   309135.034082    ;  uncertainty r = 0.000022, k = 1.452001
        30        48     1        0.109624   309135.034082    ;  uncertainty r = 0.000022, k = 1.452001
        31        49     1        0.109624   309135.034082    ;  uncertainty r = 0.000022, k = 1.452001
        31        50     1        0.109624   309135.034082    ;  uncertainty r = 0.000022, k = 1.452001
        31        51     1        0.109624   309135.034082    ;  uncertainty r = 0.000022, k = 1.452001
        32        52     1        0.109624   309135.034082    ;  uncertainty r = 0.000022, k = 1.452001
        32        53     1        0.109624   309135.034082    ;  uncertainty r = 0.000022, k = 1.452001
        32        54     1        0.109624   309135.034082    ;  uncertainty r = 0.000022, k = 1.452001

[ angles ]
;       ai        aj        ak funct           theta             cth
         1         2         3     1      111.201614      794.201037    ;  uncertainty theta = 0.002540, k = 0.021607
         1         2         4     1      111.201614      794.201037    ;  uncertainty theta = 0.002540, k = 0.021607
         1         2         5     1      112.999489      620.113349    ;  uncertainty theta = 0.003463, k = 0.051316
         2         5         6     1      109.686722      489.488832    ;  uncertainty theta = 0.003230, k = 0.177264
         3         2         4     1      111.201614      794.201037    ;  uncertainty theta = 0.002540, k = 0.021607
         3         2         5     1      112.999489      620.113349    ;  uncertainty theta = 0.003463, k = 0.051316
         4         2         5     1      112.999489      620.113349    ;  uncertainty theta = 0.003463, k = 0.051316
         5         6         7     1      119.768417      398.217288    ;  uncertainty theta = 0.003247, k = 0.076264
         5         6         9     1      119.768417      398.217288    ;  uncertainty theta = 0.003247, k = 0.076264
         6         7         8     1      119.090454      493.062400    ;  uncertainty theta = 0.001424, k = 0.135301
         6         7        33     1      119.886696      277.859360    ;  uncertainty theta = 0.001821, k = 0.060074
         6         9        10     1      119.090454      493.062400    ;  uncertainty theta = 0.001424, k = 0.135301
         6         9        35     1      119.886696      277.859360    ;  uncertainty theta = 0.001821, k = 0.060074
         7         6         9     1      121.235474      377.040257    ;  uncertainty theta = 0.003492, k = 0.046826
         7         8        11     1      120.027649      494.325816    ;  uncertainty theta = 0.001825, k = 0.050529
         7         8        34     1      120.100098      306.417317    ;  uncertainty theta = 0.001795, k = 0.128256
         8         7        33     1      120.515823      280.477073    ;  uncertainty theta = 0.001593, k = 0.031481
         8        11        10     1      119.161659      391.352243    ;  uncertainty theta = 0.005469, k = 0.087499
         8        11        12     1      120.134926      531.646610    ;  uncertainty theta = 0.003116, k = 0.095782
         9        10        11     1      120.027649      494.325816    ;  uncertainty theta = 0.001825, k = 0.050529
         9        10        36     1      120.100098      306.417317    ;  uncertainty theta = 0.001795, k = 0.128256
        10         9        35     1      120.515823      280.477073    ;  uncertainty theta = 0.001593, k = 0.031481
        10        11        12     1      120.134926      531.646610    ;  uncertainty theta = 0.003116, k = 0.095782
        11         8        34     1      118.959000      263.509515    ;  uncertainty theta = 0.001160, k = 0.036013
        11        10        36     1      118.959000      263.509515    ;  uncertainty theta = 0.001160, k = 0.036013
        11        12        13     1      118.672729      398.749194    ;  uncertainty theta = 0.008564, k = 0.146170
        11        12        37     1      114.575943      302.679259    ;  uncertainty theta = 0.006190, k = 0.236622
        12        13        14     1      125.128220      719.646532    ;  uncertainty theta = 0.005098, k = 0.058138
        12        13        15     1      111.600075      570.961692    ;  uncertainty theta = 0.006100, k = 0.244008
        13        12        37     1      116.812332      320.715641    ;  uncertainty theta = 0.007303, k = 0.165146
        13        15        16     1      118.191467      382.545068    ;  uncertainty theta = 0.006597, k = 0.353698
        13        15        38     1      118.027489      326.505414    ;  uncertainty theta = 0.007877, k = 0.178565
        14        13        15     1      125.188744      728.667516    ;  uncertainty theta = 0.005334, k = 0.101797
        15        16        17     1      122.491943      468.987577    ;  uncertainty theta = 0.005717, k = 0.226575
        15        16        21     1      117.143044      488.349782    ;  uncertainty theta = 0.006973, k = 0.210022
        16        15        38     1      114.704041      335.957720    ;  uncertainty theta = 0.005639, k = 0.195190
        16        17        18     1      118.664589      535.632378    ;  uncertainty theta = 0.002867, k = 0.172991
        16        17        39     1      117.850075      264.486868    ;  uncertainty theta = 0.003879, k = 0.116474
        16        21        20     1      125.636276      516.970337    ;  uncertainty theta = 0.002499, k = 0.151920
        16        21        22     1      116.665405      383.002119    ;  uncertainty theta = 0.010825, k = 0.414064
        17        16        21     1      117.553146      354.267923    ;  uncertainty theta = 0.008696, k = 0.140912
        17        18        19     1      116.662033      486.639402    ;  uncertainty theta = 0.002659, k = 0.164042
        17        18        40     1      121.692772      278.904306    ;  uncertainty theta = 0.003629, k = 0.116071
        18        17        39     1      121.491959      306.835200    ;  uncertainty theta = 0.004314, k = 0.137900
        18        19        20     1      122.018661      680.497760    ;  uncertainty theta = 0.002657, k = 0.057695
        18        19        41     1      121.479836      279.479402    ;  uncertainty theta = 0.001106, k = 0.075569
        19        18        40     1      121.531288      284.776469    ;  uncertainty theta = 0.000829, k = 0.071895
        19        20        21     1      118.887062      387.284979    ;  uncertainty theta = 0.003090, k = 0.177781
        20        19        41     1      116.528885      326.284582    ;  uncertainty theta = 0.003532, k = 0.089660
        20        21        22     1      116.872818      566.720680    ;  uncertainty theta = 0.005694, k = 0.116575
        21        22        23     1      113.934570      458.766094    ;  uncertainty theta = 0.006345, k = 0.242728
        22        23        24     1      119.159546      447.710473    ;  uncertainty theta = 0.002729, k = 0.169501
        22        23        28     1      115.704712      440.626574    ;  uncertainty theta = 0.009198, k = 0.210355
        23        24        25     1      119.480576      490.828541    ;  uncertainty theta = 0.002125, k = 0.081840
        23        24        42     1      119.573265      274.059597    ;  uncertainty theta = 0.001641, k = 0.136046
        23        28        27     1      120.132469      438.775293    ;  uncertainty theta = 0.007365, k = 0.148070
        23        28        29     1      118.737160      372.186451    ;  uncertainty theta = 0.003397, k = 0.213071
        24        23        28     1      125.177345      372.242792    ;  uncertainty theta = 0.005517, k = 0.226102
        24        25        26     1      117.188576      509.111962    ;  uncertainty theta = 0.001525, k = 0.077398
        24        25        43     1      120.197647      284.975945    ;  uncertainty theta = 0.000893, k = 0.020666
        25        24        42     1      121.582420      291.615370    ;  uncertainty theta = 0.001569, k = 0.034478
        25        26        27     1      118.796059      505.826102    ;  uncertainty theta = 0.001491, k = 0.032531
        25        26        44     1      120.888123      288.547821    ;  uncertainty theta = 0.001467, k = 0.029276
        26        25        43     1      120.940086      285.996281    ;  uncertainty theta = 0.001006, k = 0.032460
        26        27        28     1      123.242630      514.417807    ;  uncertainty theta = 0.003199, k = 0.098485
        26        27        45     1      119.427246      294.851273    ;  uncertainty theta = 0.002057, k = 0.072752
        27        26        44     1      120.467178      285.900038    ;  uncertainty theta = 0.000756, k = 0.041357
        27        28        29     1      119.965210      395.832505    ;  uncertainty theta = 0.007267, k = 0.110311
        28        27        45     1      116.080551      265.953417    ;  uncertainty theta = 0.003541, k = 0.034864
        28        29        30     1      107.456909      541.166461    ;  uncertainty theta = 0.003458, k = 0.119418
        28        29        31     1      107.456909      541.166461    ;  uncertainty theta = 0.003458, k = 0.119418
        28        29        32     1      107.456909      541.166461    ;  uncertainty theta = 0.003458, k = 0.119418
        29        30        46     1      107.500168      381.640672    ;  uncertainty theta = 0.001147, k = 0.021560
        29        30        47     1      107.500168      381.640672    ;  uncertainty theta = 0.001147, k = 0.021560
        29        30        48     1      107.500168      381.640672    ;  uncertainty theta = 0.001147, k = 0.021560
        29        31        49     1      107.500168      381.640672    ;  uncertainty theta = 0.001147, k = 0.021560
        29        31        50     1      107.500168      381.640672    ;  uncertainty theta = 0.001147, k = 0.021560
        29        31        51     1      107.500168      381.640672    ;  uncertainty theta = 0.001147, k = 0.021560
        29        32        52     1      107.500168      381.640672    ;  uncertainty theta = 0.001147, k = 0.021560
        29        32        53     1      107.500168      381.640672    ;  uncertainty theta = 0.001147, k = 0.021560
        29        32        54     1      107.500168      381.640672    ;  uncertainty theta = 0.001147, k = 0.021560
        30        29        31     1      108.493637      588.176641    ;  uncertainty theta = 0.003882, k = 0.042667
        30        29        32     1      108.493637      588.176641    ;  uncertainty theta = 0.003882, k = 0.042667
        31        29        32     1      108.493637      588.176641    ;  uncertainty theta = 0.003882, k = 0.042667
        46        30        47     1      105.383629      318.495891    ;  uncertainty theta = 0.000917, k = 0.009330
        46        30        48     1      105.383629      318.495891    ;  uncertainty theta = 0.000917, k = 0.009330
        47        30        48     1      105.383629      318.495891    ;  uncertainty theta = 0.000917, k = 0.009330
        49        31        50     1      105.383629      318.495891    ;  uncertainty theta = 0.000917, k = 0.009330
        49        31        51     1      105.383629      318.495891    ;  uncertainty theta = 0.000917, k = 0.009330
        50        31        51     1      105.383629      318.495891    ;  uncertainty theta = 0.000917, k = 0.009330
        52        32        53     1      105.383629      318.495891    ;  uncertainty theta = 0.000917, k = 0.009330
        52        32        54     1      105.383629      318.495891    ;  uncertainty theta = 0.000917, k = 0.009330
        53        32        54     1      105.383629      318.495923    ;  uncertainty theta = 0.000917, k = 0.009330

[ dihedrals ] ; propers for gromacs 4.5 or higher, use funct 9
;       ai        aj        ak        al funct           phase               k        pn
         1         2         5         6     9        0.000000       -1.946029         1    ;  uncertainty k = 0.877379
         1         2         5         6     9      180.000000        4.955002         2    ;  uncertainty k = 0.141141
         1         2         5         6     9        0.000000        1.296836         3    ;  uncertainty k = 0.108027
         1         2         5         6     9      180.000000        0.165645         4    ;  uncertainty k = 0.067453
         2         5         6         7     9        0.000000        2.278065         1    ;  uncertainty k = 0.541896
         2         5         6         7     9      180.000000        3.585266         2    ;  uncertainty k = 0.144682
         2         5         6         7     9        0.000000        0.717948         3    ;  uncertainty k = 0.180308
         2         5         6         7     9      180.000000       -0.086401         4    ;  uncertainty k = 0.081448
         2         5         6         9     9        0.000000        2.278065         1    ;  uncertainty k = 0.541896
         2         5         6         9     9      180.000000        3.585266         2    ;  uncertainty k = 0.144682
         2         5         6         9     9        0.000000        0.717948         3    ;  uncertainty k = 0.180308
         2         5         6         9     9      180.000000       -0.086401         4    ;  uncertainty k = 0.081448
         3         2         5         6     9        0.000000       -1.946029         1    ;  uncertainty k = 0.877379
         3         2         5         6     9      180.000000        4.955002         2    ;  uncertainty k = 0.141141
         3         2         5         6     9        0.000000        1.296836         3    ;  uncertainty k = 0.108027
         3         2         5         6     9      180.000000        0.165645         4    ;  uncertainty k = 0.067453
         4         2         5         6     9        0.000000       -1.946029         1    ;  uncertainty k = 0.877379
         4         2         5         6     9      180.000000        4.955002         2    ;  uncertainty k = 0.141141
         4         2         5         6     9        0.000000        1.296836         3    ;  uncertainty k = 0.108027
         4         2         5         6     9      180.000000        0.165645         4    ;  uncertainty k = 0.067453
         5         6         7         8     9        0.000000       -0.149684         1    ;  uncertainty k = 0.271399
         5         6         7         8     9      180.000000       11.051031         2    ;  uncertainty k = 0.265237
         5         6         7         8     9        0.000000        1.291070         3    ;  uncertainty k = 0.181231
         5         6         7         8     9      180.000000        1.559267         4    ;  uncertainty k = 0.139911
         5         6         7        33     9        0.000000       -0.239894         1    ;  uncertainty k = 0.288583
         5         6         7        33     9      180.000000        8.074967         2    ;  uncertainty k = 0.237871
         5         6         7        33     9        0.000000        0.871400         3    ;  uncertainty k = 0.240484
         5         6         7        33     9      180.000000        1.062865         4    ;  uncertainty k = 0.215068
         5         6         9        10     9        0.000000       -0.149684         1    ;  uncertainty k = 0.271399
         5         6         9        10     9      180.000000       11.051031         2    ;  uncertainty k = 0.265237
         5         6         9        10     9        0.000000        1.291070         3    ;  uncertainty k = 0.181231
         5         6         9        10     9      180.000000        1.559267         4    ;  uncertainty k = 0.139911
         5         6         9        35     9        0.000000       -0.239894         1    ;  uncertainty k = 0.288583
         5         6         9        35     9      180.000000        8.074967         2    ;  uncertainty k = 0.237871
         5         6         9        35     9        0.000000        0.871400         3    ;  uncertainty k = 0.240484
         5         6         9        35     9      180.000000        1.062865         4    ;  uncertainty k = 0.215068
         6         7         8        11     9        0.000000       -0.252963         1    ;  uncertainty k = 0.238205
         6         7         8        11     9      180.000000       13.683291         2    ;  uncertainty k = 0.223564
         6         7         8        11     9        0.000000       -0.640379         3    ;  uncertainty k = 0.398573
         6         7         8        11     9      180.000000        0.957610         4    ;  uncertainty k = 0.179571
         6         7         8        34     9        0.000000       -0.042500         1    ;  uncertainty k = 0.253420
         6         7         8        34     9      180.000000        8.244681         2    ;  uncertainty k = 0.302622
         6         7         8        34     9        0.000000        1.345731         3    ;  uncertainty k = 0.188908
         6         7         8        34     9      180.000000        1.817906         4    ;  uncertainty k = 0.164763
         6         9        10        11     9        0.000000       -0.252963         1    ;  uncertainty k = 0.238205
         6         9        10        11     9      180.000000       13.683291         2    ;  uncertainty k = 0.223564
         6         9        10        11     9        0.000000       -0.640379         3    ;  uncertainty k = 0.398573
         6         9        10        11     9      180.000000        0.957610         4    ;  uncertainty k = 0.179571
         6         9        10        36     9        0.000000       -0.042500         1    ;  uncertainty k = 0.253420
         6         9        10        36     9      180.000000        8.244681         2    ;  uncertainty k = 0.302622
         6         9        10        36     9        0.000000        1.345731         3    ;  uncertainty k = 0.188908
         6         9        10        36     9      180.000000        1.817906         4    ;  uncertainty k = 0.164763
         7         6         9        10     9        0.000000       -0.230588         1    ;  uncertainty k = 0.130839
         7         6         9        10     9      180.000000       10.341083         2    ;  uncertainty k = 0.369812
         7         6         9        10     9        0.000000       -0.406875         3    ;  uncertainty k = 0.339781
         7         6         9        10     9      180.000000        1.026083         4    ;  uncertainty k = 0.339419
         7         6         9        35     9        0.000000        0.109481         1    ;  uncertainty k = 0.316027
         7         6         9        35     9      180.000000        6.017948         2    ;  uncertainty k = 0.692810
         7         6         9        35     9        0.000000        1.333811         3    ;  uncertainty k = 0.445710
         7         6         9        35     9      180.000000        1.537059         4    ;  uncertainty k = 0.184712
         7         8        11        10     9        0.000000       -0.189248         1    ;  uncertainty k = 0.224331
         7         8        11        10     9      180.000000        9.662967         2    ;  uncertainty k = 0.287264
         7         8        11        10     9        0.000000       -0.124066         3    ;  uncertainty k = 0.145091
         7         8        11        10     9      180.000000        1.157895         4    ;  uncertainty k = 0.221911
         7         8        11        12     9        0.000000        0.039185         1    ;  uncertainty k = 0.383845
         7         8        11        12     9      180.000000       10.393754         2    ;  uncertainty k = 0.556387
         7         8        11        12     9        0.000000        1.166680         3    ;  uncertainty k = 0.522687
         7         8        11        12     9      180.000000        1.635756         4    ;  uncertainty k = 0.197592
         8         7         6         9     9        0.000000       -0.230588         1    ;  uncertainty k = 0.130839
         8         7         6         9     9      180.000000       10.341083         2    ;  uncertainty k = 0.369812
         8         7         6         9     9        0.000000       -0.406875         3    ;  uncertainty k = 0.339781
         8         7         6         9     9      180.000000        1.026083         4    ;  uncertainty k = 0.339419
         8        11        10         9     9        0.000000       -0.189248         1    ;  uncertainty k = 0.224331
         8        11        10         9     9      180.000000        9.662967         2    ;  uncertainty k = 0.287264
         8        11        10         9     9        0.000000       -0.124066         3    ;  uncertainty k = 0.145091
         8        11        10         9     9      180.000000        1.157895         4    ;  uncertainty k = 0.221911
         8        11        10        36     9        0.000000        0.038247         1    ;  uncertainty k = 0.334798
         8        11        10        36     9      180.000000        6.543792         2    ;  uncertainty k = 0.541574
         8        11        10        36     9        0.000000        1.252640         3    ;  uncertainty k = 0.315042
         8        11        10        36     9      180.000000        1.473359         4    ;  uncertainty k = 0.140433
         8        11        12        13     9        0.000000        1.457132         1    ;  uncertainty k = 0.464235
         8        11        12        13     9      180.000000        3.958120         2    ;  uncertainty k = 0.176596
         8        11        12        13     9        0.000000        0.951413         3    ;  uncertainty k = 0.206854
         8        11        12        13     9      180.000000        0.364280         4    ;  uncertainty k = 0.071371
         8        11        12        37     9        0.000000        0.609453         1    ;  uncertainty k = 0.768029
         8        11        12        37     9      180.000000        3.184665         2    ;  uncertainty k = 0.120824
         8        11        12        37     9        0.000000        0.648686         3    ;  uncertainty k = 0.086545
         8        11        12        37     9      180.000000        0.251452         4    ;  uncertainty k = 0.049693
         9         6         7        33     9        0.000000        0.109481         1    ;  uncertainty k = 0.316027
         9         6         7        33     9      180.000000        6.017948         2    ;  uncertainty k = 0.692810
         9         6         7        33     9        0.000000        1.333811         3    ;  uncertainty k = 0.445710
         9         6         7        33     9      180.000000        1.537059         4    ;  uncertainty k = 0.184712
         9        10        11        12     9        0.000000        0.039185         1    ;  uncertainty k = 0.383845
         9        10        11        12     9      180.000000       10.393754         2    ;  uncertainty k = 0.556387
         9        10        11        12     9        0.000000        1.166680         3    ;  uncertainty k = 0.522687
         9        10        11        12     9      180.000000        1.635756         4    ;  uncertainty k = 0.197592
        10        11         8        34     9        0.000000        0.038247         1    ;  uncertainty k = 0.334798
        10        11         8        34     9      180.000000        6.543792         2    ;  uncertainty k = 0.541574
        10        11         8        34     9        0.000000        1.252640         3    ;  uncertainty k = 0.315042
        10        11         8        34     9      180.000000        1.473359         4    ;  uncertainty k = 0.140433
        10        11        12        13     9        0.000000        1.457132         1    ;  uncertainty k = 0.464235
        10        11        12        13     9      180.000000        3.958120         2    ;  uncertainty k = 0.176596
        10        11        12        13     9        0.000000        0.951413         3    ;  uncertainty k = 0.206854
        10        11        12        13     9      180.000000        0.364280         4    ;  uncertainty k = 0.071371
        10        11        12        37     9        0.000000        0.609453         1    ;  uncertainty k = 0.768029
        10        11        12        37     9      180.000000        3.184665         2    ;  uncertainty k = 0.120824
        10        11        12        37     9        0.000000        0.648686         3    ;  uncertainty k = 0.086545
        10        11        12        37     9      180.000000        0.251452         4    ;  uncertainty k = 0.049693
        11         8         7        33     9        0.000000        0.015842         1    ;  uncertainty k = 0.254246
        11         8         7        33     9      180.000000        8.470060         2    ;  uncertainty k = 0.490195
        11         8         7        33     9        0.000000        1.311984         3    ;  uncertainty k = 0.324190
        11         8         7        33     9      180.000000        1.694072         4    ;  uncertainty k = 0.128597
        11        10         9        35     9        0.000000        0.015842         1    ;  uncertainty k = 0.254246
        11        10         9        35     9      180.000000        8.470060         2    ;  uncertainty k = 0.490195
        11        10         9        35     9        0.000000        1.311984         3    ;  uncertainty k = 0.324190
        11        10         9        35     9      180.000000        1.694072         4    ;  uncertainty k = 0.128597
        11        12        13        14     9        0.000000        6.022626         1    ;  uncertainty k = 1.069870
        11        12        13        14     9      180.000000        9.956715         2    ;  uncertainty k = 0.367711
        11        12        13        14     9        0.000000        1.187156         3    ;  uncertainty k = 0.191221
        11        12        13        14     9      180.000000       -0.574363         4    ;  uncertainty k = 0.192462
        11        12        13        15     9        0.000000        6.798816         1    ;  uncertainty k = 0.760276
        11        12        13        15     9      180.000000        5.993574         2    ;  uncertainty k = 0.782659
        11        12        13        15     9        0.000000        0.553218         3    ;  uncertainty k = 0.300775
        11        12        13        15     9      180.000000       -0.104414         4    ;  uncertainty k = 0.248767
        12        11         8        34     9        0.000000       -0.090315         1    ;  uncertainty k = 0.136441
        12        11         8        34     9      180.000000        8.184509         2    ;  uncertainty k = 0.418187
        12        11         8        34     9        0.000000        0.758971         3    ;  uncertainty k = 0.236267
        12        11         8        34     9      180.000000        1.167755         4    ;  uncertainty k = 0.199610
        12        11        10        36     9        0.000000       -0.090315         1    ;  uncertainty k = 0.136441
        12        11        10        36     9      180.000000        8.184509         2    ;  uncertainty k = 0.418187
        12        11        10        36     9        0.000000        0.758971         3    ;  uncertainty k = 0.236267
        12        11        10        36     9      180.000000        1.167755         4    ;  uncertainty k = 0.199610
        12        13        15        16     9        0.000000        8.097416         1    ;  uncertainty k = 0.965584
        12        13        15        16     9      180.000000        6.079947         2    ;  uncertainty k = 0.980606
        12        13        15        16     9        0.000000        0.638674         3    ;  uncertainty k = 0.171911
        12        13        15        16     9      180.000000       -0.161954         4    ;  uncertainty k = 0.445618
        12        13        15        38     9        0.000000        3.140674         1    ;  uncertainty k = 0.997163
        12        13        15        38     9      180.000000        4.606959         2    ;  uncertainty k = 1.129895
        12        13        15        38     9        0.000000        0.781754         3    ;  uncertainty k = 0.203639
        12        13        15        38     9      180.000000       -0.387105         4    ;  uncertainty k = 0.270300
        13        15        16        17     9        0.000000        1.590481         1    ;  uncertainty k = 1.223144
        13        15        16        17     9      180.000000        3.933823         2    ;  uncertainty k = 0.529571
        13        15        16        17     9        0.000000        0.641748         3    ;  uncertainty k = 0.289817
        13        15        16        17     9      180.000000        0.355266         4    ;  uncertainty k = 0.131762
        13        15        16        21     9        0.000000        1.819735         1    ;  uncertainty k = 1.175758
        13        15        16        21     9      180.000000        3.891026         2    ;  uncertainty k = 0.508443
        13        15        16        21     9        0.000000        0.244165         3    ;  uncertainty k = 0.174201
        13        15        16        21     9      180.000000       -0.003039         4    ;  uncertainty k = 0.063222
        14        13        12        37     9        0.000000        0.944311         1    ;  uncertainty k = 0.481749
        14        13        12        37     9      180.000000        9.631717         2    ;  uncertainty k = 0.218444
        14        13        12        37     9        0.000000        2.134538         3    ;  uncertainty k = 0.211370
        14        13        12        37     9      180.000000       -0.270741         4    ;  uncertainty k = 0.205350
        14        13        15        16     9        0.000000        6.946392         1    ;  uncertainty k = 0.908900
        14        13        15        16     9      180.000000        9.319622         2    ;  uncertainty k = 0.343352
        14        13        15        16     9        0.000000        1.327877         3    ;  uncertainty k = 0.355434
        14        13        15        16     9      180.000000       -0.511188         4    ;  uncertainty k = 0.273826
        14        13        15        38     9        0.000000        0.648440         1    ;  uncertainty k = 0.303765
        14        13        15        38     9      180.000000        8.524097         2    ;  uncertainty k = 0.415172
        14        13        15        38     9        0.000000        1.856516         3    ;  uncertainty k = 0.251832
        14        13        15        38     9      180.000000       -0.422623         4    ;  uncertainty k = 0.241464
        15        13        12        37     9        0.000000        2.784092         1    ;  uncertainty k = 0.996552
        15        13        12        37     9      180.000000        4.681544         2    ;  uncertainty k = 1.140006
        15        13        12        37     9        0.000000        0.937857         3    ;  uncertainty k = 0.238447
        15        13        12        37     9      180.000000       -0.387398         4    ;  uncertainty k = 0.267786
        15        16        17        18     9        0.000000       -0.104133         1    ;  uncertainty k = 0.141360
        15        16        17        18     9      180.000000       11.628692         2    ;  uncertainty k = 0.794318
        15        16        17        18     9        0.000000        1.107583         3    ;  uncertainty k = 0.487861
        15        16        17        18     9      180.000000        1.611587         4    ;  uncertainty k = 0.361445
        15        16        17        39     9        0.000000       -0.339226         1    ;  uncertainty k = 0.473730
        15        16        17        39     9      180.000000        8.956186         2    ;  uncertainty k = 0.817387
        15        16        17        39     9        0.000000        0.715306         3    ;  uncertainty k = 0.150872
        15        16        17        39     9      180.000000        1.268140         4    ;  uncertainty k = 0.406221
        15        16        21        20     9        0.000000        0.354399         1    ;  uncertainty k = 0.466579
        15        16        21        20     9      180.000000        6.341080         2    ;  uncertainty k = 0.780089
        15        16        21        20     9        0.000000        0.768341         3    ;  uncertainty k = 0.321755
        15        16        21        20     9      180.000000        1.504548         4    ;  uncertainty k = 0.289127
        15        16        21        22     9        0.000000        0.284377         1    ;  uncertainty k = 0.661905
        15        16        21        22     9      180.000000        8.262305         2    ;  uncertainty k = 0.431304
        15        16        21        22     9        0.000000        0.747453         3    ;  uncertainty k = 0.255999
        15        16        21        22     9      180.000000        1.323897         4    ;  uncertainty k = 0.314135
        16        17        18        19     9        0.000000       -0.219716         1    ;  uncertainty k = 0.258711
        16        17        18        19     9      180.000000       13.489343         2    ;  uncertainty k = 0.300399
        16        17        18        19     9        0.000000       -1.177535         3    ;  uncertainty k = 0.825067
        16        17        18        19     9      180.000000        0.747943         4    ;  uncertainty k = 0.391509
        16        17        18        40     9        0.000000        0.313278         1    ;  uncertainty k = 0.255485
        16        17        18        40     9      180.000000        7.639764         2    ;  uncertainty k = 0.597194
        16        17        18        40     9        0.000000        1.394865         3    ;  uncertainty k = 0.301688
        16        17        18        40     9      180.000000        1.632044         4    ;  uncertainty k = 0.213680
        16        21        20        19     9        0.000000        0.676170         1    ;  uncertainty k = 0.497915
        16        21        20        19     9      180.000000       12.399766         2    ;  uncertainty k = 0.361750
        16        21        20        19     9        0.000000        1.802644         3    ;  uncertainty k = 0.394747
        16        21        20        19     9      180.000000        1.364744         4    ;  uncertainty k = 0.214528
        16        21        22        23     9        0.000000        6.319504         1    ;  uncertainty k = 0.288880
        16        21        22        23     9      180.000000        3.783411         2    ;  uncertainty k = 0.446259
        16        21        22        23     9        0.000000        0.494205         3    ;  uncertainty k = 0.396184
        16        21        22        23     9      180.000000        0.042530         4    ;  uncertainty k = 0.132321
        17        16        15        38     9        0.000000        0.848164         1    ;  uncertainty k = 0.508400
        17        16        15        38     9      180.000000        2.941025         2    ;  uncertainty k = 0.300122
        17        16        15        38     9        0.000000        0.417155         3    ;  uncertainty k = 0.206640
        17        16        15        38     9      180.000000        0.143213         4    ;  uncertainty k = 0.162479
        17        16        21        20     9        0.000000       -0.007482         1    ;  uncertainty k = 0.640546
        17        16        21        20     9      180.000000        5.383477         2    ;  uncertainty k = 1.412913
        17        16        21        20     9        0.000000       -0.125467         3    ;  uncertainty k = 0.198792
        17        16        21        20     9      180.000000        1.222452         4    ;  uncertainty k = 0.566062
        17        16        21        22     9        0.000000        0.860568         1    ;  uncertainty k = 0.279879
        17        16        21        22     9      180.000000        5.860296         2    ;  uncertainty k = 0.477196
        17        16        21        22     9        0.000000        0.925541         3    ;  uncertainty k = 0.130265
        17        16        21        22     9      180.000000        1.461353         4    ;  uncertainty k = 0.520030
        17        18        19        20     9        0.000000        0.122912         1    ;  uncertainty k = 0.377649
        17        18        19        20     9      180.000000       16.205384         2    ;  uncertainty k = 0.253451
        17        18        19        20     9        0.000000       -1.374142         3    ;  uncertainty k = 0.567403
        17        18        19        20     9      180.000000        0.764887         4    ;  uncertainty k = 0.233190
        17        18        19        41     9        0.000000       -0.129492         1    ;  uncertainty k = 0.287892
        17        18        19        41     9      180.000000        6.663213         2    ;  uncertainty k = 0.558016
        17        18        19        41     9        0.000000        1.279159         3    ;  uncertainty k = 0.228439
        17        18        19        41     9      180.000000        1.542370         4    ;  uncertainty k = 0.207680
        18        17        16        21     9        0.000000       -0.030132         1    ;  uncertainty k = 0.350192
        18        17        16        21     9      180.000000        9.735746         2    ;  uncertainty k = 0.562603
        18        17        16        21     9        0.000000        0.093353         3    ;  uncertainty k = 0.450931
        18        17        16        21     9      180.000000        1.415785         4    ;  uncertainty k = 0.220677
        18        19        20        21     9        0.000000       -0.152779         1    ;  uncertainty k = 0.652820
        18        19        20        21     9      180.000000       15.169950         2    ;  uncertainty k = 0.219950
        18        19        20        21     9        0.000000        0.738976         3    ;  uncertainty k = 0.607844
        18        19        20        21     9      180.000000        1.309388         4    ;  uncertainty k = 0.318753
        19        18        17        39     9        0.000000       -0.096932         1    ;  uncertainty k = 0.224659
        19        18        17        39     9      180.000000        7.599747         2    ;  uncertainty k = 0.300023
        19        18        17        39     9        0.000000        1.345914         3    ;  uncertainty k = 0.259018
        19        18        17        39     9      180.000000        1.606126         4    ;  uncertainty k = 0.220857
        19        20        21        22     9        0.000000        0.619900         1    ;  uncertainty k = 1.068276
        19        20        21        22     9      180.000000       16.868085         2    ;  uncertainty k = 0.330039
        19        20        21        22     9        0.000000        2.787028         3    ;  uncertainty k = 0.528095
        19        20        21        22     9      180.000000        1.961009         4    ;  uncertainty k = 0.174090
        20        19        18        40     9        0.000000        0.109573         1    ;  uncertainty k = 0.140059
        20        19        18        40     9      180.000000       10.004733         2    ;  uncertainty k = 0.564197
        20        19        18        40     9        0.000000        0.906339         3    ;  uncertainty k = 0.280019
        20        19        18        40     9      180.000000        1.603453         4    ;  uncertainty k = 0.128881
        20        21        22        23     9        0.000000        1.236360         1    ;  uncertainty k = 0.784559
        20        21        22        23     9      180.000000        6.633409         2    ;  uncertainty k = 0.131050
        20        21        22        23     9        0.000000        0.346052         3    ;  uncertainty k = 0.468515
        20        21        22        23     9      180.000000        0.035651         4    ;  uncertainty k = 0.112089
        21        16        15        38     9        0.000000        1.790871         1    ;  uncertainty k = 1.008654
        21        16        15        38     9      180.000000        2.157695         2    ;  uncertainty k = 0.861321
        21        16        15        38     9        0.000000       -0.062949         3    ;  uncertainty k = 0.367836
        21        16        15        38     9      180.000000       -0.089320         4    ;  uncertainty k = 0.133768
        21        16        17        39     9        0.000000       -0.041478         1    ;  uncertainty k = 0.340992
        21        16        17        39     9      180.000000        7.165697         2    ;  uncertainty k = 0.370159
        21        16        17        39     9        0.000000        1.218945         3    ;  uncertainty k = 0.132784
        21        16        17        39     9      180.000000        1.470983         4    ;  uncertainty k = 0.083533
        21        20        19        41     9        0.000000        0.094454         1    ;  uncertainty k = 0.461567
        21        20        19        41     9      180.000000       15.212743         2    ;  uncertainty k = 0.638779
        21        20        19        41     9        0.000000        2.097179         3    ;  uncertainty k = 0.681642
        21        20        19        41     9      180.000000        1.294776         4    ;  uncertainty k = 0.576515
        21        22        23        24     9        0.000000        4.828384         1    ;  uncertainty k = 0.228402
        21        22        23        24     9      180.000000        5.455597         2    ;  uncertainty k = 0.415366
        21        22        23        24     9        0.000000       -0.018090         3    ;  uncertainty k = 0.211291
        21        22        23        24     9      180.000000        0.330158         4    ;  uncertainty k = 0.134735
        21        22        23        28     9        0.000000        3.730429         1    ;  uncertainty k = 1.378013
        21        22        23        28     9      180.000000        4.333442         2    ;  uncertainty k = 0.552013
        21        22        23        28     9        0.000000        0.718711         3    ;  uncertainty k = 0.348201
        21        22        23        28     9      180.000000        0.143675         4    ;  uncertainty k = 0.148995
        22        23        24        25     9        0.000000       -0.152210         1    ;  uncertainty k = 0.328719
        22        23        24        25     9      180.000000       11.693227         2    ;  uncertainty k = 0.449003
        22        23        24        25     9        0.000000        1.385270         3    ;  uncertainty k = 0.330044
        22        23        24        25     9      180.000000        1.643559         4    ;  uncertainty k = 0.179015
        22        23        24        42     9        0.000000        0.040346         1    ;  uncertainty k = 0.229435
        22        23        24        42     9      180.000000        9.017924         2    ;  uncertainty k = 0.427767
        22        23        24        42     9        0.000000        0.908574         3    ;  uncertainty k = 0.205592
        22        23        24        42     9      180.000000        1.196650         4    ;  uncertainty k = 0.148818
        22        23        28        27     9        0.000000        0.320263         1    ;  uncertainty k = 0.419950
        22        23        28        27     9      180.000000       10.472768         2    ;  uncertainty k = 0.337593
        22        23        28        27     9        0.000000        1.489016         3    ;  uncertainty k = 0.149649
        22        23        28        27     9      180.000000        1.584858         4    ;  uncertainty k = 0.104525
        22        23        28        29     9        0.000000        0.071295         1    ;  uncertainty k = 0.718376
        22        23        28        29     9      180.000000       10.741284         2    ;  uncertainty k = 0.337093
        22        23        28        29     9        0.000000        0.888842         3    ;  uncertainty k = 0.255370
        22        23        28        29     9      180.000000        1.287663         4    ;  uncertainty k = 0.239386
        23        24        25        26     9        0.000000       -0.154766         1    ;  uncertainty k = 0.223350
        23        24        25        26     9      180.000000       14.338533         2    ;  uncertainty k = 0.288581
        23        24        25        26     9        0.000000       -1.132699         3    ;  uncertainty k = 0.713241
        23        24        25        26     9      180.000000        0.707918         4    ;  uncertainty k = 0.306895
        23        24        25        43     9        0.000000        0.072810         1    ;  uncertainty k = 0.138823
        23        24        25        43     9      180.000000        7.800304         2    ;  uncertainty k = 0.378572
        23        24        25        43     9        0.000000        1.277510         3    ;  uncertainty k = 0.172535
        23        24        25        43     9      180.000000        1.721022         4    ;  uncertainty k = 0.153664
        23        28        27        26     9        0.000000       -0.087990         1    ;  uncertainty k = 0.215346
        23        28        27        26     9      180.000000       11.417029         2    ;  uncertainty k = 0.445007
        23        28        27        26     9        0.000000        0.283233         3    ;  uncertainty k = 0.342145
        23        28        27        26     9      180.000000        1.093874         4    ;  uncertainty k = 0.359115
        23        28        27        45     9        0.000000        0.204170         1    ;  uncertainty k = 0.456467
        23        28        27        45     9      180.000000        8.527552         2    ;  uncertainty k = 0.711156
        23        28        27        45     9        0.000000        1.297625         3    ;  uncertainty k = 0.189137
        23        28        27        45     9      180.000000        1.553421         4    ;  uncertainty k = 0.302198
        23        28        29        30     9        0.000000        0.692757         1    ;  uncertainty k = 0.625037
        23        28        29        30     9      180.000000        2.494035         2    ;  uncertainty k = 0.205161
        23        28        29        30     9        0.000000        0.692709         3    ;  uncertainty k = 0.170840
        23        28        29        30     9      180.000000        0.361032         4    ;  uncertainty k = 0.059208
        23        28        29        31     9        0.000000        0.692757         1    ;  uncertainty k = 0.625037
        23        28        29        31     9      180.000000        2.494035         2    ;  uncertainty k = 0.205161
        23        28        29        31     9        0.000000        0.692709         3    ;  uncertainty k = 0.170840
        23        28        29        31     9      180.000000        0.361032         4    ;  uncertainty k = 0.059208
        23        28        29        32     9        0.000000        0.692757         1    ;  uncertainty k = 0.625037
        23        28        29        32     9      180.000000        2.494035         2    ;  uncertainty k = 0.205161
        23        28        29        32     9        0.000000        0.692709         3    ;  uncertainty k = 0.170840
        23        28        29        32     9      180.000000        0.361032         4    ;  uncertainty k = 0.059208
        24        23        28        27     9        0.000000       -0.455222         1    ;  uncertainty k = 0.423300
        24        23        28        27     9      180.000000        6.899944         2    ;  uncertainty k = 0.664279
        24        23        28        27     9        0.000000        0.492862         3    ;  uncertainty k = 0.189412
        24        23        28        27     9      180.000000        1.158502         4    ;  uncertainty k = 0.353855
        24        23        28        29     9        0.000000        0.237675         1    ;  uncertainty k = 0.432754
        24        23        28        29     9      180.000000        6.664018         2    ;  uncertainty k = 0.552302
        24        23        28        29     9        0.000000        1.253490         3    ;  uncertainty k = 0.250441
        24        23        28        29     9      180.000000        1.536451         4    ;  uncertainty k = 0.196952
        24        25        26        27     9        0.000000        0.095865         1    ;  uncertainty k = 0.125003
        24        25        26        27     9      180.000000       15.472829         2    ;  uncertainty k = 0.369879
        24        25        26        27     9        0.000000       -1.428442         3    ;  uncertainty k = 0.466432
        24        25        26        27     9      180.000000        0.461505         4    ;  uncertainty k = 0.275701
        24        25        26        44     9        0.000000        0.029749         1    ;  uncertainty k = 0.172173
        24        25        26        44     9      180.000000        7.646668         2    ;  uncertainty k = 0.266100
        24        25        26        44     9        0.000000        1.436767         3    ;  uncertainty k = 0.295275
        24        25        26        44     9      180.000000        1.769690         4    ;  uncertainty k = 0.176664
        25        24        23        28     9        0.000000       -0.092320         1    ;  uncertainty k = 0.296002
        25        24        23        28     9      180.000000        8.818598         2    ;  uncertainty k = 0.383492
        25        24        23        28     9        0.000000        0.177342         3    ;  uncertainty k = 0.550609
        25        24        23        28     9      180.000000        1.255625         4    ;  uncertainty k = 0.353641
        25        26        27        28     9        0.000000       -0.111191         1    ;  uncertainty k = 0.057807
        25        26        27        28     9      180.000000       12.582001         2    ;  uncertainty k = 0.145714
        25        26        27        28     9        0.000000       -0.876441         3    ;  uncertainty k = 0.567673
        25        26        27        28     9      180.000000        0.771695         4    ;  uncertainty k = 0.267770
        25        26        27        45     9        0.000000        0.098563         1    ;  uncertainty k = 0.132995
        25        26        27        45     9      180.000000        7.726820         2    ;  uncertainty k = 0.347678
        25        26        27        45     9        0.000000        1.334311         3    ;  uncertainty k = 0.252566
        25        26        27        45     9      180.000000        1.784033         4    ;  uncertainty k = 0.214443
        26        25        24        42     9        0.000000        0.044012         1    ;  uncertainty k = 0.104029
        26        25        24        42     9      180.000000        7.644419         2    ;  uncertainty k = 0.414807
        26        25        24        42     9        0.000000        1.332517         3    ;  uncertainty k = 0.344513
        26        25        24        42     9      180.000000        1.758476         4    ;  uncertainty k = 0.127012
        26        27        28        29     9        0.000000        0.094352         1    ;  uncertainty k = 0.377237
        26        27        28        29     9      180.000000        9.157916         2    ;  uncertainty k = 0.334207
        26        27        28        29     9        0.000000        1.485406         3    ;  uncertainty k = 0.284267
        26        27        28        29     9      180.000000        1.874048         4    ;  uncertainty k = 0.146638
        27        26        25        43     9        0.000000        0.196367         1    ;  uncertainty k = 0.225332
        27        26        25        43     9      180.000000        7.748137         2    ;  uncertainty k = 0.366774
        27        26        25        43     9        0.000000        1.431480         3    ;  uncertainty k = 0.276010
        27        26        25        43     9      180.000000        1.742438         4    ;  uncertainty k = 0.135728
        27        28        29        30     9        0.000000       -0.693212         1    ;  uncertainty k = 0.501680
        27        28        29        30     9      180.000000        2.787226         2    ;  uncertainty k = 0.278723
        27        28        29        30     9        0.000000       -0.069925         3    ;  uncertainty k = 0.111566
        27        28        29        30     9      180.000000        0.393022         4    ;  uncertainty k = 0.139142
        27        28        29        31     9        0.000000       -0.693212         1    ;  uncertainty k = 0.501680
        27        28        29        31     9      180.000000        2.787226         2    ;  uncertainty k = 0.278723
        27        28        29        31     9        0.000000       -0.069925         3    ;  uncertainty k = 0.111566
        27        28        29        31     9      180.000000        0.393022         4    ;  uncertainty k = 0.139142
        27        28        29        32     9        0.000000       -0.693212         1    ;  uncertainty k = 0.501680
        27        28        29        32     9      180.000000        2.787226         2    ;  uncertainty k = 0.278723
        27        28        29        32     9        0.000000       -0.069925         3    ;  uncertainty k = 0.111566
        27        28        29        32     9      180.000000        0.393022         4    ;  uncertainty k = 0.139142
        28        23        24        42     9        0.000000       -0.007024         1    ;  uncertainty k = 0.261529
        28        23        24        42     9      180.000000        6.316865         2    ;  uncertainty k = 0.706981
        28        23        24        42     9        0.000000        1.208484         3    ;  uncertainty k = 0.381412
        28        23        24        42     9      180.000000        1.573825         4    ;  uncertainty k = 0.136193
        28        27        26        44     9        0.000000        0.094930         1    ;  uncertainty k = 0.423666
        28        27        26        44     9      180.000000        7.086738         2    ;  uncertainty k = 0.326226
        28        27        26        44     9        0.000000        1.351546         3    ;  uncertainty k = 0.142261
        28        27        26        44     9      180.000000        1.716093         4    ;  uncertainty k = 0.173771
        28        29        30        46     9        0.000000        1.183863         1    ;  uncertainty k = 0.358830
        28        29        30        46     9      180.000000       -1.361096         2    ;  uncertainty k = 0.206011
        28        29        30        46     9        0.000000        0.666766         3    ;  uncertainty k = 0.110849
        28        29        30        46     9      180.000000        0.017306         4    ;  uncertainty k = 0.086275
        28        29        30        47     9        0.000000        1.183863         1    ;  uncertainty k = 0.358830
        28        29        30        47     9      180.000000       -1.361096         2    ;  uncertainty k = 0.206011
        28        29        30        47     9        0.000000        0.666766         3    ;  uncertainty k = 0.110849
        28        29        30        47     9      180.000000        0.017306         4    ;  uncertainty k = 0.086275
        28        29        30        48     9        0.000000        1.183863         1    ;  uncertainty k = 0.358830
        28        29        30        48     9      180.000000       -1.361096         2    ;  uncertainty k = 0.206011
        28        29        30        48     9        0.000000        0.666766         3    ;  uncertainty k = 0.110849
        28        29        30        48     9      180.000000        0.017306         4    ;  uncertainty k = 0.086275
        28        29        31        49     9        0.000000        1.183863         1    ;  uncertainty k = 0.358830
        28        29        31        49     9      180.000000       -1.361096         2    ;  uncertainty k = 0.206011
        28        29        31        49     9        0.000000        0.666766         3    ;  uncertainty k = 0.110849
        28        29        31        49     9      180.000000        0.017306         4    ;  uncertainty k = 0.086275
        28        29        31        50     9        0.000000        1.183863         1    ;  uncertainty k = 0.358830
        28        29        31        50     9      180.000000       -1.361096         2    ;  uncertainty k = 0.206011
        28        29        31        50     9        0.000000        0.666766         3    ;  uncertainty k = 0.110849
        28        29        31        50     9      180.000000        0.017306         4    ;  uncertainty k = 0.086275
        28        29        31        51     9        0.000000        1.183863         1    ;  uncertainty k = 0.358830
        28        29        31        51     9      180.000000       -1.361096         2    ;  uncertainty k = 0.206011
        28        29        31        51     9        0.000000        0.666766         3    ;  uncertainty k = 0.110849
        28        29        31        51     9      180.000000        0.017306         4    ;  uncertainty k = 0.086275
        28        29        32        52     9        0.000000        1.183863         1    ;  uncertainty k = 0.358830
        28        29        32        52     9      180.000000       -1.361096         2    ;  uncertainty k = 0.206011
        28        29        32        52     9        0.000000        0.666766         3    ;  uncertainty k = 0.110849
        28        29        32        52     9      180.000000        0.017306         4    ;  uncertainty k = 0.086275
        28        29        32        53     9        0.000000        1.183863         1    ;  uncertainty k = 0.358830
        28        29        32        53     9      180.000000       -1.361096         2    ;  uncertainty k = 0.206011
        28        29        32        53     9        0.000000        0.666766         3    ;  uncertainty k = 0.110849
        28        29        32        53     9      180.000000        0.017306         4    ;  uncertainty k = 0.086275
        28        29        32        54     9        0.000000        1.183863         1    ;  uncertainty k = 0.358830
        28        29        32        54     9      180.000000       -1.361096         2    ;  uncertainty k = 0.206011
        28        29        32        54     9        0.000000        0.666766         3    ;  uncertainty k = 0.110849
        28        29        32        54     9      180.000000        0.017306         4    ;  uncertainty k = 0.086275
        29        28        27        45     9        0.000000        0.039104         1    ;  uncertainty k = 0.081652
        29        28        27        45     9      180.000000        7.522433         2    ;  uncertainty k = 0.448358
        29        28        27        45     9        0.000000        0.766656         3    ;  uncertainty k = 0.198358
        29        28        27        45     9      180.000000        1.247515         4    ;  uncertainty k = 0.270572
        30        29        31        49     9        0.000000       -1.113239         1    ;  uncertainty k = 0.344859
        30        29        31        49     9      180.000000       -0.258827         2    ;  uncertainty k = 0.141356
        30        29        31        49     9        0.000000        0.787573         3    ;  uncertainty k = 0.076235
        30        29        31        49     9      180.000000       -0.054393         4    ;  uncertainty k = 0.041878
        30        29        31        50     9        0.000000       -1.113239         1    ;  uncertainty k = 0.344859
        30        29        31        50     9      180.000000       -0.258827         2    ;  uncertainty k = 0.141356
        30        29        31        50     9        0.000000        0.787573         3    ;  uncertainty k = 0.076235
        30        29        31        50     9      180.000000       -0.054393         4    ;  uncertainty k = 0.041878
        30        29        31        51     9        0.000000       -1.113239         1    ;  uncertainty k = 0.344859
        30        29        31        51     9      180.000000       -0.258827         2    ;  uncertainty k = 0.141356
        30        29        31        51     9        0.000000        0.787573         3    ;  uncertainty k = 0.076235
        30        29        31        51     9      180.000000       -0.054393         4    ;  uncertainty k = 0.041878
        30        29        32        52     9        0.000000       -1.113239         1    ;  uncertainty k = 0.344859
        30        29        32        52     9      180.000000       -0.258827         2    ;  uncertainty k = 0.141356
        30        29        32        52     9        0.000000        0.787573         3    ;  uncertainty k = 0.076235
        30        29        32        52     9      180.000000       -0.054393         4    ;  uncertainty k = 0.041878
        30        29        32        53     9        0.000000       -1.113239         1    ;  uncertainty k = 0.344859
        30        29        32        53     9      180.000000       -0.258827         2    ;  uncertainty k = 0.141356
        30        29        32        53     9        0.000000        0.787573         3    ;  uncertainty k = 0.076235
        30        29        32        53     9      180.000000       -0.054393         4    ;  uncertainty k = 0.041878
        30        29        32        54     9        0.000000       -1.113239         1    ;  uncertainty k = 0.344859
        30        29        32        54     9      180.000000       -0.258827         2    ;  uncertainty k = 0.141356
        30        29        32        54     9        0.000000        0.787573         3    ;  uncertainty k = 0.076235
        30        29        32        54     9      180.000000       -0.054393         4    ;  uncertainty k = 0.041878
        31        29        30        46     9        0.000000       -1.113239         1    ;  uncertainty k = 0.344859
        31        29        30        46     9      180.000000       -0.258827         2    ;  uncertainty k = 0.141356
        31        29        30        46     9        0.000000        0.787573         3    ;  uncertainty k = 0.076235
        31        29        30        46     9      180.000000       -0.054393         4    ;  uncertainty k = 0.041878
        31        29        30        47     9        0.000000       -1.113239         1    ;  uncertainty k = 0.344859
        31        29        30        47     9      180.000000       -0.258827         2    ;  uncertainty k = 0.141356
        31        29        30        47     9        0.000000        0.787573         3    ;  uncertainty k = 0.076235
        31        29        30        47     9      180.000000       -0.054393         4    ;  uncertainty k = 0.041878
        31        29        30        48     9        0.000000       -1.113239         1    ;  uncertainty k = 0.344859
        31        29        30        48     9      180.000000       -0.258827         2    ;  uncertainty k = 0.141356
        31        29        30        48     9        0.000000        0.787573         3    ;  uncertainty k = 0.076235
        31        29        30        48     9      180.000000       -0.054393         4    ;  uncertainty k = 0.041878
        31        29        32        52     9        0.000000       -1.113239         1    ;  uncertainty k = 0.344859
        31        29        32        52     9      180.000000       -0.258827         2    ;  uncertainty k = 0.141356
        31        29        32        52     9        0.000000        0.787573         3    ;  uncertainty k = 0.076235
        31        29        32        52     9      180.000000       -0.054393         4    ;  uncertainty k = 0.041878
        31        29        32        53     9        0.000000       -1.113239         1    ;  uncertainty k = 0.344859
        31        29        32        53     9      180.000000       -0.258827         2    ;  uncertainty k = 0.141356
        31        29        32        53     9        0.000000        0.787573         3    ;  uncertainty k = 0.076235
        31        29        32        53     9      180.000000       -0.054393         4    ;  uncertainty k = 0.041878
        31        29        32        54     9        0.000000       -1.113239         1    ;  uncertainty k = 0.344859
        31        29        32        54     9      180.000000       -0.258827         2    ;  uncertainty k = 0.141356
        31        29        32        54     9        0.000000        0.787573         3    ;  uncertainty k = 0.076235
        31        29        32        54     9      180.000000       -0.054393         4    ;  uncertainty k = 0.041878
        32        29        30        46     9        0.000000       -1.113239         1    ;  uncertainty k = 0.344859
        32        29        30        46     9      180.000000       -0.258827         2    ;  uncertainty k = 0.141356
        32        29        30        46     9        0.000000        0.787573         3    ;  uncertainty k = 0.076235
        32        29        30        46     9      180.000000       -0.054393         4    ;  uncertainty k = 0.041878
        32        29        30        47     9        0.000000       -1.113239         1    ;  uncertainty k = 0.344859
        32        29        30        47     9      180.000000       -0.258827         2    ;  uncertainty k = 0.141356
        32        29        30        47     9        0.000000        0.787573         3    ;  uncertainty k = 0.076235
        32        29        30        47     9      180.000000       -0.054393         4    ;  uncertainty k = 0.041878
        32        29        30        48     9        0.000000       -1.113239         1    ;  uncertainty k = 0.344859
        32        29        30        48     9      180.000000       -0.258827         2    ;  uncertainty k = 0.141356
        32        29        30        48     9        0.000000        0.787573         3    ;  uncertainty k = 0.076235
        32        29        30        48     9      180.000000       -0.054393         4    ;  uncertainty k = 0.041878
        32        29        31        49     9        0.000000       -1.113239         1    ;  uncertainty k = 0.344859
        32        29        31        49     9      180.000000       -0.258827         2    ;  uncertainty k = 0.141356
        32        29        31        49     9        0.000000        0.787573         3    ;  uncertainty k = 0.076235
        32        29        31        49     9      180.000000       -0.054393         4    ;  uncertainty k = 0.041878
        32        29        31        50     9        0.000000       -1.113239         1    ;  uncertainty k = 0.344859
        32        29        31        50     9      180.000000       -0.258827         2    ;  uncertainty k = 0.141356
        32        29        31        50     9        0.000000        0.787573         3    ;  uncertainty k = 0.076235
        32        29        31        50     9      180.000000       -0.054393         4    ;  uncertainty k = 0.041878
        32        29        31        51     9        0.000000       -1.113239         1    ;  uncertainty k = 0.344859
        32        29        31        51     9      180.000000       -0.258827         2    ;  uncertainty k = 0.141356
        32        29        31        51     9        0.000000        0.787573         3    ;  uncertainty k = 0.076235
        32        29        31        51     9      180.000000       -0.054393         4    ;  uncertainty k = 0.041878
        33         7         8        34     9        0.000000       -0.099963         1    ;  uncertainty k = 0.341451
        33         7         8        34     9      180.000000        7.892934         2    ;  uncertainty k = 0.331228
        33         7         8        34     9        0.000000       -0.372593         3    ;  uncertainty k = 0.304987
        33         7         8        34     9      180.000000        0.301992         4    ;  uncertainty k = 0.148626
        35         9        10        36     9        0.000000       -0.099963         1    ;  uncertainty k = 0.341451
        35         9        10        36     9      180.000000        7.892934         2    ;  uncertainty k = 0.331228
        35         9        10        36     9        0.000000       -0.372593         3    ;  uncertainty k = 0.304987
        35         9        10        36     9      180.000000        0.301992         4    ;  uncertainty k = 0.148626
        39        17        18        40     9        0.000000        0.077280         1    ;  uncertainty k = 0.355604
        39        17        18        40     9      180.000000        7.819656         2    ;  uncertainty k = 0.531204
        39        17        18        40     9        0.000000       -0.430593         3    ;  uncertainty k = 0.317162
        39        17        18        40     9      180.000000        0.145196         4    ;  uncertainty k = 0.160605
        40        18        19        41     9        0.000000       -0.176777         1    ;  uncertainty k = 0.222996
        40        18        19        41     9      180.000000        6.567607         2    ;  uncertainty k = 0.260168
        40        18        19        41     9        0.000000       -0.010460         3    ;  uncertainty k = 0.138989
        40        18        19        41     9      180.000000        0.217242         4    ;  uncertainty k = 0.090307
        42        24        25        43     9        0.000000       -0.031118         1    ;  uncertainty k = 0.171418
        42        24        25        43     9      180.000000        7.206182         2    ;  uncertainty k = 0.294542
        42        24        25        43     9        0.000000       -0.364827         3    ;  uncertainty k = 0.310616
        42        24        25        43     9      180.000000        0.157814         4    ;  uncertainty k = 0.104465
        43        25        26        44     9        0.000000       -0.000085         1    ;  uncertainty k = 0.148397
        43        25        26        44     9      180.000000        7.399574         2    ;  uncertainty k = 0.368163
        43        25        26        44     9        0.000000       -0.403325         3    ;  uncertainty k = 0.316858
        43        25        26        44     9      180.000000        0.039164         4    ;  uncertainty k = 0.177265
        44        26        27        45     9        0.000000        0.031583         1    ;  uncertainty k = 0.187338
        44        26        27        45     9      180.000000        7.710167         2    ;  uncertainty k = 0.275220
        44        26        27        45     9        0.000000       -0.387163         3    ;  uncertainty k = 0.299535
        44        26        27        45     9      180.000000        0.170877         4    ;  uncertainty k = 0.131540

[ dihedrals ] ; impropers
;       ai        aj        ak        al funct           phase               k        pn
         6         5         7         9     4      180.000000       13.379039         2    ;  uncertainty k = 0.127599
         6         7         9         5     4      180.000000       13.379039         2    ;  uncertainty k = 0.127599
         6         9         5         7     4      180.000000       13.379039         2    ;  uncertainty k = 0.127599
         7         6         8        33     4      180.000000        2.786849         2    ;  uncertainty k = 0.316843
         7         8        33         6     4      180.000000        2.786849         2    ;  uncertainty k = 0.316843
         7        33         6         8     4      180.000000        2.786849         2    ;  uncertainty k = 0.316843
         8         7        11        34     4      180.000000        3.194403         2    ;  uncertainty k = 0.232074
         8        11        34         7     4      180.000000        3.194403         2    ;  uncertainty k = 0.232074
         8        34         7        11     4      180.000000        3.194403         2    ;  uncertainty k = 0.232074
         9         6        10        35     4      180.000000        2.786849         2    ;  uncertainty k = 0.316843
         9        10        35         6     4      180.000000        2.786849         2    ;  uncertainty k = 0.316843
         9        35         6        10     4      180.000000        2.786849         2    ;  uncertainty k = 0.316843
        10         9        11        36     4      180.000000        3.194403         2    ;  uncertainty k = 0.232074
        10        11        36         9     4      180.000000        3.194403         2    ;  uncertainty k = 0.232074
        10        36         9        11     4      180.000000        3.194403         2    ;  uncertainty k = 0.232074
        11         8        10        12     4      180.000000       16.857720         2    ;  uncertainty k = 0.110004
        11        10        12         8     4      180.000000       16.857720         2    ;  uncertainty k = 0.110004
        11        12         8        10     4      180.000000       16.857720         2    ;  uncertainty k = 0.110004
        12        11        13        37     4      180.000000        0.553157         2    ;  uncertainty k = 0.626109
        12        13        37        11     4      180.000000        0.553157         2    ;  uncertainty k = 0.626109
        12        37        11        13     4      180.000000        0.553157         2    ;  uncertainty k = 0.626109
        13        12        14        15     4      180.000000       63.229447         2    ;  uncertainty k = 0.059119
        13        14        15        12     4      180.000000       63.229447         2    ;  uncertainty k = 0.059119
        13        15        12        14     4      180.000000       63.229447         2    ;  uncertainty k = 0.059119
        15        13        16        38     4      180.000000        0.392748         2    ;  uncertainty k = 0.562770
        15        16        38        13     4      180.000000        0.392748         2    ;  uncertainty k = 0.562770
        15        38        13        16     4      180.000000        0.392748         2    ;  uncertainty k = 0.562770
        16        15        17        21     4      180.000000       12.947088         2    ;  uncertainty k = 0.234161
        16        17        21        15     4      180.000000       12.947088         2    ;  uncertainty k = 0.234161
        16        21        15        17     4      180.000000       12.947088         2    ;  uncertainty k = 0.234161
        17        16        18        39     4      180.000000        4.523753         2    ;  uncertainty k = 0.211545
        17        18        39        16     4      180.000000        4.523753         2    ;  uncertainty k = 0.211545
        17        39        16        18     4      180.000000        4.523753         2    ;  uncertainty k = 0.211545
        18        17        19        40     4      180.000000        2.219266         2    ;  uncertainty k = 0.396247
        18        19        40        17     4      180.000000        2.219266         2    ;  uncertainty k = 0.396247
        18        40        17        19     4      180.000000        2.219266         2    ;  uncertainty k = 0.396247
        19        18        20        41     4      180.000000       11.532153         2    ;  uncertainty k = 0.089529
        19        20        41        18     4      180.000000       11.532153         2    ;  uncertainty k = 0.089529
        19        41        18        20     4      180.000000       11.532153         2    ;  uncertainty k = 0.089529
        21        16        20        22     4      180.000000       23.082546         2    ;  uncertainty k = 0.081809
        21        20        22        16     4      180.000000       23.082546         2    ;  uncertainty k = 0.081809
        21        22        16        20     4      180.000000       23.082546         2    ;  uncertainty k = 0.081809
        23        22        24        28     4      180.000000       15.545495         2    ;  uncertainty k = 0.149472
        23        24        28        22     4      180.000000       15.545495         2    ;  uncertainty k = 0.149472
        23        28        22        24     4      180.000000       15.545495         2    ;  uncertainty k = 0.149472
        24        23        25        42     4      180.000000        3.090458         2    ;  uncertainty k = 0.173593
        24        25        42        23     4      180.000000        3.090458         2    ;  uncertainty k = 0.173593
        24        42        23        25     4      180.000000        3.090458         2    ;  uncertainty k = 0.173593
        25        24        26        43     4      180.000000        3.602513         2    ;  uncertainty k = 0.202504
        25        26        43        24     4      180.000000        3.602513         2    ;  uncertainty k = 0.202504
        25        43        24        26     4      180.000000        3.602513         2    ;  uncertainty k = 0.202504
        26        25        27        44     4      180.000000        3.276194         2    ;  uncertainty k = 0.154517
        26        27        44        25     4      180.000000        3.276194         2    ;  uncertainty k = 0.154517
        26        44        25        27     4      180.000000        3.276194         2    ;  uncertainty k = 0.154517
        27        26        28        45     4      180.000000        4.242233         2    ;  uncertainty k = 0.258633
        27        28        45        26     4      180.000000        4.242233         2    ;  uncertainty k = 0.258633
        27        45        26        28     4      180.000000        4.242233         2    ;  uncertainty k = 0.258633
        28        23        27        29     4      180.000000       14.310281         2    ;  uncertainty k = 0.159675
        28        27        29        23     4      180.000000       14.310281         2    ;  uncertainty k = 0.159675
        28        29        23        27     4      180.000000       14.310281         2    ;  uncertainty k = 0.159675

[ pairs ]
;       ai        aj funct
         1         6     1
         2         7     1
         2         9     1
         3         6     1
         4         6     1
         5         8     1
         5        10     1
         5        33     1
         5        35     1
         6        11     1
         6        34     1
         6        36     1
         7        10     1
         7        12     1
         7        35     1
         8         9     1
         8        13     1
         8        36     1
         8        37     1
         9        12     1
         9        33     1
        10        13     1
        10        34     1
        10        37     1
        11        14     1
        11        15     1
        11        33     1
        11        35     1
        12        16     1
        12        34     1
        12        36     1
        12        38     1
        13        17     1
        13        21     1
        14        16     1
        14        37     1
        14        38     1
        15        18     1
        15        20     1
        15        22     1
        15        37     1
        15        39     1
        16        19     1
        16        23     1
        16        40     1
        17        20     1
        17        22     1
        17        38     1
        17        41     1
        18        21     1
        19        22     1
        19        39     1
        20        23     1
        20        40     1
        21        24     1
        21        28     1
        21        38     1
        21        39     1
        21        41     1
        22        25     1
        22        27     1
        22        29     1
        22        42     1
        23        26     1
        23        30     1
        23        31     1
        23        32     1
        23        43     1
        23        45     1
        24        27     1
        24        29     1
        24        44     1
        25        28     1
        25        45     1
        26        29     1
        26        42     1
        27        30     1
        27        31     1
        27        32     1
        27        43     1
        28        42     1
        28        44     1
        28        46     1
        28        47     1
        28        48     1
        28        49     1
        28        50     1
        28        51     1
        28        52     1
        28        53     1
        28        54     1
        29        45     1
        30        49     1
        30        50     1
        30        51     1
        30        52     1
        30        53     1
        30        54     1
        31        46     1
        31        47     1
        31        48     1
        31        52     1
        31        53     1
        31        54     1
        32        46     1
        32        47     1
        32        48     1
        32        49     1
        32        50     1
        32        51     1
        33        34     1
        35        36     1
        39        40     1
        40        41     1
        42        43     1
        43        44     1
        44        45     1
