; ITP file created by ByteFF-ML, 2026-02-21 07:51:13.547847

[ atomtypes ]
;name           bonded.type        at.num        mass        charge   ptype           sigma         epsilon
 n0bf                                   7      0.0000       0.00000       A     3.38268e-01     3.93530e-01
 c1bf                                   6      0.0000       0.00000       A     3.31680e-01     4.10852e-01
 n2bf                                   7      0.0000       0.00000       A     3.26530e-01     5.01306e-01
 c3bf                                   6      0.0000       0.00000       A     3.31442e-01     4.13060e-01
 o4bf                                   8      0.0000       0.00000       A     3.04637e-01     6.12097e-01
 c5bf                                   6      0.0000       0.00000       A     3.31390e-01     4.12402e-01
 c6bf                                   6      0.0000       0.00000       A     3.31495e-01     4.13143e-01
 c7bf                                   6      0.0000       0.00000       A     3.31509e-01     4.12579e-01
 c8bf                                   6      0.0000       0.00000       A     3.31432e-01     4.12788e-01
 c9bf                                   6      0.0000       0.00000       A     3.31509e-01     4.12579e-01
 c10bf                                  6      0.0000       0.00000       A     3.31495e-01     4.13143e-01
 c11bf                                  6      0.0000       0.00000       A     3.39877e-01     4.53925e-01
 c12bf                                  6      0.0000       0.00000       A     3.31497e-01     4.11727e-01
 c13bf                                  6      0.0000       0.00000       A     3.31467e-01     4.12472e-01
 c14bf                                  6      0.0000       0.00000       A     3.31516e-01     4.12871e-01
 c15bf                                  6      0.0000       0.00000       A     3.31494e-01     4.13573e-01
 c16bf                                  6      0.0000       0.00000       A     3.31477e-01     4.12772e-01
 c17bf                                  6      0.0000       0.00000       A     3.31489e-01     4.12965e-01
 c18bf                                  6      0.0000       0.00000       A     3.39773e-01     4.50258e-01
 c19bf                                  6      0.0000       0.00000       A     3.39773e-01     4.50258e-01
 c20bf                                  6      0.0000       0.00000       A     3.39773e-01     4.50258e-01
 h21bf                                  1      0.0000       0.00000       A     1.10472e-01     4.18202e-02
 h22bf                                  1      0.0000       0.00000       A     2.62492e-01     6.72312e-02
 h23bf                                  1      0.0000       0.00000       A     2.62576e-01     6.73924e-02
 h24bf                                  1      0.0000       0.00000       A     2.62576e-01     6.73924e-02
 h25bf                                  1      0.0000       0.00000       A     2.62492e-01     6.72312e-02
 h26bf                                  1      0.0000       0.00000       A     2.62555e-01     6.74627e-02
 h27bf                                  1      0.0000       0.00000       A     2.62489e-01     6.75504e-02
 h28bf                                  1      0.0000       0.00000       A     2.62455e-01     6.76877e-02
 h29bf                                  1      0.0000       0.00000       A     2.62555e-01     6.73573e-02
 h30bf                                  1      0.0000       0.00000       A     2.59968e-01     8.75795e-02
 h31bf                                  1      0.0000       0.00000       A     2.59968e-01     8.75795e-02
 h32bf                                  1      0.0000       0.00000       A     2.59968e-01     8.75795e-02
 h33bf                                  1      0.0000       0.00000       A     2.59968e-01     8.75795e-02
 h34bf                                  1      0.0000       0.00000       A     2.59968e-01     8.75795e-02
 h35bf                                  1      0.0000       0.00000       A     2.59968e-01     8.75795e-02
 h36bf                                  1      0.0000       0.00000       A     2.59968e-01     8.75795e-02
 h37bf                                  1      0.0000       0.00000       A     2.59968e-01     8.75795e-02
 h38bf                                  1      0.0000       0.00000       A     2.59968e-01     8.75795e-02

[ moleculetype ]
;name             nrexcl
 3a                    3

[ atoms ]
;       nr            type      resi   res      atom      cgnr      charge          mass ; qtot
         1            n0bf         1   UNL        n0         1    -0.62391       14.0070 ; qtot   -0.624
         2            c1bf         1   UNL        c1         2     0.56268       12.0110 ; qtot   -0.061
         3            n2bf         1   UNL        n2         3    -0.42654       14.0070 ; qtot   -0.488
         4            c3bf         1   UNL        c3         4     0.57417       12.0110 ; qtot    0.086
         5            o4bf         1   UNL        o4         5    -0.53715       15.9990 ; qtot   -0.451
         6            c5bf         1   UNL        c5         6    -0.16120       12.0110 ; qtot   -0.612
         7            c6bf         1   UNL        c6         7    -0.06320       12.0110 ; qtot   -0.675
         8            c7bf         1   UNL        c7         8    -0.11625       12.0110 ; qtot   -0.791
         9            c8bf         1   UNL        c8         9    -0.05580       12.0110 ; qtot   -0.847
        10            c9bf         1   UNL        c9        10    -0.11625       12.0110 ; qtot   -0.963
        11           c10bf         1   UNL       c10        11    -0.06320       12.0110 ; qtot   -1.027
        12           c11bf         1   UNL       c11        12    -0.00226       12.0110 ; qtot   -1.029
        13           c12bf         1   UNL       c12        13     0.18909       12.0110 ; qtot   -0.840
        14           c13bf         1   UNL       c13        14    -0.20819       12.0110 ; qtot   -1.048
        15           c14bf         1   UNL       c14        15    -0.04080       12.0110 ; qtot   -1.089
        16           c15bf         1   UNL       c15        16    -0.13050       12.0110 ; qtot   -1.219
        17           c16bf         1   UNL       c16        17    -0.07317       12.0110 ; qtot   -1.292
        18           c17bf         1   UNL       c17        18    -0.10981       12.0110 ; qtot   -1.402
        19           c18bf         1   UNL       c18        19    -0.08753       12.0110 ; qtot   -1.490
        20           c19bf         1   UNL       c19        20    -0.08753       12.0110 ; qtot   -1.577
        21           c20bf         1   UNL       c20        21    -0.08753       12.0110 ; qtot   -1.665
        22           h21bf         1   UNL       h21        22     0.33464        1.0080 ; qtot   -1.330
        23           h22bf         1   UNL       h22        23     0.12610        1.0080 ; qtot   -1.204
        24           h23bf         1   UNL       h23        24     0.11866        1.0080 ; qtot   -1.085
        25           h24bf         1   UNL       h24        25     0.11866        1.0080 ; qtot   -0.967
        26           h25bf         1   UNL       h25        26     0.12610        1.0080 ; qtot   -0.841
        27           h26bf         1   UNL       h26        27     0.13795        1.0080 ; qtot   -0.703
        28           h27bf         1   UNL       h27        28     0.12116        1.0080 ; qtot   -0.582
        29           h28bf         1   UNL       h28        29     0.11823        1.0080 ; qtot   -0.463
        30           h29bf         1   UNL       h29        30     0.13543        1.0080 ; qtot   -0.328
        31           h30bf         1   UNL       h30        31     0.03644        1.0080 ; qtot   -0.292
        32           h31bf         1   UNL       h31        32     0.03644        1.0080 ; qtot   -0.255
        33           h32bf         1   UNL       h32        33     0.03644        1.0080 ; qtot   -0.219
        34           h33bf         1   UNL       h33        34     0.03644        1.0080 ; qtot   -0.182
        35           h34bf         1   UNL       h34        35     0.03644        1.0080 ; qtot   -0.146
        36           h35bf         1   UNL       h35        36     0.03644        1.0080 ; qtot   -0.109
        37           h36bf         1   UNL       h36        37     0.03644        1.0080 ; qtot   -0.073
        38           h37bf         1   UNL       h37        38     0.03644        1.0080 ; qtot   -0.036
        39           h38bf         1   UNL       h38        39     0.03643        1.0080 ; qtot    0.000

[ bonds ]
;       ai        aj funct               r               k
         1         2     1        0.130004   426514.722949
         1        13     1        0.138782   252735.127783
         2         3     1        0.137908   255004.968213
         2         6     1        0.148032   204065.368335
         3         4     1        0.140258   207448.230908
         3        22     1        0.101480   412787.071045
         4         5     1        0.122906   607474.765918
         4        14     1        0.146750   201360.962915
         6         7     1        0.140443   290054.829590
         6        11     1        0.140443   290054.829590
         7         8     1        0.139351   326369.212012
         7        23     1        0.108522   320918.316016
         8         9     1        0.140446   281619.769141
         8        24     1        0.108538   319337.211426
         9        10     1        0.140446   281619.769141
         9        12     1        0.153409   164344.578125
        10        11     1        0.139351   326369.212012
        10        25     1        0.108538   319337.211426
        11        26     1        0.108522   320918.316016
        12        19     1        0.154424   170787.207764
        12        20     1        0.154424   170787.207764
        12        21     1        0.154424   170787.220532
        13        14     1        0.141667   264067.960645
        13        18     1        0.141186   283537.350684
        14        15     1        0.140656   289942.977051
        15        16     1        0.138884   328347.010059
        15        27     1        0.108504   323913.691260
        16        17     1        0.141101   286911.517871
        16        28     1        0.108576   321541.523633
        17        18     1        0.138819   334267.788867
        17        29     1        0.108627   319930.106494
        18        30     1        0.108514   323694.046582
        19        31     1        0.109415   298652.152832
        19        32     1        0.109415   298652.152832
        19        33     1        0.109415   298652.152832
        20        34     1        0.109415   298652.152832
        20        35     1        0.109415   298652.152832
        20        36     1        0.109415   298652.152832
        21        37     1        0.109415   298652.203906
        21        38     1        0.109415   298652.203906
        21        39     1        0.109415   298652.203906

[ angles ]
;       ai        aj        ak funct           theta             cth
         1         2         3     1      122.649086      510.787739
         1         2         6     1      120.144737      397.378362
         1        13        14     1      122.902695      722.903151
         1        13        18     1      118.484596      428.234309
         2         1        13     1      118.108742      318.283071
         2         3         4     1      124.957779      715.885745
         2         3        22     1      120.328003      426.351937
         2         6         7     1      120.792099      546.468923
         2         6        11     1      120.792099      546.468923
         3         2         6     1      117.435585      653.950849
         3         4         5     1      120.334274      784.478677
         3         4        14     1      112.858109      621.227023
         4         3        22     1      114.826462      511.712534
         4        14        13     1      119.100998      861.075576
         4        14        15     1      120.219322      509.065421
         5         4        14     1      126.495461      461.475932
         6         7         8     1      120.519409      677.142375
         6         7        23     1      119.876343      419.563535
         6        11        10     1      120.519409      677.142375
         6        11        26     1      119.876343      419.563535
         7         6        11     1      118.251160      554.320179
         7         8         9     1      121.411720      717.314036
         7         8        24     1      118.709679      436.606746
         8         7        23     1      119.525436      424.546208
         8         9        10     1      117.164719      643.858009
         8         9        12     1      121.437637      495.527944
         9         8        24     1      119.973557      405.629849
         9        10        11     1      121.411720      717.314036
         9        10        25     1      119.973557      405.629849
         9        12        19     1      110.274414      653.111445
         9        12        20     1      110.274414      653.111445
         9        12        21     1      110.274414      653.111445
        10         9        12     1      121.437637      495.527944
        10        11        26     1      119.525436      424.546208
        11        10        25     1      118.709679      436.606746
        12        19        31     1      111.041466      474.591696
        12        19        32     1      111.041466      474.591696
        12        19        33     1      111.041466      474.591696
        12        20        34     1      111.041466      474.591696
        12        20        35     1      111.041466      474.591696
        12        20        36     1      111.041466      474.591696
        12        21        37     1      111.041466      474.591696
        12        21        38     1      111.041466      474.591696
        12        21        39     1      111.041466      474.591696
        13        14        15     1      120.497543      722.137996
        13        18        17     1      120.188644      687.358624
        13        18        30     1      118.134903      457.593238
        14        13        18     1      118.628891      620.062594
        14        15        16     1      119.784164      647.127972
        14        15        27     1      118.337601      428.915607
        15        16        17     1      119.894150      710.476092
        15        16        28     1      120.259583      440.574894
        16        15        27     1      121.788620      423.291218
        16        17        18     1      120.737991      713.023802
        16        17        29     1      119.611473      444.360004
        17        16        28     1      119.858643      446.079066
        17        18        30     1      121.628311      432.861761
        18        17        29     1      119.687172      439.283163
        19        12        20     1      108.563232      558.929436
        19        12        21     1      108.563232      558.929436
        20        12        21     1      108.563232      558.929436
        31        19        32     1      107.887100      362.502141
        31        19        33     1      107.887100      362.502141
        32        19        33     1      107.887100      362.502141
        34        20        35     1      107.887100      362.502077
        34        20        36     1      107.887100      362.502077
        35        20        36     1      107.887100      362.502077
        37        21        38     1      107.887100      362.502109
        37        21        39     1      107.887100      362.502077
        38        21        39     1      107.887100      362.502109

[ dihedrals ] ; propers for gromacs 4.5 or higher, use funct 9
;       ai        aj        ak        al funct           phase               k        pn
         1         2         3         4     9        0.000000       -0.124649         1
         1         2         3         4     9      180.000000        7.227849         2
         1         2         3         4     9        0.000000        0.176620         3
         1         2         3         4     9      180.000000       -0.230584         4
         1         2         3        22     9        0.000000        1.385951         1
         1         2         3        22     9      180.000000        6.868329         2
         1         2         3        22     9        0.000000       -0.290597         3
         1         2         3        22     9      180.000000       -0.133254         4
         1         2         6         7     9        0.000000       -0.012889         1
         1         2         6         7     9      180.000000        3.736570         2
         1         2         6         7     9        0.000000       -0.052558         3
         1         2         6         7     9      180.000000       -0.056824         4
         1         2         6        11     9        0.000000       -0.012889         1
         1         2         6        11     9      180.000000        3.736570         2
         1         2         6        11     9        0.000000       -0.052558         3
         1         2         6        11     9      180.000000       -0.056824         4
         1        13        14         4     9        0.000000        0.596246         1
         1        13        14         4     9      180.000000       12.197092         2
         1        13        14         4     9        0.000000        0.635624         3
         1        13        14         4     9      180.000000       -0.520972         4
         1        13        14        15     9        0.000000        0.246490         1
         1        13        14        15     9      180.000000       13.514050         2
         1        13        14        15     9        0.000000        0.010824         3
         1        13        14        15     9      180.000000       -0.213588         4
         1        13        18        17     9        0.000000        0.399304         1
         1        13        18        17     9      180.000000       16.444057         2
         1        13        18        17     9        0.000000        0.186387         3
         1        13        18        17     9      180.000000       -0.318694         4
         1        13        18        30     9        0.000000        0.154510         1
         1        13        18        30     9      180.000000       14.027912         2
         1        13        18        30     9        0.000000       -0.234875         3
         1        13        18        30     9      180.000000        0.083274         4
         2         1        13        14     9        0.000000        0.486307         1
         2         1        13        14     9      180.000000        5.462326         2
         2         1        13        14     9        0.000000        0.999009         3
         2         1        13        14     9      180.000000       -0.156318         4
         2         1        13        18     9        0.000000       -0.271361         1
         2         1        13        18     9      180.000000        7.284156         2
         2         1        13        18     9        0.000000        1.030406         3
         2         1        13        18     9      180.000000       -0.141267         4
         2         3         4         5     9        0.000000       -0.457463         1
         2         3         4         5     9      180.000000        9.455057         2
         2         3         4         5     9        0.000000       -0.300155         3
         2         3         4         5     9      180.000000       -0.429548         4
         2         3         4        14     9        0.000000       -0.306819         1
         2         3         4        14     9      180.000000        3.506493         2
         2         3         4        14     9        0.000000        0.175921         3
         2         3         4        14     9      180.000000        0.106464         4
         2         6         7         8     9        0.000000        0.014092         1
         2         6         7         8     9      180.000000       14.911522         2
         2         6         7         8     9        0.000000       -0.374022         3
         2         6         7         8     9      180.000000       -0.175954         4
         2         6         7        23     9        0.000000       -0.012063         1
         2         6         7        23     9      180.000000       12.353192         2
         2         6         7        23     9        0.000000       -0.334571         3
         2         6         7        23     9      180.000000        0.159369         4
         2         6        11        10     9        0.000000        0.014092         1
         2         6        11        10     9      180.000000       14.911522         2
         2         6        11        10     9        0.000000       -0.374022         3
         2         6        11        10     9      180.000000       -0.175954         4
         2         6        11        26     9        0.000000       -0.012063         1
         2         6        11        26     9      180.000000       12.353192         2
         2         6        11        26     9        0.000000       -0.334571         3
         2         6        11        26     9      180.000000        0.159369         4
         3         2         1        13     9        0.000000       -0.300141         1
         3         2         1        13     9      180.000000       36.657347         2
         3         2         1        13     9        0.000000       -0.456804         3
         3         2         1        13     9      180.000000       -1.058326         4
         3         2         6         7     9        0.000000       -0.004639         1
         3         2         6         7     9      180.000000        3.868209         2
         3         2         6         7     9        0.000000        0.168133         3
         3         2         6         7     9      180.000000       -0.299312         4
         3         2         6        11     9        0.000000       -0.004639         1
         3         2         6        11     9      180.000000        3.868209         2
         3         2         6        11     9        0.000000        0.168133         3
         3         2         6        11     9      180.000000       -0.299312         4
         3         4        14        13     9        0.000000        0.220335         1
         3         4        14        13     9      180.000000        4.094058         2
         3         4        14        13     9        0.000000        0.201096         3
         3         4        14        13     9      180.000000        0.075627         4
         3         4        14        15     9        0.000000       -0.584957         1
         3         4        14        15     9      180.000000        4.485619         2
         3         4        14        15     9        0.000000        0.328939         3
         3         4        14        15     9      180.000000        0.076435         4
         4         3         2         6     9        0.000000        0.307901         1
         4         3         2         6     9      180.000000        7.636536         2
         4         3         2         6     9        0.000000        0.225116         3
         4         3         2         6     9      180.000000       -0.365290         4
         4        14        13        18     9        0.000000        0.289952         1
         4        14        13        18     9      180.000000       11.593738         2
         4        14        13        18     9        0.000000       -0.274763         3
         4        14        13        18     9      180.000000       -0.205271         4
         4        14        15        16     9        0.000000        0.019041         1
         4        14        15        16     9      180.000000       13.384881         2
         4        14        15        16     9        0.000000       -0.510128         3
         4        14        15        16     9      180.000000       -0.061805         4
         4        14        15        27     9        0.000000        0.268841         1
         4        14        15        27     9      180.000000       11.082335         2
         4        14        15        27     9        0.000000       -0.404539         3
         4        14        15        27     9      180.000000        0.078755         4
         5         4         3        22     9        0.000000        0.198151         1
         5         4         3        22     9      180.000000       10.098620         2
         5         4         3        22     9        0.000000       -0.538536         3
         5         4         3        22     9      180.000000        0.234710         4
         5         4        14        13     9        0.000000       -0.106188         1
         5         4        14        13     9      180.000000        7.866821         2
         5         4        14        13     9        0.000000        0.100909         3
         5         4        14        13     9      180.000000       -0.416728         4
         5         4        14        15     9        0.000000       -1.015238         1
         5         4        14        15     9      180.000000        6.777803         2
         5         4        14        15     9        0.000000       -0.114011         3
         5         4        14        15     9      180.000000       -0.102946         4
         6         2         1        13     9        0.000000        0.683251         1
         6         2         1        13     9      180.000000       30.744513         2
         6         2         1        13     9        0.000000        1.366298         3
         6         2         1        13     9      180.000000       -1.281478         4
         6         2         3        22     9        0.000000       -0.489772         1
         6         2         3        22     9      180.000000        6.311140         2
         6         2         3        22     9        0.000000       -0.145705         3
         6         2         3        22     9      180.000000       -0.141797         4
         6         7         8         9     9        0.000000        0.012442         1
         6         7         8         9     9      180.000000       19.214394         2
         6         7         8         9     9        0.000000       -1.705376         3
         6         7         8         9     9      180.000000       -0.423527         4
         6         7         8        24     9        0.000000       -0.087026         1
         6         7         8        24     9      180.000000       15.159477         2
         6         7         8        24     9        0.000000       -0.489177         3
         6         7         8        24     9      180.000000        0.110683         4
         6        11        10         9     9        0.000000        0.012442         1
         6        11        10         9     9      180.000000       19.214394         2
         6        11        10         9     9        0.000000       -1.705376         3
         6        11        10         9     9      180.000000       -0.423527         4
         6        11        10        25     9        0.000000       -0.087026         1
         6        11        10        25     9      180.000000       15.159477         2
         6        11        10        25     9        0.000000       -0.489177         3
         6        11        10        25     9      180.000000        0.110683         4
         7         6        11        10     9        0.000000       -0.140792         1
         7         6        11        10     9      180.000000       18.098702         2
         7         6        11        10     9        0.000000       -1.504666         3
         7         6        11        10     9      180.000000       -0.354971         4
         7         6        11        26     9        0.000000       -0.074820         1
         7         6        11        26     9      180.000000       13.851562         2
         7         6        11        26     9        0.000000       -0.614433         3
         7         6        11        26     9      180.000000        0.082384         4
         7         8         9        10     9        0.000000       -0.042972         1
         7         8         9        10     9      180.000000       18.477503         2
         7         8         9        10     9        0.000000       -1.272072         3
         7         8         9        10     9      180.000000       -0.391601         4
         7         8         9        12     9        0.000000        0.147816         1
         7         8         9        12     9      180.000000       14.440361         2
         7         8         9        12     9        0.000000        0.055934         3
         7         8         9        12     9      180.000000       -0.212680         4
         8         7         6        11     9        0.000000       -0.140792         1
         8         7         6        11     9      180.000000       18.098702         2
         8         7         6        11     9        0.000000       -1.504666         3
         8         7         6        11     9      180.000000       -0.354971         4
         8         9        10        11     9        0.000000       -0.042972         1
         8         9        10        11     9      180.000000       18.477503         2
         8         9        10        11     9        0.000000       -1.272072         3
         8         9        10        11     9      180.000000       -0.391601         4
         8         9        10        25     9        0.000000       -0.075730         1
         8         9        10        25     9      180.000000       14.695739         2
         8         9        10        25     9        0.000000       -0.652199         3
         8         9        10        25     9      180.000000        0.036993         4
         8         9        12        19     9        0.000000       -0.012319         1
         8         9        12        19     9      180.000000        0.258053         2
         8         9        12        19     9        0.000000        0.012352         3
         8         9        12        19     9      180.000000        0.239082         4
         8         9        12        20     9        0.000000       -0.012319         1
         8         9        12        20     9      180.000000        0.258053         2
         8         9        12        20     9        0.000000        0.012352         3
         8         9        12        20     9      180.000000        0.239082         4
         8         9        12        21     9        0.000000       -0.012319         1
         8         9        12        21     9      180.000000        0.258054         2
         8         9        12        21     9        0.000000        0.012353         3
         8         9        12        21     9      180.000000        0.239082         4
         9         8         7        23     9        0.000000        0.006110         1
         9         8         7        23     9      180.000000       15.043180         2
         9         8         7        23     9        0.000000       -0.662379         3
         9         8         7        23     9      180.000000        0.134735         4
         9        10        11        26     9        0.000000        0.006110         1
         9        10        11        26     9      180.000000       15.043180         2
         9        10        11        26     9        0.000000       -0.662379         3
         9        10        11        26     9      180.000000        0.134735         4
         9        12        19        31     9        0.000000       -0.001526         1
         9        12        19        31     9      180.000000        0.021965         2
         9        12        19        31     9        0.000000        0.610542         3
         9        12        19        31     9      180.000000       -0.020185         4
         9        12        19        32     9        0.000000       -0.001526         1
         9        12        19        32     9      180.000000        0.021965         2
         9        12        19        32     9        0.000000        0.610542         3
         9        12        19        32     9      180.000000       -0.020185         4
         9        12        19        33     9        0.000000       -0.001526         1
         9        12        19        33     9      180.000000        0.021965         2
         9        12        19        33     9        0.000000        0.610542         3
         9        12        19        33     9      180.000000       -0.020185         4
         9        12        20        34     9        0.000000       -0.001526         1
         9        12        20        34     9      180.000000        0.021965         2
         9        12        20        34     9        0.000000        0.610542         3
         9        12        20        34     9      180.000000       -0.020185         4
         9        12        20        35     9        0.000000       -0.001526         1
         9        12        20        35     9      180.000000        0.021965         2
         9        12        20        35     9        0.000000        0.610542         3
         9        12        20        35     9      180.000000       -0.020185         4
         9        12        20        36     9        0.000000       -0.001526         1
         9        12        20        36     9      180.000000        0.021965         2
         9        12        20        36     9        0.000000        0.610542         3
         9        12        20        36     9      180.000000       -0.020185         4
         9        12        21        37     9        0.000000       -0.001526         1
         9        12        21        37     9      180.000000        0.021966         2
         9        12        21        37     9        0.000000        0.610542         3
         9        12        21        37     9      180.000000       -0.020185         4
         9        12        21        38     9        0.000000       -0.001526         1
         9        12        21        38     9      180.000000        0.021966         2
         9        12        21        38     9        0.000000        0.610542         3
         9        12        21        38     9      180.000000       -0.020185         4
         9        12        21        39     9        0.000000       -0.001526         1
         9        12        21        39     9      180.000000        0.021966         2
         9        12        21        39     9        0.000000        0.610542         3
         9        12        21        39     9      180.000000       -0.020185         4
        10         9         8        24     9        0.000000       -0.075730         1
        10         9         8        24     9      180.000000       14.695739         2
        10         9         8        24     9        0.000000       -0.652199         3
        10         9         8        24     9      180.000000        0.036993         4
        10         9        12        19     9        0.000000       -0.012319         1
        10         9        12        19     9      180.000000        0.258053         2
        10         9        12        19     9        0.000000        0.012352         3
        10         9        12        19     9      180.000000        0.239082         4
        10         9        12        20     9        0.000000       -0.012319         1
        10         9        12        20     9      180.000000        0.258053         2
        10         9        12        20     9        0.000000        0.012352         3
        10         9        12        20     9      180.000000        0.239082         4
        10         9        12        21     9        0.000000       -0.012319         1
        10         9        12        21     9      180.000000        0.258054         2
        10         9        12        21     9        0.000000        0.012353         3
        10         9        12        21     9      180.000000        0.239082         4
        11         6         7        23     9        0.000000       -0.074820         1
        11         6         7        23     9      180.000000       13.851562         2
        11         6         7        23     9        0.000000       -0.614433         3
        11         6         7        23     9      180.000000        0.082384         4
        11        10         9        12     9        0.000000        0.147816         1
        11        10         9        12     9      180.000000       14.440361         2
        11        10         9        12     9        0.000000        0.055934         3
        11        10         9        12     9      180.000000       -0.212680         4
        12         9         8        24     9        0.000000       -0.101898         1
        12         9         8        24     9      180.000000       12.867601         2
        12         9         8        24     9        0.000000       -0.245834         3
        12         9         8        24     9      180.000000        0.170121         4
        12         9        10        25     9        0.000000       -0.101898         1
        12         9        10        25     9      180.000000       12.867601         2
        12         9        10        25     9        0.000000       -0.245834         3
        12         9        10        25     9      180.000000        0.170121         4
        13        14        15        16     9        0.000000       -0.176600         1
        13        14        15        16     9      180.000000       16.997255         2
        13        14        15        16     9        0.000000       -1.232457         3
        13        14        15        16     9      180.000000       -0.311003         4
        13        14        15        27     9        0.000000        0.134954         1
        13        14        15        27     9      180.000000       12.208723         2
        13        14        15        27     9        0.000000       -0.297597         3
        13        14        15        27     9      180.000000       -0.008836         4
        13        18        17        16     9        0.000000       -0.117381         1
        13        18        17        16     9      180.000000       20.166805         2
        13        18        17        16     9        0.000000       -1.487676         3
        13        18        17        16     9      180.000000       -0.450959         4
        13        18        17        29     9        0.000000        0.055430         1
        13        18        17        29     9      180.000000       15.037386         2
        13        18        17        29     9        0.000000       -0.357502         3
        13        18        17        29     9      180.000000        0.081861         4
        14         4         3        22     9        0.000000       -0.716175         1
        14         4         3        22     9      180.000000        6.884415         2
        14         4         3        22     9        0.000000        0.068192         3
        14         4         3        22     9      180.000000       -0.082234         4
        14        13        18        17     9        0.000000       -0.164101         1
        14        13        18        17     9      180.000000       16.219350         2
        14        13        18        17     9        0.000000       -1.067678         3
        14        13        18        17     9      180.000000       -0.299604         4
        14        13        18        30     9        0.000000       -0.106901         1
        14        13        18        30     9      180.000000       12.210391         2
        14        13        18        30     9        0.000000       -0.299836         3
        14        13        18        30     9      180.000000        0.009301         4
        14        15        16        17     9        0.000000       -0.001434         1
        14        15        16        17     9      180.000000       19.599424         2
        14        15        16        17     9        0.000000       -1.612436         3
        14        15        16        17     9      180.000000       -0.350722         4
        14        15        16        28     9        0.000000        0.074375         1
        14        15        16        28     9      180.000000       15.259023         2
        14        15        16        28     9        0.000000       -0.365116         3
        14        15        16        28     9      180.000000        0.074873         4
        15        14        13        18     9        0.000000       -0.033888         1
        15        14        13        18     9      180.000000       12.966227         2
        15        14        13        18     9        0.000000       -0.919151         3
        15        14        13        18     9      180.000000       -0.145473         4
        15        16        17        18     9        0.000000        0.046494         1
        15        16        17        18     9      180.000000       17.170384         2
        15        16        17        18     9        0.000000       -1.474286         3
        15        16        17        18     9      180.000000       -0.340090         4
        15        16        17        29     9        0.000000        0.014248         1
        15        16        17        29     9      180.000000       13.678317         2
        15        16        17        29     9        0.000000       -0.619082         3
        15        16        17        29     9      180.000000        0.190177         4
        16        17        18        30     9        0.000000       -0.029634         1
        16        17        18        30     9      180.000000       15.559994         2
        16        17        18        30     9        0.000000       -0.569203         3
        16        17        18        30     9      180.000000        0.136581         4
        17        16        15        27     9        0.000000        0.050302         1
        17        16        15        27     9      180.000000       15.488710         2
        17        16        15        27     9        0.000000       -0.447523         3
        17        16        15        27     9      180.000000        0.160111         4
        18        17        16        28     9        0.000000        0.039673         1
        18        17        16        28     9      180.000000       13.571332         2
        18        17        16        28     9        0.000000       -0.585283         3
        18        17        16        28     9      180.000000        0.129095         4
        19        12        20        34     9        0.000000       -0.086644         1
        19        12        20        34     9      180.000000        0.035146         2
        19        12        20        34     9        0.000000        0.537983         3
        19        12        20        34     9      180.000000        0.036905         4
        19        12        20        35     9        0.000000       -0.086644         1
        19        12        20        35     9      180.000000        0.035146         2
        19        12        20        35     9        0.000000        0.537983         3
        19        12        20        35     9      180.000000        0.036905         4
        19        12        20        36     9        0.000000       -0.086644         1
        19        12        20        36     9      180.000000        0.035146         2
        19        12        20        36     9        0.000000        0.537983         3
        19        12        20        36     9      180.000000        0.036905         4
        19        12        21        37     9        0.000000       -0.086643         1
        19        12        21        37     9      180.000000        0.035145         2
        19        12        21        37     9        0.000000        0.537983         3
        19        12        21        37     9      180.000000        0.036905         4
        19        12        21        38     9        0.000000       -0.086643         1
        19        12        21        38     9      180.000000        0.035145         2
        19        12        21        38     9        0.000000        0.537983         3
        19        12        21        38     9      180.000000        0.036905         4
        19        12        21        39     9        0.000000       -0.086643         1
        19        12        21        39     9      180.000000        0.035145         2
        19        12        21        39     9        0.000000        0.537983         3
        19        12        21        39     9      180.000000        0.036905         4
        20        12        19        31     9        0.000000       -0.086644         1
        20        12        19        31     9      180.000000        0.035146         2
        20        12        19        31     9        0.000000        0.537983         3
        20        12        19        31     9      180.000000        0.036905         4
        20        12        19        32     9        0.000000       -0.086644         1
        20        12        19        32     9      180.000000        0.035146         2
        20        12        19        32     9        0.000000        0.537983         3
        20        12        19        32     9      180.000000        0.036905         4
        20        12        19        33     9        0.000000       -0.086644         1
        20        12        19        33     9      180.000000        0.035146         2
        20        12        19        33     9        0.000000        0.537983         3
        20        12        19        33     9      180.000000        0.036905         4
        20        12        21        37     9        0.000000       -0.086643         1
        20        12        21        37     9      180.000000        0.035145         2
        20        12        21        37     9        0.000000        0.537983         3
        20        12        21        37     9      180.000000        0.036905         4
        20        12        21        38     9        0.000000       -0.086643         1
        20        12        21        38     9      180.000000        0.035145         2
        20        12        21        38     9        0.000000        0.537983         3
        20        12        21        38     9      180.000000        0.036905         4
        20        12        21        39     9        0.000000       -0.086643         1
        20        12        21        39     9      180.000000        0.035145         2
        20        12        21        39     9        0.000000        0.537983         3
        20        12        21        39     9      180.000000        0.036905         4
        21        12        19        31     9        0.000000       -0.086644         1
        21        12        19        31     9      180.000000        0.035146         2
        21        12        19        31     9        0.000000        0.537983         3
        21        12        19        31     9      180.000000        0.036905         4
        21        12        19        32     9        0.000000       -0.086644         1
        21        12        19        32     9      180.000000        0.035146         2
        21        12        19        32     9        0.000000        0.537983         3
        21        12        19        32     9      180.000000        0.036905         4
        21        12        19        33     9        0.000000       -0.086644         1
        21        12        19        33     9      180.000000        0.035146         2
        21        12        19        33     9        0.000000        0.537983         3
        21        12        19        33     9      180.000000        0.036905         4
        21        12        20        34     9        0.000000       -0.086644         1
        21        12        20        34     9      180.000000        0.035146         2
        21        12        20        34     9        0.000000        0.537983         3
        21        12        20        34     9      180.000000        0.036905         4
        21        12        20        35     9        0.000000       -0.086644         1
        21        12        20        35     9      180.000000        0.035146         2
        21        12        20        35     9        0.000000        0.537983         3
        21        12        20        35     9      180.000000        0.036905         4
        21        12        20        36     9        0.000000       -0.086644         1
        21        12        20        36     9      180.000000        0.035146         2
        21        12        20        36     9        0.000000        0.537983         3
        21        12        20        36     9      180.000000        0.036905         4
        23         7         8        24     9        0.000000       -0.254517         1
        23         7         8        24     9      180.000000       12.113677         2
        23         7         8        24     9        0.000000       -0.843512         3
        23         7         8        24     9      180.000000        0.376048         4
        25        10        11        26     9        0.000000       -0.254517         1
        25        10        11        26     9      180.000000       12.113677         2
        25        10        11        26     9        0.000000       -0.843512         3
        25        10        11        26     9      180.000000        0.376048         4
        27        15        16        28     9        0.000000       -0.053942         1
        27        15        16        28     9      180.000000       12.272936         2
        27        15        16        28     9        0.000000       -0.638828         3
        27        15        16        28     9      180.000000        0.380131         4
        28        16        17        29     9        0.000000       -0.084417         1
        28        16        17        29     9      180.000000       10.901085         2
        28        16        17        29     9        0.000000       -0.494413         3
        28        16        17        29     9      180.000000        0.242564         4
        29        17        18        30     9        0.000000       -0.148473         1
        29        17        18        30     9      180.000000       12.428989         2
        29        17        18        30     9        0.000000       -0.651165         3
        29        17        18        30     9      180.000000        0.347740         4

[ dihedrals ] ; impropers
;       ai        aj        ak        al funct           phase               k        pn
         2         1         3         6     4      180.000000        9.044405         2
         2         3         6         1     4      180.000000        9.044405         2
         2         6         1         3     4      180.000000        9.044405         2
         4         3         5        14     4      180.000000       27.893333         2
         4         5        14         3     4      180.000000       27.893333         2
         4        14         3         5     4      180.000000       27.893333         2
        13         1        14        18     4      180.000000       14.308066         2
        13        14        18         1     4      180.000000       14.308066         2
        13        18         1        14     4      180.000000       14.308066         2

[ pairs ]
;       ai        aj funct
         1         4     1
         1         7     1
         1        11     1
         1        15     1
         1        17     1
         1        22     1
         1        30     1
         2         5     1
         2         8     1
         2        10     1
         2        14     1
         2        18     1
         2        23     1
         2        26     1
         3         7     1
         3        11     1
         3        13     1
         3        15     1
         4         6     1
         4        16     1
         4        18     1
         4        27     1
         5        13     1
         5        15     1
         5        22     1
         6         9     1
         6        13     1
         6        22     1
         6        24     1
         6        25     1
         7        10     1
         7        12     1
         7        26     1
         8        11     1
         8        19     1
         8        20     1
         8        21     1
         8        25     1
         9        23     1
         9        26     1
         9        31     1
         9        32     1
         9        33     1
         9        34     1
         9        35     1
         9        36     1
         9        37     1
         9        38     1
         9        39     1
        10        19     1
        10        20     1
        10        21     1
        10        24     1
        11        12     1
        11        23     1
        12        24     1
        12        25     1
        13        16     1
        13        27     1
        13        29     1
        14        17     1
        14        22     1
        14        28     1
        14        30     1
        15        18     1
        15        29     1
        16        30     1
        17        27     1
        18        28     1
        19        34     1
        19        35     1
        19        36     1
        19        37     1
        19        38     1
        19        39     1
        20        31     1
        20        32     1
        20        33     1
        20        37     1
        20        38     1
        20        39     1
        21        31     1
        21        32     1
        21        33     1
        21        34     1
        21        35     1
        21        36     1
        23        24     1
        25        26     1
        27        28     1
        28        29     1
        29        30     1
