; ITP file created by ByteFF-ML, 2026-02-21 07:51:34.442065

[ atomtypes ]
;name           bonded.type        at.num        mass        charge   ptype           sigma         epsilon
 c0bf                                   6      0.0000       0.00000       A     3.31455e-01     4.13249e-01
 c1bf                                   6      0.0000       0.00000       A     3.31523e-01     4.11353e-01
 c2bf                                   6      0.0000       0.00000       A     3.31479e-01     4.12720e-01
 c3bf                                   6      0.0000       0.00000       A     3.31511e-01     4.13551e-01
 n4bf                                   7      0.0000       0.00000       A     3.38268e-01     3.93530e-01
 c5bf                                   6      0.0000       0.00000       A     3.31550e-01     4.13468e-01
 c6bf                                   6      0.0000       0.00000       A     3.31389e-01     4.12244e-01
 c7bf                                   6      0.0000       0.00000       A     3.31443e-01     4.12902e-01
 n8bf                                   7      0.0000       0.00000       A     3.26530e-01     5.01306e-01
 o9bf                                   8      0.0000       0.00000       A     3.04637e-01     6.12097e-01
 c10bf                                  6      0.0000       0.00000       A     3.31680e-01     4.10852e-01
 c11bf                                  6      0.0000       0.00000       A     3.31390e-01     4.12402e-01
 c12bf                                  6      0.0000       0.00000       A     3.31495e-01     4.13143e-01
 c13bf                                  6      0.0000       0.00000       A     3.31509e-01     4.12579e-01
 c14bf                                  6      0.0000       0.00000       A     3.31432e-01     4.12788e-01
 c15bf                                  6      0.0000       0.00000       A     3.31509e-01     4.12579e-01
 c16bf                                  6      0.0000       0.00000       A     3.31495e-01     4.13143e-01
 f17bf                                  9      0.0000       0.00000       A     3.03363e-01     3.47616e-01
 c18bf                                  6      0.0000       0.00000       A     3.39877e-01     4.53925e-01
 c19bf                                  6      0.0000       0.00000       A     3.39773e-01     4.50258e-01
 c20bf                                  6      0.0000       0.00000       A     3.39773e-01     4.50258e-01
 c21bf                                  6      0.0000       0.00000       A     3.39773e-01     4.50258e-01
 h22bf                                  1      0.0000       0.00000       A     2.62502e-01     6.68785e-02
 h23bf                                  1      0.0000       0.00000       A     2.62526e-01     6.75760e-02
 h24bf                                  1      0.0000       0.00000       A     2.62554e-01     6.72616e-02
 h25bf                                  1      0.0000       0.00000       A     1.10472e-01     4.18202e-02
 h26bf                                  1      0.0000       0.00000       A     2.62492e-01     6.72312e-02
 h27bf                                  1      0.0000       0.00000       A     2.62576e-01     6.73924e-02
 h28bf                                  1      0.0000       0.00000       A     2.62576e-01     6.73924e-02
 h29bf                                  1      0.0000       0.00000       A     2.62492e-01     6.72312e-02
 h30bf                                  1      0.0000       0.00000       A     2.59968e-01     8.75795e-02
 h31bf                                  1      0.0000       0.00000       A     2.59968e-01     8.75795e-02
 h32bf                                  1      0.0000       0.00000       A     2.59968e-01     8.75795e-02
 h33bf                                  1      0.0000       0.00000       A     2.59968e-01     8.75795e-02
 h34bf                                  1      0.0000       0.00000       A     2.59968e-01     8.75795e-02
 h35bf                                  1      0.0000       0.00000       A     2.59968e-01     8.75795e-02
 h36bf                                  1      0.0000       0.00000       A     2.59968e-01     8.75795e-02
 h37bf                                  1      0.0000       0.00000       A     2.59968e-01     8.75795e-02
 h38bf                                  1      0.0000       0.00000       A     2.59968e-01     8.75795e-02

[ moleculetype ]
;name             nrexcl
 3b                    3

[ atoms ]
;       nr            type      resi   res      atom      cgnr      charge          mass ; qtot
         1            c0bf         1   UNL        c0         1    -0.07992       12.0110 ; qtot   -0.080
         2            c1bf         1   UNL        c1         2     0.17862       12.0110 ; qtot    0.099
         3            c2bf         1   UNL        c2         3    -0.10747       12.0110 ; qtot   -0.009
         4            c3bf         1   UNL        c3         4    -0.18463       12.0110 ; qtot   -0.193
         5            n4bf         1   UNL        n4         5    -0.62404       14.0070 ; qtot   -0.817
         6            c5bf         1   UNL        c5         6     0.14301       12.0110 ; qtot   -0.674
         7            c6bf         1   UNL        c6         7    -0.07487       12.0110 ; qtot   -0.749
         8            c7bf         1   UNL        c7         8     0.57197       12.0110 ; qtot   -0.177
         9            n8bf         1   UNL        n8         9    -0.42614       14.0070 ; qtot   -0.603
        10            o9bf         1   UNL        o9        10    -0.53280       15.9990 ; qtot   -1.136
        11           c10bf         1   UNL       c10        11     0.56268       12.0110 ; qtot   -0.574
        12           c11bf         1   UNL       c11        12    -0.16120       12.0110 ; qtot   -0.735
        13           c12bf         1   UNL       c12        13    -0.06320       12.0110 ; qtot   -0.798
        14           c13bf         1   UNL       c13        14    -0.11625       12.0110 ; qtot   -0.914
        15           c14bf         1   UNL       c14        15    -0.05580       12.0110 ; qtot   -0.970
        16           c15bf         1   UNL       c15        16    -0.11625       12.0110 ; qtot   -1.086
        17           c16bf         1   UNL       c16        17    -0.06320       12.0110 ; qtot   -1.149
        18           f17bf         1   UNL       f17        18    -0.17355       18.9980 ; qtot   -1.323
        19           c18bf         1   UNL       c18        19    -0.00226       12.0110 ; qtot   -1.325
        20           c19bf         1   UNL       c19        20    -0.08753       12.0110 ; qtot   -1.413
        21           c20bf         1   UNL       c20        21    -0.08753       12.0110 ; qtot   -1.500
        22           c21bf         1   UNL       c21        22    -0.08753       12.0110 ; qtot   -1.588
        23           h22bf         1   UNL       h22        23     0.14060        1.0080 ; qtot   -1.447
        24           h23bf         1   UNL       h23        24     0.13748        1.0080 ; qtot   -1.310
        25           h24bf         1   UNL       h24        25     0.15769        1.0080 ; qtot   -1.152
        26           h25bf         1   UNL       h25        26     0.33464        1.0080 ; qtot   -0.817
        27           h26bf         1   UNL       h26        27     0.12610        1.0080 ; qtot   -0.691
        28           h27bf         1   UNL       h27        28     0.11866        1.0080 ; qtot   -0.573
        29           h28bf         1   UNL       h28        29     0.11866        1.0080 ; qtot   -0.454
        30           h29bf         1   UNL       h29        30     0.12610        1.0080 ; qtot   -0.328
        31           h30bf         1   UNL       h30        31     0.03644        1.0080 ; qtot   -0.292
        32           h31bf         1   UNL       h31        32     0.03644        1.0080 ; qtot   -0.255
        33           h32bf         1   UNL       h32        33     0.03644        1.0080 ; qtot   -0.219
        34           h33bf         1   UNL       h33        34     0.03644        1.0080 ; qtot   -0.182
        35           h34bf         1   UNL       h34        35     0.03644        1.0080 ; qtot   -0.146
        36           h35bf         1   UNL       h35        36     0.03644        1.0080 ; qtot   -0.109
        37           h36bf         1   UNL       h36        37     0.03644        1.0080 ; qtot   -0.073
        38           h37bf         1   UNL       h37        38     0.03644        1.0080 ; qtot   -0.036
        39           h38bf         1   UNL       h38        39     0.03644        1.0080 ; qtot    0.000

[ bonds ]
;       ai        aj funct               r               k
         1         2     1        0.141242   282180.002246
         1         3     1        0.138654   340316.968262
         1        23     1        0.108500   324670.023828
         2         4     1        0.141626   264519.175830
         2         5     1        0.138695   253750.866309
         3         6     1        0.140538   281854.787158
         3        24     1        0.108501   324944.649902
         4         7     1        0.140519   295055.097754
         4         8     1        0.146855   200493.045947
         5        11     1        0.130004   426514.722949
         6         7     1        0.138110   324084.457910
         6        18     1        0.135532   291594.768359
         7        25     1        0.108412   327725.053760
         8         9     1        0.140209   208674.101538
         8        10     1        0.122840   610002.377930
         9        11     1        0.137908   255004.968213
         9        26     1        0.101480   412787.019971
        11        12     1        0.148032   204065.381104
        12        13     1        0.140443   290054.829590
        12        17     1        0.140443   290054.829590
        13        14     1        0.139351   326369.212012
        13        27     1        0.108522   320918.316016
        14        15     1        0.140446   281619.769141
        14        28     1        0.108538   319337.211426
        15        16     1        0.140446   281619.769141
        15        19     1        0.153409   164344.578125
        16        17     1        0.139351   326369.237549
        16        29     1        0.108538   319337.211426
        17        30     1        0.108522   320918.316016
        19        20     1        0.154424   170787.220532
        19        21     1        0.154424   170787.220532
        19        22     1        0.154424   170787.207764
        20        31     1        0.109415   298652.152832
        20        32     1        0.109415   298652.152832
        20        33     1        0.109415   298652.152832
        21        34     1        0.109415   298652.203906
        21        35     1        0.109415   298652.203906
        21        36     1        0.109415   298652.203906
        22        37     1        0.109415   298652.203906
        22        38     1        0.109415   298652.203906
        22        39     1        0.109415   298652.203906

[ angles ]
;       ai        aj        ak funct           theta             cth
         1         2         4     1      118.469994      611.724345
         1         2         5     1      118.535484      425.812657
         1         3         6     1      119.133240      685.589030
         1         3        24     1      121.615135      428.074032
         2         1         3     1      120.620567      694.497331
         2         1        23     1      118.197289      455.692703
         2         4         7     1      120.973595      716.910230
         2         4         8     1      119.041054      848.109683
         2         5        11     1      118.102127      316.933563
         3         1        23     1      121.101906      427.576696
         3         6         7     1      122.498901      617.579174
         3         6        18     1      117.991562      604.150677
         4         2         5     1      122.976463      728.567985
         4         7         6     1      118.185379      594.630379
         4         7        25     1      119.988426      417.862093
         4         8         9     1      112.829361      617.312503
         4         8        10     1      126.287453      458.326057
         5        11         9     1      122.649086      510.787707
         5        11        12     1      120.144737      397.378394
         6         3        24     1      119.244308      457.692354
         6         7        25     1      121.657227      423.525904
         7         4         8     1      119.717651      483.344029
         7         6        18     1      119.387344      492.734024
         8         9        11     1      124.979759      718.020009
         8         9        26     1      114.834351      511.166806
         9         8        10     1      120.490158      783.518034
         9        11        12     1      117.435585      653.950786
        11         9        26     1      120.328003      426.351937
        11        12        13     1      120.792114      546.468923
        11        12        17     1      120.792114      546.468923
        12        13        14     1      120.519409      677.142375
        12        13        27     1      119.876343      419.563566
        12        17        16     1      120.519409      677.142375
        12        17        30     1      119.876343      419.563566
        13        12        17     1      118.251160      554.320179
        13        14        15     1      121.411720      717.314036
        13        14        28     1      118.709679      436.606746
        14        13        27     1      119.525436      424.546208
        14        15        16     1      117.164719      643.858009
        14        15        19     1      121.437637      495.527944
        15        14        28     1      119.973557      405.629849
        15        16        17     1      121.411720      717.314036
        15        16        29     1      119.973557      405.629849
        15        19        20     1      110.274414      653.111445
        15        19        21     1      110.274414      653.111445
        15        19        22     1      110.274414      653.111445
        16        15        19     1      121.437637      495.527944
        16        17        30     1      119.525436      424.546208
        17        16        29     1      118.709679      436.606746
        19        20        31     1      111.041466      474.591696
        19        20        32     1      111.041466      474.591696
        19        20        33     1      111.041466      474.591696
        19        21        34     1      111.041466      474.591696
        19        21        35     1      111.041466      474.591696
        19        21        36     1      111.041466      474.591696
        19        22        37     1      111.041466      474.591696
        19        22        38     1      111.041466      474.591696
        19        22        39     1      111.041466      474.591696
        20        19        21     1      108.563232      558.929436
        20        19        22     1      108.563232      558.929436
        21        19        22     1      108.563232      558.929436
        31        20        32     1      107.887100      362.502141
        31        20        33     1      107.887100      362.502141
        32        20        33     1      107.887100      362.502141
        34        21        35     1      107.887100      362.502109
        34        21        36     1      107.887100      362.502109
        35        21        36     1      107.887100      362.502109
        37        22        38     1      107.887100      362.502109
        37        22        39     1      107.887100      362.502077
        38        22        39     1      107.887100      362.502109

[ dihedrals ] ; propers for gromacs 4.5 or higher, use funct 9
;       ai        aj        ak        al funct           phase               k        pn
         1         2         4         7     9        0.000000        0.014116         1
         1         2         4         7     9      180.000000       13.025916         2
         1         2         4         7     9        0.000000       -1.016227         3
         1         2         4         7     9      180.000000       -0.124746         4
         1         2         4         8     9        0.000000        0.278735         1
         1         2         4         8     9      180.000000       11.507690         2
         1         2         4         8     9        0.000000       -0.310180         3
         1         2         4         8     9      180.000000       -0.170338         4
         1         2         5        11     9        0.000000       -0.243089         1
         1         2         5        11     9      180.000000        7.066778         2
         1         2         5        11     9        0.000000        1.088329         3
         1         2         5        11     9      180.000000       -0.143681         4
         1         3         6         7     9        0.000000       -0.144327         1
         1         3         6         7     9      180.000000       15.664061         2
         1         3         6         7     9        0.000000       -1.119142         3
         1         3         6         7     9      180.000000       -0.231264         4
         1         3         6        18     9        0.000000        0.547841         1
         1         3         6        18     9      180.000000       21.137851         2
         1         3         6        18     9        0.000000        0.508525         3
         1         3         6        18     9      180.000000       -0.557490         4
         2         1         3         6     9        0.000000       -0.153190         1
         2         1         3         6     9      180.000000       20.309492         2
         2         1         3         6     9        0.000000       -1.394836         3
         2         1         3         6     9      180.000000       -0.494587         4
         2         1         3        24     9        0.000000        0.061904         1
         2         1         3        24     9      180.000000       15.252624         2
         2         1         3        24     9        0.000000       -0.382992         3
         2         1         3        24     9      180.000000        0.067840         4
         2         4         7         6     9        0.000000       -0.151816         1
         2         4         7         6     9      180.000000       17.431431         2
         2         4         7         6     9        0.000000       -1.292418         3
         2         4         7         6     9      180.000000       -0.270018         4
         2         4         7        25     9        0.000000        0.148686         1
         2         4         7        25     9      180.000000       12.257432         2
         2         4         7        25     9        0.000000       -0.338211         3
         2         4         7        25     9      180.000000        0.044436         4
         2         4         8         9     9        0.000000        0.173418         1
         2         4         8         9     9      180.000000        4.101547         2
         2         4         8         9     9        0.000000        0.212728         3
         2         4         8         9     9      180.000000        0.078310         4
         2         4         8        10     9        0.000000       -0.052563         1
         2         4         8        10     9      180.000000        7.922623         2
         2         4         8        10     9        0.000000        0.143609         3
         2         4         8        10     9      180.000000       -0.418474         4
         2         5        11         9     9        0.000000       -0.325405         1
         2         5        11         9     9      180.000000       36.740143         2
         2         5        11         9     9        0.000000       -0.417165         3
         2         5        11         9     9      180.000000       -1.076339         4
         2         5        11        12     9        0.000000        0.736470         1
         2         5        11        12     9      180.000000       30.768636         2
         2         5        11        12     9        0.000000        1.381561         3
         2         5        11        12     9      180.000000       -1.254034         4
         3         1         2         4     9        0.000000       -0.120942         1
         3         1         2         4     9      180.000000       16.339837         2
         3         1         2         4     9        0.000000       -1.070513         3
         3         1         2         4     9      180.000000       -0.308968         4
         3         1         2         5     9        0.000000        0.396286         1
         3         1         2         5     9      180.000000       16.611044         2
         3         1         2         5     9        0.000000        0.197530         3
         3         1         2         5     9      180.000000       -0.350107         4
         3         6         7         4     9        0.000000       -0.050637         1
         3         6         7         4     9      180.000000       17.894635         2
         3         6         7         4     9        0.000000       -1.077146         3
         3         6         7         4     9      180.000000       -0.421424         4
         3         6         7        25     9        0.000000        0.125035         1
         3         6         7        25     9      180.000000       13.539666         2
         3         6         7        25     9        0.000000       -0.353982         3
         3         6         7        25     9      180.000000        0.131342         4
         4         2         1        23     9        0.000000       -0.094085         1
         4         2         1        23     9      180.000000       12.498558         2
         4         2         1        23     9        0.000000       -0.299987         3
         4         2         1        23     9      180.000000       -0.003364         4
         4         2         5        11     9        0.000000        0.516837         1
         4         2         5        11     9      180.000000        5.669485         2
         4         2         5        11     9        0.000000        1.056609         3
         4         2         5        11     9      180.000000       -0.170265         4
         4         7         6        18     9        0.000000        0.273527         1
         4         7         6        18     9      180.000000       23.199506         2
         4         7         6        18     9        0.000000        0.571326         3
         4         7         6        18     9      180.000000       -0.779268         4
         4         8         9        11     9        0.000000       -0.318778         1
         4         8         9        11     9      180.000000        3.512049         2
         4         8         9        11     9        0.000000        0.161381         3
         4         8         9        11     9      180.000000        0.116764         4
         4         8         9        26     9        0.000000       -0.739572         1
         4         8         9        26     9      180.000000        6.985507         2
         4         8         9        26     9        0.000000        0.038341         3
         4         8         9        26     9      180.000000       -0.079136         4
         5         2         1        23     9        0.000000        0.216112         1
         5         2         1        23     9      180.000000       13.948925         2
         5         2         1        23     9        0.000000       -0.242494         3
         5         2         1        23     9      180.000000        0.095568         4
         5         2         4         7     9        0.000000        0.215899         1
         5         2         4         7     9      180.000000       13.778960         2
         5         2         4         7     9        0.000000       -0.064091         3
         5         2         4         7     9      180.000000       -0.219651         4
         5         2         4         8     9        0.000000        0.588874         1
         5         2         4         8     9      180.000000       12.206564         2
         5         2         4         8     9        0.000000        0.608649         3
         5         2         4         8     9      180.000000       -0.527140         4
         5        11         9         8     9        0.000000       -0.069284         1
         5        11         9         8     9      180.000000        7.200725         2
         5        11         9         8     9        0.000000        0.180142         3
         5        11         9         8     9      180.000000       -0.226268         4
         5        11         9        26     9        0.000000        1.385951         1
         5        11         9        26     9      180.000000        6.868330         2
         5        11         9        26     9        0.000000       -0.290598         3
         5        11         9        26     9      180.000000       -0.133254         4
         5        11        12        13     9        0.000000       -0.012889         1
         5        11        12        13     9      180.000000        3.736571         2
         5        11        12        13     9        0.000000       -0.052558         3
         5        11        12        13     9      180.000000       -0.056824         4
         5        11        12        17     9        0.000000       -0.012889         1
         5        11        12        17     9      180.000000        3.736571         2
         5        11        12        17     9        0.000000       -0.052558         3
         5        11        12        17     9      180.000000       -0.056824         4
         6         3         1        23     9        0.000000        0.051234         1
         6         3         1        23     9      180.000000       15.797575         2
         6         3         1        23     9        0.000000       -0.624662         3
         6         3         1        23     9      180.000000        0.136675         4
         6         7         4         8     9        0.000000        0.133589         1
         6         7         4         8     9      180.000000       14.055276         2
         6         7         4         8     9        0.000000       -0.217773         3
         6         7         4         8     9      180.000000       -0.238045         4
         7         4         8         9     9        0.000000       -0.215600         1
         7         4         8         9     9      180.000000        4.582441         2
         7         4         8         9     9        0.000000        0.346544         3
         7         4         8         9     9      180.000000        0.081039         4
         7         4         8        10     9        0.000000       -1.074103         1
         7         4         8        10     9      180.000000        6.486290         2
         7         4         8        10     9        0.000000       -0.078736         3
         7         4         8        10     9      180.000000       -0.049906         4
         7         6         3        24     9        0.000000       -0.005250         1
         7         6         3        24     9      180.000000       12.331273         2
         7         6         3        24     9        0.000000       -0.492858         3
         7         6         3        24     9      180.000000        0.109146         4
         8         4         7        25     9        0.000000        0.081035         1
         8         4         7        25     9      180.000000       10.990811         2
         8         4         7        25     9        0.000000       -0.361514         3
         8         4         7        25     9      180.000000        0.075766         4
         8         9        11        12     9        0.000000        0.325259         1
         8         9        11        12     9      180.000000        7.615467         2
         8         9        11        12     9        0.000000        0.228616         3
         8         9        11        12     9      180.000000       -0.360803         4
         9        11        12        13     9        0.000000       -0.004639         1
         9        11        12        13     9      180.000000        3.868209         2
         9        11        12        13     9        0.000000        0.168132         3
         9        11        12        13     9      180.000000       -0.299312         4
         9        11        12        17     9        0.000000       -0.004639         1
         9        11        12        17     9      180.000000        3.868209         2
         9        11        12        17     9        0.000000        0.168132         3
         9        11        12        17     9      180.000000       -0.299312         4
        10         8         9        11     9        0.000000       -0.496913         1
        10         8         9        11     9      180.000000        9.460009         2
        10         8         9        11     9        0.000000       -0.299086         3
        10         8         9        11     9      180.000000       -0.417326         4
        10         8         9        26     9        0.000000        0.204914         1
        10         8         9        26     9      180.000000       10.108021         2
        10         8         9        26     9        0.000000       -0.546979         3
        10         8         9        26     9      180.000000        0.236694         4
        11        12        13        14     9        0.000000        0.014092         1
        11        12        13        14     9      180.000000       14.911522         2
        11        12        13        14     9        0.000000       -0.374022         3
        11        12        13        14     9      180.000000       -0.175954         4
        11        12        13        27     9        0.000000       -0.012063         1
        11        12        13        27     9      180.000000       12.353190         2
        11        12        13        27     9        0.000000       -0.334570         3
        11        12        13        27     9      180.000000        0.159369         4
        11        12        17        16     9        0.000000        0.014092         1
        11        12        17        16     9      180.000000       14.911522         2
        11        12        17        16     9        0.000000       -0.374022         3
        11        12        17        16     9      180.000000       -0.175954         4
        11        12        17        30     9        0.000000       -0.012063         1
        11        12        17        30     9      180.000000       12.353190         2
        11        12        17        30     9        0.000000       -0.334570         3
        11        12        17        30     9      180.000000        0.159369         4
        12        11         9        26     9        0.000000       -0.489772         1
        12        11         9        26     9      180.000000        6.311139         2
        12        11         9        26     9        0.000000       -0.145705         3
        12        11         9        26     9      180.000000       -0.141797         4
        12        13        14        15     9        0.000000        0.012443         1
        12        13        14        15     9      180.000000       19.214394         2
        12        13        14        15     9        0.000000       -1.705376         3
        12        13        14        15     9      180.000000       -0.423527         4
        12        13        14        28     9        0.000000       -0.087027         1
        12        13        14        28     9      180.000000       15.159477         2
        12        13        14        28     9        0.000000       -0.489177         3
        12        13        14        28     9      180.000000        0.110683         4
        12        17        16        15     9        0.000000        0.012443         1
        12        17        16        15     9      180.000000       19.214394         2
        12        17        16        15     9        0.000000       -1.705376         3
        12        17        16        15     9      180.000000       -0.423527         4
        12        17        16        29     9        0.000000       -0.087027         1
        12        17        16        29     9      180.000000       15.159477         2
        12        17        16        29     9        0.000000       -0.489177         3
        12        17        16        29     9      180.000000        0.110683         4
        13        12        17        16     9        0.000000       -0.140792         1
        13        12        17        16     9      180.000000       18.098696         2
        13        12        17        16     9        0.000000       -1.504666         3
        13        12        17        16     9      180.000000       -0.354971         4
        13        12        17        30     9        0.000000       -0.074820         1
        13        12        17        30     9      180.000000       13.851558         2
        13        12        17        30     9        0.000000       -0.614433         3
        13        12        17        30     9      180.000000        0.082385         4
        13        14        15        16     9        0.000000       -0.042972         1
        13        14        15        16     9      180.000000       18.477503         2
        13        14        15        16     9        0.000000       -1.272072         3
        13        14        15        16     9      180.000000       -0.391601         4
        13        14        15        19     9        0.000000        0.147816         1
        13        14        15        19     9      180.000000       14.440361         2
        13        14        15        19     9        0.000000        0.055934         3
        13        14        15        19     9      180.000000       -0.212680         4
        14        13        12        17     9        0.000000       -0.140792         1
        14        13        12        17     9      180.000000       18.098696         2
        14        13        12        17     9        0.000000       -1.504666         3
        14        13        12        17     9      180.000000       -0.354971         4
        14        15        16        17     9        0.000000       -0.042972         1
        14        15        16        17     9      180.000000       18.477503         2
        14        15        16        17     9        0.000000       -1.272072         3
        14        15        16        17     9      180.000000       -0.391601         4
        14        15        16        29     9        0.000000       -0.075730         1
        14        15        16        29     9      180.000000       14.695739         2
        14        15        16        29     9        0.000000       -0.652199         3
        14        15        16        29     9      180.000000        0.036993         4
        14        15        19        20     9        0.000000       -0.012319         1
        14        15        19        20     9      180.000000        0.258053         2
        14        15        19        20     9        0.000000        0.012352         3
        14        15        19        20     9      180.000000        0.239082         4
        14        15        19        21     9        0.000000       -0.012319         1
        14        15        19        21     9      180.000000        0.258054         2
        14        15        19        21     9        0.000000        0.012353         3
        14        15        19        21     9      180.000000        0.239082         4
        14        15        19        22     9        0.000000       -0.012319         1
        14        15        19        22     9      180.000000        0.258054         2
        14        15        19        22     9        0.000000        0.012353         3
        14        15        19        22     9      180.000000        0.239082         4
        15        14        13        27     9        0.000000        0.006110         1
        15        14        13        27     9      180.000000       15.043180         2
        15        14        13        27     9        0.000000       -0.662379         3
        15        14        13        27     9      180.000000        0.134735         4
        15        16        17        30     9        0.000000        0.006110         1
        15        16        17        30     9      180.000000       15.043180         2
        15        16        17        30     9        0.000000       -0.662379         3
        15        16        17        30     9      180.000000        0.134735         4
        15        19        20        31     9        0.000000       -0.001526         1
        15        19        20        31     9      180.000000        0.021965         2
        15        19        20        31     9        0.000000        0.610542         3
        15        19        20        31     9      180.000000       -0.020185         4
        15        19        20        32     9        0.000000       -0.001526         1
        15        19        20        32     9      180.000000        0.021965         2
        15        19        20        32     9        0.000000        0.610542         3
        15        19        20        32     9      180.000000       -0.020185         4
        15        19        20        33     9        0.000000       -0.001526         1
        15        19        20        33     9      180.000000        0.021965         2
        15        19        20        33     9        0.000000        0.610542         3
        15        19        20        33     9      180.000000       -0.020185         4
        15        19        21        34     9        0.000000       -0.001526         1
        15        19        21        34     9      180.000000        0.021966         2
        15        19        21        34     9        0.000000        0.610542         3
        15        19        21        34     9      180.000000       -0.020185         4
        15        19        21        35     9        0.000000       -0.001526         1
        15        19        21        35     9      180.000000        0.021966         2
        15        19        21        35     9        0.000000        0.610542         3
        15        19        21        35     9      180.000000       -0.020185         4
        15        19        21        36     9        0.000000       -0.001526         1
        15        19        21        36     9      180.000000        0.021966         2
        15        19        21        36     9        0.000000        0.610542         3
        15        19        21        36     9      180.000000       -0.020185         4
        15        19        22        37     9        0.000000       -0.001526         1
        15        19        22        37     9      180.000000        0.021966         2
        15        19        22        37     9        0.000000        0.610542         3
        15        19        22        37     9      180.000000       -0.020185         4
        15        19        22        38     9        0.000000       -0.001526         1
        15        19        22        38     9      180.000000        0.021966         2
        15        19        22        38     9        0.000000        0.610542         3
        15        19        22        38     9      180.000000       -0.020185         4
        15        19        22        39     9        0.000000       -0.001526         1
        15        19        22        39     9      180.000000        0.021966         2
        15        19        22        39     9        0.000000        0.610542         3
        15        19        22        39     9      180.000000       -0.020185         4
        16        15        14        28     9        0.000000       -0.075730         1
        16        15        14        28     9      180.000000       14.695739         2
        16        15        14        28     9        0.000000       -0.652199         3
        16        15        14        28     9      180.000000        0.036993         4
        16        15        19        20     9        0.000000       -0.012319         1
        16        15        19        20     9      180.000000        0.258053         2
        16        15        19        20     9        0.000000        0.012352         3
        16        15        19        20     9      180.000000        0.239082         4
        16        15        19        21     9        0.000000       -0.012319         1
        16        15        19        21     9      180.000000        0.258054         2
        16        15        19        21     9        0.000000        0.012353         3
        16        15        19        21     9      180.000000        0.239082         4
        16        15        19        22     9        0.000000       -0.012319         1
        16        15        19        22     9      180.000000        0.258054         2
        16        15        19        22     9        0.000000        0.012353         3
        16        15        19        22     9      180.000000        0.239082         4
        17        12        13        27     9        0.000000       -0.074820         1
        17        12        13        27     9      180.000000       13.851558         2
        17        12        13        27     9        0.000000       -0.614433         3
        17        12        13        27     9      180.000000        0.082385         4
        17        16        15        19     9        0.000000        0.147816         1
        17        16        15        19     9      180.000000       14.440361         2
        17        16        15        19     9        0.000000        0.055934         3
        17        16        15        19     9      180.000000       -0.212680         4
        18         6         3        24     9        0.000000        0.258364         1
        18         6         3        24     9      180.000000       14.685376         2
        18         6         3        24     9        0.000000        0.207204         3
        18         6         3        24     9      180.000000        0.209778         4
        18         6         7        25     9        0.000000        0.241037         1
        18         6         7        25     9      180.000000       16.226538         2
        18         6         7        25     9        0.000000        0.331559         3
        18         6         7        25     9      180.000000        0.192073         4
        19        15        14        28     9        0.000000       -0.101898         1
        19        15        14        28     9      180.000000       12.867601         2
        19        15        14        28     9        0.000000       -0.245834         3
        19        15        14        28     9      180.000000        0.170121         4
        19        15        16        29     9        0.000000       -0.101898         1
        19        15        16        29     9      180.000000       12.867601         2
        19        15        16        29     9        0.000000       -0.245834         3
        19        15        16        29     9      180.000000        0.170121         4
        20        19        21        34     9        0.000000       -0.086643         1
        20        19        21        34     9      180.000000        0.035145         2
        20        19        21        34     9        0.000000        0.537983         3
        20        19        21        34     9      180.000000        0.036905         4
        20        19        21        35     9        0.000000       -0.086643         1
        20        19        21        35     9      180.000000        0.035145         2
        20        19        21        35     9        0.000000        0.537983         3
        20        19        21        35     9      180.000000        0.036905         4
        20        19        21        36     9        0.000000       -0.086643         1
        20        19        21        36     9      180.000000        0.035145         2
        20        19        21        36     9        0.000000        0.537983         3
        20        19        21        36     9      180.000000        0.036905         4
        20        19        22        37     9        0.000000       -0.086643         1
        20        19        22        37     9      180.000000        0.035145         2
        20        19        22        37     9        0.000000        0.537983         3
        20        19        22        37     9      180.000000        0.036905         4
        20        19        22        38     9        0.000000       -0.086643         1
        20        19        22        38     9      180.000000        0.035145         2
        20        19        22        38     9        0.000000        0.537983         3
        20        19        22        38     9      180.000000        0.036905         4
        20        19        22        39     9        0.000000       -0.086643         1
        20        19        22        39     9      180.000000        0.035145         2
        20        19        22        39     9        0.000000        0.537983         3
        20        19        22        39     9      180.000000        0.036905         4
        21        19        20        31     9        0.000000       -0.086644         1
        21        19        20        31     9      180.000000        0.035146         2
        21        19        20        31     9        0.000000        0.537983         3
        21        19        20        31     9      180.000000        0.036905         4
        21        19        20        32     9        0.000000       -0.086644         1
        21        19        20        32     9      180.000000        0.035146         2
        21        19        20        32     9        0.000000        0.537983         3
        21        19        20        32     9      180.000000        0.036905         4
        21        19        20        33     9        0.000000       -0.086644         1
        21        19        20        33     9      180.000000        0.035146         2
        21        19        20        33     9        0.000000        0.537983         3
        21        19        20        33     9      180.000000        0.036905         4
        21        19        22        37     9        0.000000       -0.086644         1
        21        19        22        37     9      180.000000        0.035146         2
        21        19        22        37     9        0.000000        0.537982         3
        21        19        22        37     9      180.000000        0.036905         4
        21        19        22        38     9        0.000000       -0.086644         1
        21        19        22        38     9      180.000000        0.035146         2
        21        19        22        38     9        0.000000        0.537982         3
        21        19        22        38     9      180.000000        0.036905         4
        21        19        22        39     9        0.000000       -0.086644         1
        21        19        22        39     9      180.000000        0.035146         2
        21        19        22        39     9        0.000000        0.537982         3
        21        19        22        39     9      180.000000        0.036905         4
        22        19        20        31     9        0.000000       -0.086644         1
        22        19        20        31     9      180.000000        0.035146         2
        22        19        20        31     9        0.000000        0.537983         3
        22        19        20        31     9      180.000000        0.036905         4
        22        19        20        32     9        0.000000       -0.086644         1
        22        19        20        32     9      180.000000        0.035146         2
        22        19        20        32     9        0.000000        0.537983         3
        22        19        20        32     9      180.000000        0.036905         4
        22        19        20        33     9        0.000000       -0.086644         1
        22        19        20        33     9      180.000000        0.035146         2
        22        19        20        33     9        0.000000        0.537983         3
        22        19        20        33     9      180.000000        0.036905         4
        22        19        21        34     9        0.000000       -0.086644         1
        22        19        21        34     9      180.000000        0.035146         2
        22        19        21        34     9        0.000000        0.537982         3
        22        19        21        34     9      180.000000        0.036905         4
        22        19        21        35     9        0.000000       -0.086644         1
        22        19        21        35     9      180.000000        0.035146         2
        22        19        21        35     9        0.000000        0.537982         3
        22        19        21        35     9      180.000000        0.036905         4
        22        19        21        36     9        0.000000       -0.086644         1
        22        19        21        36     9      180.000000        0.035146         2
        22        19        21        36     9        0.000000        0.537982         3
        22        19        21        36     9      180.000000        0.036905         4
        23         1         3        24     9        0.000000       -0.076803         1
        23         1         3        24     9      180.000000       12.500208         2
        23         1         3        24     9        0.000000       -0.749261         3
        23         1         3        24     9      180.000000        0.339153         4
        27        13        14        28     9        0.000000       -0.254517         1
        27        13        14        28     9      180.000000       12.113677         2
        27        13        14        28     9        0.000000       -0.843512         3
        27        13        14        28     9      180.000000        0.376048         4
        29        16        17        30     9        0.000000       -0.254517         1
        29        16        17        30     9      180.000000       12.113677         2
        29        16        17        30     9        0.000000       -0.843512         3
        29        16        17        30     9      180.000000        0.376048         4

[ dihedrals ] ; impropers
;       ai        aj        ak        al funct           phase               k        pn
         2         1         4         5     4      180.000000       12.826806         2
         2         4         5         1     4      180.000000       12.826806         2
         2         5         1         4     4      180.000000       12.826806         2
         8         4         9        10     4      180.000000       27.893333         2
         8         9        10         4     4      180.000000       27.893333         2
         8        10         4         9     4      180.000000       27.893333         2
        11         5         9        12     4      180.000000        9.044406         2
        11         9        12         5     4      180.000000        9.044406         2
        11        12         5         9     4      180.000000        9.044406         2

[ pairs ]
;       ai        aj funct
         1         7     1
         1         8     1
         1        11     1
         1        18     1
         2         6     1
         2         9     1
         2        10     1
         2        12     1
         2        24     1
         2        25     1
         3         4     1
         3         5     1
         3        25     1
         4        11     1
         4        18     1
         4        23     1
         4        26     1
         5         7     1
         5         8     1
         5        13     1
         5        17     1
         5        23     1
         5        26     1
         6         8     1
         6        23     1
         7         9     1
         7        10     1
         7        24     1
         8        12     1
         8        25     1
         9        13     1
         9        17     1
        10        11     1
        10        26     1
        11        14     1
        11        16     1
        11        27     1
        11        30     1
        12        15     1
        12        26     1
        12        28     1
        12        29     1
        13        16     1
        13        19     1
        13        30     1
        14        17     1
        14        20     1
        14        21     1
        14        22     1
        14        29     1
        15        27     1
        15        30     1
        15        31     1
        15        32     1
        15        33     1
        15        34     1
        15        35     1
        15        36     1
        15        37     1
        15        38     1
        15        39     1
        16        20     1
        16        21     1
        16        22     1
        16        28     1
        17        19     1
        17        27     1
        18        24     1
        18        25     1
        19        28     1
        19        29     1
        20        34     1
        20        35     1
        20        36     1
        20        37     1
        20        38     1
        20        39     1
        21        31     1
        21        32     1
        21        33     1
        21        37     1
        21        38     1
        21        39     1
        22        31     1
        22        32     1
        22        33     1
        22        34     1
        22        35     1
        22        36     1
        23        24     1
        27        28     1
        29        30     1
