; ITP file created by ByteFF-ML, 2026-02-21 07:52:03.640431

[ atomtypes ]
;name           bonded.type        at.num        mass        charge   ptype           sigma         epsilon
 c0bf                                   6      0.0000       0.00000       A     3.31447e-01     4.13125e-01
 c1bf                                   6      0.0000       0.00000       A     3.31412e-01     4.12273e-01
 c2bf                                   6      0.0000       0.00000       A     3.31468e-01     4.12617e-01
 c3bf                                   6      0.0000       0.00000       A     3.31470e-01     4.13931e-01
 n4bf                                   7      0.0000       0.00000       A     3.38344e-01     3.92443e-01
 c5bf                                   6      0.0000       0.00000       A     3.31506e-01     4.13160e-01
 c6bf                                   6      0.0000       0.00000       A     3.31560e-01     4.13345e-01
 c7bf                                   6      0.0000       0.00000       A     3.31452e-01     4.12351e-01
 n8bf                                   7      0.0000       0.00000       A     3.26643e-01     5.00976e-01
 o9bf                                   8      0.0000       0.00000       A     3.04723e-01     6.12705e-01
 c10bf                                  6      0.0000       0.00000       A     3.31680e-01     4.10852e-01
 c11bf                                  6      0.0000       0.00000       A     3.31390e-01     4.12402e-01
 c12bf                                  6      0.0000       0.00000       A     3.31454e-01     4.13104e-01
 c13bf                                  6      0.0000       0.00000       A     3.31511e-01     4.13146e-01
 c14bf                                  6      0.0000       0.00000       A     3.31413e-01     4.11794e-01
 c15bf                                  6      0.0000       0.00000       A     3.31511e-01     4.13146e-01
 c16bf                                  6      0.0000       0.00000       A     3.31454e-01     4.13104e-01
 c17bf                                  6      0.0000       0.00000       A     3.39703e-01     4.51565e-01
 o18bf                                  8      0.0000       0.00000       A     3.24486e-01     3.89155e-01
 c19bf                                  6      0.0000       0.00000       A     3.39812e-01     4.51155e-01
 c20bf                                  6      0.0000       0.00000       A     3.39812e-01     4.51155e-01
 f21bf                                  9      0.0000       0.00000       A     3.03460e-01     3.47734e-01
 h22bf                                  1      0.0000       0.00000       A     2.62555e-01     6.73589e-02
 h23bf                                  1      0.0000       0.00000       A     2.62468e-01     6.74866e-02
 h24bf                                  1      0.0000       0.00000       A     2.62533e-01     6.73382e-02
 h25bf                                  1      0.0000       0.00000       A     1.10472e-01     4.18202e-02
 h26bf                                  1      0.0000       0.00000       A     2.62492e-01     6.72312e-02
 h27bf                                  1      0.0000       0.00000       A     2.62543e-01     6.73669e-02
 h28bf                                  1      0.0000       0.00000       A     2.62543e-01     6.73669e-02
 h29bf                                  1      0.0000       0.00000       A     2.62492e-01     6.72312e-02
 h30bf                                  1      0.0000       0.00000       A     5.37114e-02     1.97753e-02
 h31bf                                  1      0.0000       0.00000       A     2.60029e-01     8.77503e-02
 h32bf                                  1      0.0000       0.00000       A     2.60029e-01     8.77503e-02
 h33bf                                  1      0.0000       0.00000       A     2.60029e-01     8.77503e-02
 h34bf                                  1      0.0000       0.00000       A     2.60029e-01     8.77503e-02
 h35bf                                  1      0.0000       0.00000       A     2.60029e-01     8.77503e-02
 h36bf                                  1      0.0000       0.00000       A     2.60029e-01     8.77503e-02

[ moleculetype ]
;name             nrexcl
 5b                    3

[ atoms ]
;       nr            type      resi   res      atom      cgnr      charge          mass ; qtot
         1            c0bf         1   UNL        c0         1    -0.12639       12.0110 ; qtot   -0.126
         2            c1bf         1   UNL        c1         2     0.21850       12.0110 ; qtot    0.092
         3            c2bf         1   UNL        c2         3    -0.04614       12.0110 ; qtot    0.046
         4            c3bf         1   UNL        c3         4    -0.25259       12.0110 ; qtot   -0.207
         5            n4bf         1   UNL        n4         5    -0.62719       14.0070 ; qtot   -0.834
         6            c5bf         1   UNL        c5         6    -0.17923       12.0110 ; qtot   -1.013
         7            c6bf         1   UNL        c6         7     0.23980       12.0110 ; qtot   -0.773
         8            c7bf         1   UNL        c7         8     0.58614       12.0110 ; qtot   -0.187
         9            n8bf         1   UNL        n8         9    -0.42823       14.0070 ; qtot   -0.615
        10            o9bf         1   UNL        o9        10    -0.52021       15.9990 ; qtot   -1.136
        11           c10bf         1   UNL       c10        11     0.56923       12.0110 ; qtot   -0.566
        12           c11bf         1   UNL       c11        12    -0.15847       12.0110 ; qtot   -0.725
        13           c12bf         1   UNL       c12        13    -0.06622       12.0110 ; qtot   -0.791
        14           c13bf         1   UNL       c13        14    -0.10147       12.0110 ; qtot   -0.892
        15           c14bf         1   UNL       c14        15    -0.09419       12.0110 ; qtot   -0.987
        16           c15bf         1   UNL       c15        16    -0.10147       12.0110 ; qtot   -1.088
        17           c16bf         1   UNL       c16        17    -0.06622       12.0110 ; qtot   -1.154
        18           c17bf         1   UNL       c17        18     0.22590       12.0110 ; qtot   -0.928
        19           o18bf         1   UNL       o18        19    -0.66653       15.9990 ; qtot   -1.595
        20           c19bf         1   UNL       c19        20    -0.10406       12.0110 ; qtot   -1.699
        21           c20bf         1   UNL       c20        21    -0.10406       12.0110 ; qtot   -1.803
        22           f21bf         1   UNL       f21        22    -0.14791       18.9980 ; qtot   -1.951
        23           h22bf         1   UNL       h22        23     0.13918        1.0080 ; qtot   -1.812
        24           h23bf         1   UNL       h23        24     0.12465        1.0080 ; qtot   -1.687
        25           h24bf         1   UNL       h24        25     0.13934        1.0080 ; qtot   -1.548
        26           h25bf         1   UNL       h25        26     0.33435        1.0080 ; qtot   -1.213
        27           h26bf         1   UNL       h26        27     0.12685        1.0080 ; qtot   -1.087
        28           h27bf         1   UNL       h27        28     0.12301        1.0080 ; qtot   -0.964
        29           h28bf         1   UNL       h28        29     0.12301        1.0080 ; qtot   -0.841
        30           h29bf         1   UNL       h29        30     0.12685        1.0080 ; qtot   -0.714
        31           h30bf         1   UNL       h30        31     0.44306        1.0080 ; qtot   -0.271
        32           h31bf         1   UNL       h31        32     0.04512        1.0080 ; qtot   -0.226
        33           h32bf         1   UNL       h32        33     0.04512        1.0080 ; qtot   -0.180
        34           h33bf         1   UNL       h33        34     0.04512        1.0080 ; qtot   -0.135
        35           h34bf         1   UNL       h34        35     0.04512        1.0080 ; qtot   -0.090
        36           h35bf         1   UNL       h35        36     0.04512        1.0080 ; qtot   -0.045
        37           h36bf         1   UNL       h36        37     0.04511        1.0080 ; qtot    0.000

[ bonds ]
;       ai        aj funct               r               k
         1         2     1        0.140982   285637.675781
         1         3     1        0.138727   336446.155371
         1        23     1        0.108466   325303.037695
         2         4     1        0.142303   253920.024121
         2         5     1        0.138669   253516.256885
         3         6     1        0.140738   296042.081494
         3        24     1        0.108578   321779.989160
         4         7     1        0.140924   269386.523340
         4         8     1        0.147003   194615.922827
         5        11     1        0.130037   424684.989062
         6         7     1        0.138508   319209.449268
         6        25     1        0.108441   325835.231055
         7        22     1        0.134384   308449.005176
         8         9     1        0.140979   194759.517993
         8        10     1        0.122656   615561.040527
         9        11     1        0.137656   260398.482324
         9        26     1        0.101484   412659.819629
        11        12     1        0.148032   204065.381104
        12        13     1        0.140471   289559.026611
        12        17     1        0.140471   289559.026611
        13        14     1        0.139386   326214.584814
        13        27     1        0.108506   321458.476953
        14        15     1        0.140255   285418.312012
        14        28     1        0.108556   319655.914551
        15        16     1        0.140255   285418.312012
        15        18     1        0.153061   167064.459033
        16        17     1        0.139386   326214.584814
        16        29     1        0.108556   319655.914551
        17        30     1        0.108506   321458.502490
        18        19     1        0.144382   176998.969165
        18        20     1        0.153644   175656.419482
        18        21     1        0.153644   175656.419482
        19        31     1        0.097079   466958.149512
        20        32     1        0.109340   302095.806494
        20        33     1        0.109340   302095.806494
        20        34     1        0.109340   302095.806494
        21        35     1        0.109340   302095.806494
        21        36     1        0.109340   302095.806494
        21        37     1        0.109340   302095.806494

[ angles ]
;       ai        aj        ak funct           theta             cth
         1         2         4     1      119.532372      606.652292
         1         2         5     1      117.634201      433.623086
         1         3         6     1      120.952599      712.556855
         1         3        24     1      119.890381      435.263686
         2         1         3     1      120.135056      681.694812
         2         1        23     1      118.065575      459.099193
         2         4         7     1      117.880226      790.624756
         2         4         8     1      119.120407      918.121584
         2         5        11     1      118.285011      322.178406
         3         1        23     1      121.719803      432.767848
         3         6         7     1      119.009598      688.098880
         3         6        25     1      121.620872      438.731114
         4         2         5     1      123.008202      717.769363
         4         7         6     1      122.109756      565.767699
         4         7        22     1      120.271713      546.030387
         4         8         9     1      112.550499      657.434366
         4         8        10     1      127.882584      488.629764
         5        11         9     1      122.561447      518.593508
         5        11        12     1      120.128113      399.645100
         6         3        24     1      119.177246      445.013243
         6         7        22     1      117.669861      538.513922
         7         4         8     1      122.582298      850.476271
         7         6        25     1      119.311867      447.097933
         8         9        11     1      125.448746      690.155831
         8         9        26     1      114.194664      523.396432
         9         8        10     1      119.287170      787.031749
         9        11        12     1      117.597794      654.346866
        11         9        26     1      120.356529      427.608650
        11        12        13     1      120.681503      548.326428
        11        12        17     1      120.681503      548.326428
        12        13        14     1      120.499977      679.153103
        12        13        27     1      119.853783      419.505789
        12        17        16     1      120.499977      679.153103
        12        17        30     1      119.853783      419.505789
        13        12        17     1      118.451012      558.728842
        13        14        15     1      120.933960      722.975294
        13        14        28     1      119.310745      430.952351
        14        13        27     1      119.619583      424.105278
        14        15        16     1      118.030006      644.246429
        14        15        18     1      120.914795      498.155808
        15        14        28     1      119.809998      401.303639
        15        16        17     1      120.933960      722.975294
        15        16        29     1      119.809998      401.303671
        15        18        19     1      108.993263      692.794836
        15        18        20     1      110.967125      628.055391
        15        18        21     1      110.967125      628.055391
        16        15        18     1      120.914795      498.155808
        16        17        30     1      119.619583      424.105214
        17        16        29     1      119.310730      430.952351
        18        19        31     1      107.614967      572.046955
        18        20        32     1      110.548935      458.224962
        18        20        33     1      110.548935      458.224962
        18        20        34     1      110.548935      458.224962
        18        21        35     1      110.548935      458.224962
        18        21        36     1      110.548935      458.224962
        18        21        37     1      110.548935      458.224962
        19        18        20     1      107.278610      609.475994
        19        18        21     1      107.278610      609.475994
        20        18        21     1      110.435745      551.993621
        32        20        33     1      108.447632      360.423356
        32        20        34     1      108.447632      360.423356
        33        20        34     1      108.447632      360.423356
        35        21        36     1      108.447632      360.423356
        35        21        37     1      108.447632      360.423356
        36        21        37     1      108.447632      360.423356

[ dihedrals ] ; propers for gromacs 4.5 or higher, use funct 9
;       ai        aj        ak        al funct           phase               k        pn
         1         2         4         7     9        0.000000        0.064137         1
         1         2         4         7     9      180.000000       12.287472         2
         1         2         4         7     9        0.000000       -0.652434         3
         1         2         4         7     9      180.000000       -0.138320         4
         1         2         4         8     9        0.000000        0.448496         1
         1         2         4         8     9      180.000000       10.509784         2
         1         2         4         8     9        0.000000       -0.132916         3
         1         2         4         8     9      180.000000       -0.177464         4
         1         2         5        11     9        0.000000        0.062175         1
         1         2         5        11     9      180.000000        7.113250         2
         1         2         5        11     9        0.000000        1.060605         3
         1         2         5        11     9      180.000000       -0.170434         4
         1         3         6         7     9        0.000000       -0.085085         1
         1         3         6         7     9      180.000000       17.139682         2
         1         3         6         7     9        0.000000       -1.605527         3
         1         3         6         7     9      180.000000       -0.384466         4
         1         3         6        25     9        0.000000        0.085138         1
         1         3         6        25     9      180.000000       13.320551         2
         1         3         6        25     9        0.000000       -0.560241         3
         1         3         6        25     9      180.000000        0.140255         4
         2         1         3         6     9        0.000000       -0.074279         1
         2         1         3         6     9      180.000000       19.904056         2
         2         1         3         6     9        0.000000       -1.571713         3
         2         1         3         6     9      180.000000       -0.462722         4
         2         1         3        24     9        0.000000        0.070628         1
         2         1         3        24     9      180.000000       14.881069         2
         2         1         3        24     9        0.000000       -0.398294         3
         2         1         3        24     9      180.000000        0.044367         4
         2         4         7         6     9        0.000000       -0.023911         1
         2         4         7         6     9      180.000000       12.960285         2
         2         4         7         6     9        0.000000       -0.965518         3
         2         4         7         6     9      180.000000       -0.096775         4
         2         4         7        22     9        0.000000        0.936570         1
         2         4         7        22     9      180.000000       17.385963         2
         2         4         7        22     9        0.000000        0.845750         3
         2         4         7        22     9      180.000000       -0.607760         4
         2         4         8         9     9        0.000000        0.578533         1
         2         4         8         9     9      180.000000        2.458407         2
         2         4         8         9     9        0.000000        0.225057         3
         2         4         8         9     9      180.000000        0.053548         4
         2         4         8        10     9        0.000000        0.042109         1
         2         4         8        10     9      180.000000        6.771084         2
         2         4         8        10     9        0.000000        0.079485         3
         2         4         8        10     9      180.000000       -0.426817         4
         2         5        11         9     9        0.000000       -0.280955         1
         2         5        11         9     9      180.000000       35.908986         2
         2         5        11         9     9        0.000000       -0.391189         3
         2         5        11         9     9      180.000000       -1.027540         4
         2         5        11        12     9        0.000000        0.709859         1
         2         5        11        12     9      180.000000       30.079838         2
         2         5        11        12     9        0.000000        1.419715         3
         2         5        11        12     9      180.000000       -1.225520         4
         3         1         2         4     9        0.000000       -0.050800         1
         3         1         2         4     9      180.000000       16.391311         2
         3         1         2         4     9        0.000000       -1.014058         3
         3         1         2         4     9      180.000000       -0.350779         4
         3         1         2         5     9        0.000000        0.624483         1
         3         1         2         5     9      180.000000       16.957874         2
         3         1         2         5     9        0.000000        0.343400         3
         3         1         2         5     9      180.000000       -0.439716         4
         3         6         7         4     9        0.000000       -0.126014         1
         3         6         7         4     9      180.000000       17.958439         2
         3         6         7         4     9        0.000000       -1.328449         3
         3         6         7         4     9      180.000000       -0.399940         4
         3         6         7        22     9        0.000000        0.447677         1
         3         6         7        22     9      180.000000       24.353405         2
         3         6         7        22     9        0.000000        0.498952         3
         3         6         7        22     9      180.000000       -0.626809         4
         4         2         1        23     9        0.000000       -0.077390         1
         4         2         1        23     9      180.000000       12.149544         2
         4         2         1        23     9        0.000000       -0.278905         3
         4         2         1        23     9      180.000000       -0.008471         4
         4         2         5        11     9        0.000000        0.782087         1
         4         2         5        11     9      180.000000        6.419974         2
         4         2         5        11     9        0.000000        1.027928         3
         4         2         5        11     9      180.000000       -0.163733         4
         4         7         6        25     9        0.000000       -0.111541         1
         4         7         6        25     9      180.000000       13.654456         2
         4         7         6        25     9        0.000000       -0.505729         3
         4         7         6        25     9      180.000000        0.081444         4
         4         8         9        11     9        0.000000       -0.472790         1
         4         8         9        11     9      180.000000        2.275842         2
         4         8         9        11     9        0.000000        0.093914         3
         4         8         9        11     9      180.000000        0.130245         4
         4         8         9        26     9        0.000000       -0.788544         1
         4         8         9        26     9      180.000000        6.787108         2
         4         8         9        26     9        0.000000        0.017745         3
         4         8         9        26     9      180.000000       -0.248183         4
         5         2         1        23     9        0.000000        0.153929         1
         5         2         1        23     9      180.000000       14.371064         2
         5         2         1        23     9        0.000000       -0.205912         3
         5         2         1        23     9      180.000000       -0.004267         4
         5         2         4         7     9        0.000000        0.497006         1
         5         2         4         7     9      180.000000       12.447923         2
         5         2         4         7     9        0.000000        0.283848         3
         5         2         4         7     9      180.000000       -0.324282         4
         5         2         4         8     9        0.000000        0.958718         1
         5         2         4         8     9      180.000000       10.527189         2
         5         2         4         8     9        0.000000        0.696172         3
         5         2         4         8     9      180.000000       -0.405955         4
         5        11         9         8     9        0.000000       -0.094634         1
         5        11         9         8     9      180.000000        7.376119         2
         5        11         9         8     9        0.000000        0.192125         3
         5        11         9         8     9      180.000000       -0.234377         4
         5        11         9        26     9        0.000000        1.448956         1
         5        11         9        26     9      180.000000        7.014741         2
         5        11         9        26     9        0.000000       -0.326683         3
         5        11         9        26     9      180.000000       -0.117950         4
         5        11        12        13     9        0.000000        0.023594         1
         5        11        12        13     9      180.000000        3.748413         2
         5        11        12        13     9        0.000000       -0.047204         3
         5        11        12        13     9      180.000000       -0.055851         4
         5        11        12        17     9        0.000000        0.023594         1
         5        11        12        17     9      180.000000        3.748413         2
         5        11        12        17     9        0.000000       -0.047204         3
         5        11        12        17     9      180.000000       -0.055851         4
         6         3         1        23     9        0.000000       -0.007948         1
         6         3         1        23     9      180.000000       15.620980         2
         6         3         1        23     9        0.000000       -0.593446         3
         6         3         1        23     9      180.000000        0.101238         4
         6         7         4         8     9        0.000000       -0.025396         1
         6         7         4         8     9      180.000000        9.977074         2
         6         7         4         8     9        0.000000       -0.221221         3
         6         7         4         8     9      180.000000       -0.039287         4
         7         4         8         9     9        0.000000       -0.866048         1
         7         4         8         9     9      180.000000        2.798983         2
         7         4         8         9     9        0.000000        0.199436         3
         7         4         8         9     9      180.000000       -0.014544         4
         7         4         8        10     9        0.000000       -1.708264         1
         7         4         8        10     9      180.000000        5.688102         2
         7         4         8        10     9        0.000000       -0.129386         3
         7         4         8        10     9      180.000000       -0.322048         4
         7         6         3        24     9        0.000000        0.078667         1
         7         6         3        24     9      180.000000       13.667200         2
         7         6         3        24     9        0.000000       -0.604747         3
         7         6         3        24     9      180.000000        0.113179         4
         8         4         7        22     9        0.000000        0.450635         1
         8         4         7        22     9      180.000000       13.433809         2
         8         4         7        22     9        0.000000        0.593515         3
         8         4         7        22     9      180.000000       -0.320387         4
         8         9        11        12     9        0.000000        0.227678         1
         8         9        11        12     9      180.000000        7.745386         2
         8         9        11        12     9        0.000000        0.195589         3
         8         9        11        12     9      180.000000       -0.359353         4
         9        11        12        13     9        0.000000        0.025559         1
         9        11        12        13     9      180.000000        3.837186         2
         9        11        12        13     9        0.000000        0.178803         3
         9        11        12        13     9      180.000000       -0.320307         4
         9        11        12        17     9        0.000000        0.025559         1
         9        11        12        17     9      180.000000        3.837186         2
         9        11        12        17     9        0.000000        0.178803         3
         9        11        12        17     9      180.000000       -0.320307         4
        10         8         9        11     9        0.000000       -0.037744         1
        10         8         9        11     9      180.000000        9.198989         2
        10         8         9        11     9        0.000000       -0.348735         3
        10         8         9        11     9      180.000000       -0.406445         4
        10         8         9        26     9        0.000000        0.233066         1
        10         8         9        26     9      180.000000       10.257752         2
        10         8         9        26     9        0.000000       -0.652529         3
        10         8         9        26     9      180.000000        0.217430         4
        11        12        13        14     9        0.000000        0.049032         1
        11        12        13        14     9      180.000000       14.913803         2
        11        12        13        14     9        0.000000       -0.374008         3
        11        12        13        14     9      180.000000       -0.175342         4
        11        12        13        27     9        0.000000       -0.022072         1
        11        12        13        27     9      180.000000       12.369898         2
        11        12        13        27     9        0.000000       -0.344720         3
        11        12        13        27     9      180.000000        0.164104         4
        11        12        17        16     9        0.000000        0.049032         1
        11        12        17        16     9      180.000000       14.913803         2
        11        12        17        16     9        0.000000       -0.374008         3
        11        12        17        16     9      180.000000       -0.175342         4
        11        12        17        30     9        0.000000       -0.022072         1
        11        12        17        30     9      180.000000       12.369899         2
        11        12        17        30     9        0.000000       -0.344721         3
        11        12        17        30     9      180.000000        0.164104         4
        12        11         9        26     9        0.000000       -0.479194         1
        12        11         9        26     9      180.000000        6.395546         2
        12        11         9        26     9        0.000000       -0.138074         3
        12        11         9        26     9      180.000000       -0.143805         4
        12        13        14        15     9        0.000000       -0.029852         1
        12        13        14        15     9      180.000000       19.279119         2
        12        13        14        15     9        0.000000       -1.746203         3
        12        13        14        15     9      180.000000       -0.394485         4
        12        13        14        28     9        0.000000       -0.089815         1
        12        13        14        28     9      180.000000       15.139981         2
        12        13        14        28     9        0.000000       -0.484184         3
        12        13        14        28     9      180.000000        0.126791         4
        12        17        16        15     9        0.000000       -0.029852         1
        12        17        16        15     9      180.000000       19.279119         2
        12        17        16        15     9        0.000000       -1.746203         3
        12        17        16        15     9      180.000000       -0.394485         4
        12        17        16        29     9        0.000000       -0.089816         1
        12        17        16        29     9      180.000000       15.139981         2
        12        17        16        29     9        0.000000       -0.484184         3
        12        17        16        29     9      180.000000        0.126791         4
        13        12        17        16     9        0.000000       -0.120070         1
        13        12        17        16     9      180.000000       18.086734         2
        13        12        17        16     9        0.000000       -1.494844         3
        13        12        17        16     9      180.000000       -0.364611         4
        13        12        17        30     9        0.000000       -0.074437         1
        13        12        17        30     9      180.000000       13.866631         2
        13        12        17        30     9        0.000000       -0.616165         3
        13        12        17        30     9      180.000000        0.084716         4
        13        14        15        16     9        0.000000       -0.044566         1
        13        14        15        16     9      180.000000       18.663695         2
        13        14        15        16     9        0.000000       -1.272081         3
        13        14        15        16     9      180.000000       -0.423270         4
        13        14        15        18     9        0.000000        0.101251         1
        13        14        15        18     9      180.000000       14.310310         2
        13        14        15        18     9        0.000000       -0.089938         3
        13        14        15        18     9      180.000000       -0.134185         4
        14        13        12        17     9        0.000000       -0.120070         1
        14        13        12        17     9      180.000000       18.086734         2
        14        13        12        17     9        0.000000       -1.494844         3
        14        13        12        17     9      180.000000       -0.364611         4
        14        15        16        17     9        0.000000       -0.044566         1
        14        15        16        17     9      180.000000       18.663695         2
        14        15        16        17     9        0.000000       -1.272081         3
        14        15        16        17     9      180.000000       -0.423270         4
        14        15        16        29     9        0.000000       -0.032101         1
        14        15        16        29     9      180.000000       14.870907         2
        14        15        16        29     9        0.000000       -0.644491         3
        14        15        16        29     9      180.000000        0.032834         4
        14        15        18        19     9        0.000000        0.073774         1
        14        15        18        19     9      180.000000        0.989723         2
        14        15        18        19     9        0.000000        0.067884         3
        14        15        18        19     9      180.000000        0.132387         4
        14        15        18        20     9        0.000000        0.038083         1
        14        15        18        20     9      180.000000        0.245516         2
        14        15        18        20     9        0.000000        0.051921         3
        14        15        18        20     9      180.000000        0.164157         4
        14        15        18        21     9        0.000000        0.038083         1
        14        15        18        21     9      180.000000        0.245516         2
        14        15        18        21     9        0.000000        0.051921         3
        14        15        18        21     9      180.000000        0.164157         4
        15        14        13        27     9        0.000000        0.014394         1
        15        14        13        27     9      180.000000       15.258784         2
        15        14        13        27     9        0.000000       -0.668963         3
        15        14        13        27     9      180.000000        0.129899         4
        15        16        17        30     9        0.000000        0.014395         1
        15        16        17        30     9      180.000000       15.258780         2
        15        16        17        30     9        0.000000       -0.668963         3
        15        16        17        30     9      180.000000        0.129900         4
        15        18        19        31     9        0.000000        2.043549         1
        15        18        19        31     9      180.000000       -0.635021         2
        15        18        19        31     9        0.000000        0.964895         3
        15        18        19        31     9      180.000000        0.005137         4
        15        18        20        32     9        0.000000       -0.061558         1
        15        18        20        32     9      180.000000        0.025199         2
        15        18        20        32     9        0.000000        0.622302         3
        15        18        20        32     9      180.000000        0.008500         4
        15        18        20        33     9        0.000000       -0.061558         1
        15        18        20        33     9      180.000000        0.025199         2
        15        18        20        33     9        0.000000        0.622302         3
        15        18        20        33     9      180.000000        0.008500         4
        15        18        20        34     9        0.000000       -0.061558         1
        15        18        20        34     9      180.000000        0.025199         2
        15        18        20        34     9        0.000000        0.622302         3
        15        18        20        34     9      180.000000        0.008500         4
        15        18        21        35     9        0.000000       -0.061558         1
        15        18        21        35     9      180.000000        0.025199         2
        15        18        21        35     9        0.000000        0.622302         3
        15        18        21        35     9      180.000000        0.008500         4
        15        18        21        36     9        0.000000       -0.061558         1
        15        18        21        36     9      180.000000        0.025199         2
        15        18        21        36     9        0.000000        0.622302         3
        15        18        21        36     9      180.000000        0.008500         4
        15        18        21        37     9        0.000000       -0.061558         1
        15        18        21        37     9      180.000000        0.025199         2
        15        18        21        37     9        0.000000        0.622302         3
        15        18        21        37     9      180.000000        0.008500         4
        16        15        14        28     9        0.000000       -0.032102         1
        16        15        14        28     9      180.000000       14.870907         2
        16        15        14        28     9        0.000000       -0.644491         3
        16        15        14        28     9      180.000000        0.032834         4
        16        15        18        19     9        0.000000        0.073774         1
        16        15        18        19     9      180.000000        0.989723         2
        16        15        18        19     9        0.000000        0.067884         3
        16        15        18        19     9      180.000000        0.132387         4
        16        15        18        20     9        0.000000        0.038083         1
        16        15        18        20     9      180.000000        0.245516         2
        16        15        18        20     9        0.000000        0.051921         3
        16        15        18        20     9      180.000000        0.164157         4
        16        15        18        21     9        0.000000        0.038083         1
        16        15        18        21     9      180.000000        0.245516         2
        16        15        18        21     9        0.000000        0.051921         3
        16        15        18        21     9      180.000000        0.164157         4
        17        12        13        27     9        0.000000       -0.074437         1
        17        12        13        27     9      180.000000       13.866631         2
        17        12        13        27     9        0.000000       -0.616164         3
        17        12        13        27     9      180.000000        0.084716         4
        17        16        15        18     9        0.000000        0.101251         1
        17        16        15        18     9      180.000000       14.310310         2
        17        16        15        18     9        0.000000       -0.089938         3
        17        16        15        18     9      180.000000       -0.134185         4
        18        15        14        28     9        0.000000       -0.107353         1
        18        15        14        28     9      180.000000       12.665265         2
        18        15        14        28     9        0.000000       -0.279679         3
        18        15        14        28     9      180.000000        0.197103         4
        18        15        16        29     9        0.000000       -0.107353         1
        18        15        16        29     9      180.000000       12.665268         2
        18        15        16        29     9        0.000000       -0.279679         3
        18        15        16        29     9      180.000000        0.197103         4
        19        18        20        32     9        0.000000        0.066220         1
        19        18        20        32     9      180.000000       -0.005018         2
        19        18        20        32     9        0.000000        0.478904         3
        19        18        20        32     9      180.000000        0.036037         4
        19        18        20        33     9        0.000000        0.066220         1
        19        18        20        33     9      180.000000       -0.005018         2
        19        18        20        33     9        0.000000        0.478904         3
        19        18        20        33     9      180.000000        0.036037         4
        19        18        20        34     9        0.000000        0.066220         1
        19        18        20        34     9      180.000000       -0.005018         2
        19        18        20        34     9        0.000000        0.478904         3
        19        18        20        34     9      180.000000        0.036037         4
        19        18        21        35     9        0.000000        0.066220         1
        19        18        21        35     9      180.000000       -0.005018         2
        19        18        21        35     9        0.000000        0.478904         3
        19        18        21        35     9      180.000000        0.036037         4
        19        18        21        36     9        0.000000        0.066220         1
        19        18        21        36     9      180.000000       -0.005018         2
        19        18        21        36     9        0.000000        0.478904         3
        19        18        21        36     9      180.000000        0.036037         4
        19        18        21        37     9        0.000000        0.066220         1
        19        18        21        37     9      180.000000       -0.005018         2
        19        18        21        37     9        0.000000        0.478904         3
        19        18        21        37     9      180.000000        0.036037         4
        20        18        19        31     9        0.000000       -0.807150         1
        20        18        19        31     9      180.000000        0.393125         2
        20        18        19        31     9        0.000000        0.885734         3
        20        18        19        31     9      180.000000        0.022606         4
        20        18        21        35     9        0.000000       -0.100193         1
        20        18        21        35     9      180.000000        0.026286         2
        20        18        21        35     9        0.000000        0.529878         3
        20        18        21        35     9      180.000000        0.062463         4
        20        18        21        36     9        0.000000       -0.100193         1
        20        18        21        36     9      180.000000        0.026286         2
        20        18        21        36     9        0.000000        0.529878         3
        20        18        21        36     9      180.000000        0.062463         4
        20        18        21        37     9        0.000000       -0.100193         1
        20        18        21        37     9      180.000000        0.026286         2
        20        18        21        37     9        0.000000        0.529878         3
        20        18        21        37     9      180.000000        0.062463         4
        21        18        19        31     9        0.000000       -0.807150         1
        21        18        19        31     9      180.000000        0.393125         2
        21        18        19        31     9        0.000000        0.885734         3
        21        18        19        31     9      180.000000        0.022606         4
        21        18        20        32     9        0.000000       -0.100193         1
        21        18        20        32     9      180.000000        0.026286         2
        21        18        20        32     9        0.000000        0.529878         3
        21        18        20        32     9      180.000000        0.062463         4
        21        18        20        33     9        0.000000       -0.100193         1
        21        18        20        33     9      180.000000        0.026286         2
        21        18        20        33     9        0.000000        0.529878         3
        21        18        20        33     9      180.000000        0.062463         4
        21        18        20        34     9        0.000000       -0.100193         1
        21        18        20        34     9      180.000000        0.026286         2
        21        18        20        34     9        0.000000        0.529878         3
        21        18        20        34     9      180.000000        0.062463         4
        22         7         6        25     9        0.000000        0.301199         1
        22         7         6        25     9      180.000000       17.995710         2
        22         7         6        25     9        0.000000        0.367160         3
        22         7         6        25     9      180.000000        0.006792         4
        23         1         3        24     9        0.000000       -0.144130         1
        23         1         3        24     9      180.000000       12.410054         2
        23         1         3        24     9        0.000000       -0.701071         3
        23         1         3        24     9      180.000000        0.350058         4
        24         3         6        25     9        0.000000       -0.172123         1
        24         3         6        25     9      180.000000       10.857988         2
        24         3         6        25     9        0.000000       -0.621052         3
        24         3         6        25     9      180.000000        0.180055         4
        27        13        14        28     9        0.000000       -0.224986         1
        27        13        14        28     9      180.000000       12.329039         2
        27        13        14        28     9        0.000000       -0.815557         3
        27        13        14        28     9      180.000000        0.376642         4
        29        16        17        30     9        0.000000       -0.224987         1
        29        16        17        30     9      180.000000       12.329039         2
        29        16        17        30     9        0.000000       -0.815557         3
        29        16        17        30     9      180.000000        0.376642         4

[ dihedrals ] ; impropers
;       ai        aj        ak        al funct           phase               k        pn
         2         1         4         5     4      180.000000       17.182304         2
         2         4         5         1     4      180.000000       17.182304         2
         2         5         1         4     4      180.000000       17.182304         2
         8         4         9        10     4      180.000000       27.893333         2
         8         9        10         4     4      180.000000       27.893333         2
         8        10         4         9     4      180.000000       27.893333         2
        11         5         9        12     4      180.000000        9.732701         2
        11         9        12         5     4      180.000000        9.732701         2
        11        12         5         9     4      180.000000        9.732701         2

[ pairs ]
;       ai        aj funct
         1         7     1
         1         8     1
         1        11     1
         1        25     1
         2         6     1
         2         9     1
         2        10     1
         2        12     1
         2        22     1
         2        24     1
         3         4     1
         3         5     1
         3        22     1
         4        11     1
         4        23     1
         4        25     1
         4        26     1
         5         7     1
         5         8     1
         5        13     1
         5        17     1
         5        23     1
         5        26     1
         6         8     1
         6        23     1
         7         9     1
         7        10     1
         7        24     1
         8        12     1
         8        22     1
         9        13     1
         9        17     1
        10        11     1
        10        26     1
        11        14     1
        11        16     1
        11        27     1
        11        30     1
        12        15     1
        12        26     1
        12        28     1
        12        29     1
        13        16     1
        13        18     1
        13        30     1
        14        17     1
        14        19     1
        14        20     1
        14        21     1
        14        29     1
        15        27     1
        15        30     1
        15        31     1
        15        32     1
        15        33     1
        15        34     1
        15        35     1
        15        36     1
        15        37     1
        16        19     1
        16        20     1
        16        21     1
        16        28     1
        17        18     1
        17        27     1
        18        28     1
        18        29     1
        19        32     1
        19        33     1
        19        34     1
        19        35     1
        19        36     1
        19        37     1
        20        31     1
        20        35     1
        20        36     1
        20        37     1
        21        31     1
        21        32     1
        21        33     1
        21        34     1
        22        25     1
        23        24     1
        24        25     1
        27        28     1
        29        30     1
