; ITP file created by ByteFF-ML, 2026-02-21 07:51:50.343049

[ atomtypes ]
;name           bonded.type        at.num        mass        charge   ptype           sigma         epsilon
 c0bf                                   6      0.0000       0.00000       A     3.31455e-01     4.13249e-01
 c1bf                                   6      0.0000       0.00000       A     3.31523e-01     4.11353e-01
 c2bf                                   6      0.0000       0.00000       A     3.31479e-01     4.12720e-01
 c3bf                                   6      0.0000       0.00000       A     3.31511e-01     4.13551e-01
 n4bf                                   7      0.0000       0.00000       A     3.38268e-01     3.93530e-01
 c5bf                                   6      0.0000       0.00000       A     3.31550e-01     4.13468e-01
 c6bf                                   6      0.0000       0.00000       A     3.31389e-01     4.12244e-01
 f7bf                                   9      0.0000       0.00000       A     3.03363e-01     3.47616e-01
 c8bf                                   6      0.0000       0.00000       A     3.31443e-01     4.12902e-01
 n9bf                                   7      0.0000       0.00000       A     3.26530e-01     5.01306e-01
 o10bf                                  8      0.0000       0.00000       A     3.04637e-01     6.12097e-01
 c11bf                                  6      0.0000       0.00000       A     3.31680e-01     4.10852e-01
 c12bf                                  6      0.0000       0.00000       A     3.31390e-01     4.12402e-01
 c13bf                                  6      0.0000       0.00000       A     3.31454e-01     4.13104e-01
 c14bf                                  6      0.0000       0.00000       A     3.31511e-01     4.13146e-01
 c15bf                                  6      0.0000       0.00000       A     3.31413e-01     4.11794e-01
 c16bf                                  6      0.0000       0.00000       A     3.31511e-01     4.13146e-01
 c17bf                                  6      0.0000       0.00000       A     3.31454e-01     4.13104e-01
 c18bf                                  6      0.0000       0.00000       A     3.39703e-01     4.51565e-01
 o19bf                                  8      0.0000       0.00000       A     3.24486e-01     3.89155e-01
 c20bf                                  6      0.0000       0.00000       A     3.39812e-01     4.51155e-01
 c21bf                                  6      0.0000       0.00000       A     3.39812e-01     4.51155e-01
 h22bf                                  1      0.0000       0.00000       A     2.62502e-01     6.68785e-02
 h23bf                                  1      0.0000       0.00000       A     2.62526e-01     6.75760e-02
 h24bf                                  1      0.0000       0.00000       A     2.62554e-01     6.72616e-02
 h25bf                                  1      0.0000       0.00000       A     1.10472e-01     4.18202e-02
 h26bf                                  1      0.0000       0.00000       A     2.62492e-01     6.72312e-02
 h27bf                                  1      0.0000       0.00000       A     2.62543e-01     6.73669e-02
 h28bf                                  1      0.0000       0.00000       A     2.62543e-01     6.73669e-02
 h29bf                                  1      0.0000       0.00000       A     2.62492e-01     6.72312e-02
 h30bf                                  1      0.0000       0.00000       A     5.37114e-02     1.97753e-02
 h31bf                                  1      0.0000       0.00000       A     2.60029e-01     8.77503e-02
 h32bf                                  1      0.0000       0.00000       A     2.60029e-01     8.77503e-02
 h33bf                                  1      0.0000       0.00000       A     2.60029e-01     8.77503e-02
 h34bf                                  1      0.0000       0.00000       A     2.60029e-01     8.77503e-02
 h35bf                                  1      0.0000       0.00000       A     2.60029e-01     8.77503e-02
 h36bf                                  1      0.0000       0.00000       A     2.60029e-01     8.77503e-02

[ moleculetype ]
;name             nrexcl
 5d                    3

[ atoms ]
;       nr            type      resi   res      atom      cgnr      charge          mass ; qtot
         1            c0bf         1   UNL        c0         1    -0.07992       12.0110 ; qtot   -0.080
         2            c1bf         1   UNL        c1         2     0.17862       12.0110 ; qtot    0.099
         3            c2bf         1   UNL        c2         3    -0.10747       12.0110 ; qtot   -0.009
         4            c3bf         1   UNL        c3         4    -0.18463       12.0110 ; qtot   -0.193
         5            n4bf         1   UNL        n4         5    -0.62404       14.0070 ; qtot   -0.817
         6            c5bf         1   UNL        c5         6     0.14301       12.0110 ; qtot   -0.674
         7            c6bf         1   UNL        c6         7    -0.07487       12.0110 ; qtot   -0.749
         8            f7bf         1   UNL        f7         8    -0.17355       18.9980 ; qtot   -0.923
         9            c8bf         1   UNL        c8         9     0.57197       12.0110 ; qtot   -0.351
        10            n9bf         1   UNL        n9        10    -0.42614       14.0070 ; qtot   -0.777
        11           o10bf         1   UNL       o10        11    -0.53280       15.9990 ; qtot   -1.310
        12           c11bf         1   UNL       c11        12     0.56268       12.0110 ; qtot   -0.747
        13           c12bf         1   UNL       c12        13    -0.15847       12.0110 ; qtot   -0.906
        14           c13bf         1   UNL       c13        14    -0.06622       12.0110 ; qtot   -0.972
        15           c14bf         1   UNL       c14        15    -0.10147       12.0110 ; qtot   -1.073
        16           c15bf         1   UNL       c15        16    -0.09419       12.0110 ; qtot   -1.167
        17           c16bf         1   UNL       c16        17    -0.10147       12.0110 ; qtot   -1.269
        18           c17bf         1   UNL       c17        18    -0.06622       12.0110 ; qtot   -1.335
        19           c18bf         1   UNL       c18        19     0.22590       12.0110 ; qtot   -1.109
        20           o19bf         1   UNL       o19        20    -0.66653       15.9990 ; qtot   -1.776
        21           c20bf         1   UNL       c20        21    -0.10406       12.0110 ; qtot   -1.880
        22           c21bf         1   UNL       c21        22    -0.10406       12.0110 ; qtot   -1.984
        23           h22bf         1   UNL       h22        23     0.14060        1.0080 ; qtot   -1.843
        24           h23bf         1   UNL       h23        24     0.13748        1.0080 ; qtot   -1.706
        25           h24bf         1   UNL       h24        25     0.15769        1.0080 ; qtot   -1.548
        26           h25bf         1   UNL       h25        26     0.33464        1.0080 ; qtot   -1.214
        27           h26bf         1   UNL       h26        27     0.12685        1.0080 ; qtot   -1.087
        28           h27bf         1   UNL       h27        28     0.12301        1.0080 ; qtot   -0.964
        29           h28bf         1   UNL       h28        29     0.12301        1.0080 ; qtot   -0.841
        30           h29bf         1   UNL       h29        30     0.12685        1.0080 ; qtot   -0.714
        31           h30bf         1   UNL       h30        31     0.44306        1.0080 ; qtot   -0.271
        32           h31bf         1   UNL       h31        32     0.04512        1.0080 ; qtot   -0.226
        33           h32bf         1   UNL       h32        33     0.04512        1.0080 ; qtot   -0.180
        34           h33bf         1   UNL       h33        34     0.04512        1.0080 ; qtot   -0.135
        35           h34bf         1   UNL       h34        35     0.04512        1.0080 ; qtot   -0.090
        36           h35bf         1   UNL       h35        36     0.04512        1.0080 ; qtot   -0.045
        37           h36bf         1   UNL       h36        37     0.04514        1.0080 ; qtot    0.000

[ bonds ]
;       ai        aj funct               r               k
         1         2     1        0.141242   282180.002246
         1         3     1        0.138654   340316.968262
         1        23     1        0.108500   324670.023828
         2         4     1        0.141626   264519.175830
         2         5     1        0.138695   253750.866309
         3         6     1        0.140538   281854.787158
         3        24     1        0.108501   324944.649902
         4         7     1        0.140519   295055.097754
         4         9     1        0.146855   200493.045947
         5        12     1        0.130004   426514.722949
         6         7     1        0.138110   324084.457910
         6         8     1        0.135532   291594.768359
         7        25     1        0.108412   327725.053760
         9        10     1        0.140209   208674.101538
         9        11     1        0.122840   610002.377930
        10        12     1        0.137908   255004.968213
        10        26     1        0.101480   412787.019971
        12        13     1        0.148032   204065.381104
        13        14     1        0.140471   289559.026611
        13        18     1        0.140471   289559.026611
        14        15     1        0.139386   326214.584814
        14        27     1        0.108506   321458.476953
        15        16     1        0.140255   285418.312012
        15        28     1        0.108556   319655.914551
        16        17     1        0.140255   285418.312012
        16        19     1        0.153061   167064.459033
        17        18     1        0.139386   326214.584814
        17        29     1        0.108556   319655.914551
        18        30     1        0.108506   321458.502490
        19        20     1        0.144382   176998.969165
        19        21     1        0.153644   175656.419482
        19        22     1        0.153644   175656.419482
        20        31     1        0.097079   466958.149512
        21        32     1        0.109340   302095.806494
        21        33     1        0.109340   302095.806494
        21        34     1        0.109340   302095.806494
        22        35     1        0.109340   302095.806494
        22        36     1        0.109340   302095.806494
        22        37     1        0.109340   302095.806494

[ angles ]
;       ai        aj        ak funct           theta             cth
         1         2         4     1      118.469994      611.724345
         1         2         5     1      118.535484      425.812657
         1         3         6     1      119.133240      685.589030
         1         3        24     1      121.615135      428.074032
         2         1         3     1      120.620567      694.497331
         2         1        23     1      118.197289      455.692703
         2         4         7     1      120.973595      716.910230
         2         4         9     1      119.041054      848.109683
         2         5        12     1      118.102127      316.933563
         3         1        23     1      121.101906      427.576696
         3         6         7     1      122.498901      617.579174
         3         6         8     1      117.991562      604.150677
         4         2         5     1      122.976463      728.567985
         4         7         6     1      118.185379      594.630379
         4         7        25     1      119.988426      417.862093
         4         9        10     1      112.829361      617.312503
         4         9        11     1      126.287453      458.326057
         5        12        10     1      122.649086      510.787707
         5        12        13     1      120.144737      397.378394
         6         3        24     1      119.244308      457.692354
         6         7        25     1      121.657227      423.525904
         7         4         9     1      119.717651      483.344029
         7         6         8     1      119.387344      492.734024
         9        10        12     1      124.979759      718.020009
         9        10        26     1      114.834351      511.166806
        10         9        11     1      120.490158      783.518034
        10        12        13     1      117.435585      653.950786
        12        10        26     1      120.328003      426.351937
        12        13        14     1      120.681503      548.326428
        12        13        18     1      120.681503      548.326428
        13        14        15     1      120.499977      679.153103
        13        14        27     1      119.853783      419.505789
        13        18        17     1      120.499977      679.153103
        13        18        30     1      119.853783      419.505789
        14        13        18     1      118.451012      558.728842
        14        15        16     1      120.933960      722.975294
        14        15        28     1      119.310745      430.952351
        15        14        27     1      119.619583      424.105278
        15        16        17     1      118.030006      644.246429
        15        16        19     1      120.914795      498.155808
        16        15        28     1      119.809998      401.303639
        16        17        18     1      120.933960      722.975294
        16        17        29     1      119.809998      401.303671
        16        19        20     1      108.993263      692.794836
        16        19        21     1      110.967125      628.055391
        16        19        22     1      110.967125      628.055391
        17        16        19     1      120.914795      498.155808
        17        18        30     1      119.619583      424.105214
        18        17        29     1      119.310730      430.952351
        19        20        31     1      107.614967      572.046955
        19        21        32     1      110.548935      458.224962
        19        21        33     1      110.548935      458.224962
        19        21        34     1      110.548935      458.224962
        19        22        35     1      110.548935      458.224962
        19        22        36     1      110.548935      458.224962
        19        22        37     1      110.548935      458.224962
        20        19        21     1      107.278610      609.475930
        20        19        22     1      107.278610      609.475930
        21        19        22     1      110.435745      551.993621
        32        21        33     1      108.447632      360.423356
        32        21        34     1      108.447632      360.423356
        33        21        34     1      108.447632      360.423356
        35        22        36     1      108.447632      360.423356
        35        22        37     1      108.447632      360.423356
        36        22        37     1      108.447632      360.423356

[ dihedrals ] ; propers for gromacs 4.5 or higher, use funct 9
;       ai        aj        ak        al funct           phase               k        pn
         1         2         4         7     9        0.000000        0.014116         1
         1         2         4         7     9      180.000000       13.025916         2
         1         2         4         7     9        0.000000       -1.016227         3
         1         2         4         7     9      180.000000       -0.124746         4
         1         2         4         9     9        0.000000        0.278735         1
         1         2         4         9     9      180.000000       11.507690         2
         1         2         4         9     9        0.000000       -0.310180         3
         1         2         4         9     9      180.000000       -0.170338         4
         1         2         5        12     9        0.000000       -0.243089         1
         1         2         5        12     9      180.000000        7.066778         2
         1         2         5        12     9        0.000000        1.088329         3
         1         2         5        12     9      180.000000       -0.143681         4
         1         3         6         7     9        0.000000       -0.144327         1
         1         3         6         7     9      180.000000       15.664061         2
         1         3         6         7     9        0.000000       -1.119142         3
         1         3         6         7     9      180.000000       -0.231264         4
         1         3         6         8     9        0.000000        0.547841         1
         1         3         6         8     9      180.000000       21.137851         2
         1         3         6         8     9        0.000000        0.508525         3
         1         3         6         8     9      180.000000       -0.557490         4
         2         1         3         6     9        0.000000       -0.153190         1
         2         1         3         6     9      180.000000       20.309492         2
         2         1         3         6     9        0.000000       -1.394836         3
         2         1         3         6     9      180.000000       -0.494587         4
         2         1         3        24     9        0.000000        0.061904         1
         2         1         3        24     9      180.000000       15.252624         2
         2         1         3        24     9        0.000000       -0.382992         3
         2         1         3        24     9      180.000000        0.067840         4
         2         4         7         6     9        0.000000       -0.151816         1
         2         4         7         6     9      180.000000       17.431431         2
         2         4         7         6     9        0.000000       -1.292418         3
         2         4         7         6     9      180.000000       -0.270018         4
         2         4         7        25     9        0.000000        0.148686         1
         2         4         7        25     9      180.000000       12.257432         2
         2         4         7        25     9        0.000000       -0.338211         3
         2         4         7        25     9      180.000000        0.044436         4
         2         4         9        10     9        0.000000        0.173418         1
         2         4         9        10     9      180.000000        4.101547         2
         2         4         9        10     9        0.000000        0.212728         3
         2         4         9        10     9      180.000000        0.078310         4
         2         4         9        11     9        0.000000       -0.052563         1
         2         4         9        11     9      180.000000        7.922623         2
         2         4         9        11     9        0.000000        0.143609         3
         2         4         9        11     9      180.000000       -0.418474         4
         2         5        12        10     9        0.000000       -0.325405         1
         2         5        12        10     9      180.000000       36.740143         2
         2         5        12        10     9        0.000000       -0.417165         3
         2         5        12        10     9      180.000000       -1.076339         4
         2         5        12        13     9        0.000000        0.736470         1
         2         5        12        13     9      180.000000       30.768636         2
         2         5        12        13     9        0.000000        1.381561         3
         2         5        12        13     9      180.000000       -1.254034         4
         3         1         2         4     9        0.000000       -0.120942         1
         3         1         2         4     9      180.000000       16.339837         2
         3         1         2         4     9        0.000000       -1.070513         3
         3         1         2         4     9      180.000000       -0.308968         4
         3         1         2         5     9        0.000000        0.396286         1
         3         1         2         5     9      180.000000       16.611044         2
         3         1         2         5     9        0.000000        0.197530         3
         3         1         2         5     9      180.000000       -0.350107         4
         3         6         7         4     9        0.000000       -0.050637         1
         3         6         7         4     9      180.000000       17.894635         2
         3         6         7         4     9        0.000000       -1.077146         3
         3         6         7         4     9      180.000000       -0.421424         4
         3         6         7        25     9        0.000000        0.125035         1
         3         6         7        25     9      180.000000       13.539666         2
         3         6         7        25     9        0.000000       -0.353982         3
         3         6         7        25     9      180.000000        0.131342         4
         4         2         1        23     9        0.000000       -0.094085         1
         4         2         1        23     9      180.000000       12.498558         2
         4         2         1        23     9        0.000000       -0.299987         3
         4         2         1        23     9      180.000000       -0.003364         4
         4         2         5        12     9        0.000000        0.516837         1
         4         2         5        12     9      180.000000        5.669485         2
         4         2         5        12     9        0.000000        1.056609         3
         4         2         5        12     9      180.000000       -0.170265         4
         4         7         6         8     9        0.000000        0.273527         1
         4         7         6         8     9      180.000000       23.199506         2
         4         7         6         8     9        0.000000        0.571326         3
         4         7         6         8     9      180.000000       -0.779268         4
         4         9        10        12     9        0.000000       -0.318778         1
         4         9        10        12     9      180.000000        3.512049         2
         4         9        10        12     9        0.000000        0.161381         3
         4         9        10        12     9      180.000000        0.116764         4
         4         9        10        26     9        0.000000       -0.739572         1
         4         9        10        26     9      180.000000        6.985507         2
         4         9        10        26     9        0.000000        0.038341         3
         4         9        10        26     9      180.000000       -0.079136         4
         5         2         1        23     9        0.000000        0.216112         1
         5         2         1        23     9      180.000000       13.948925         2
         5         2         1        23     9        0.000000       -0.242494         3
         5         2         1        23     9      180.000000        0.095568         4
         5         2         4         7     9        0.000000        0.215899         1
         5         2         4         7     9      180.000000       13.778960         2
         5         2         4         7     9        0.000000       -0.064091         3
         5         2         4         7     9      180.000000       -0.219651         4
         5         2         4         9     9        0.000000        0.588874         1
         5         2         4         9     9      180.000000       12.206564         2
         5         2         4         9     9        0.000000        0.608649         3
         5         2         4         9     9      180.000000       -0.527140         4
         5        12        10         9     9        0.000000       -0.069284         1
         5        12        10         9     9      180.000000        7.200725         2
         5        12        10         9     9        0.000000        0.180142         3
         5        12        10         9     9      180.000000       -0.226268         4
         5        12        10        26     9        0.000000        1.385951         1
         5        12        10        26     9      180.000000        6.868330         2
         5        12        10        26     9        0.000000       -0.290598         3
         5        12        10        26     9      180.000000       -0.133254         4
         5        12        13        14     9        0.000000       -0.026616         1
         5        12        13        14     9      180.000000        3.709225         2
         5        12        13        14     9        0.000000       -0.058744         3
         5        12        13        14     9      180.000000       -0.055174         4
         5        12        13        18     9        0.000000       -0.026616         1
         5        12        13        18     9      180.000000        3.709225         2
         5        12        13        18     9        0.000000       -0.058744         3
         5        12        13        18     9      180.000000       -0.055174         4
         6         3         1        23     9        0.000000        0.051234         1
         6         3         1        23     9      180.000000       15.797575         2
         6         3         1        23     9        0.000000       -0.624662         3
         6         3         1        23     9      180.000000        0.136675         4
         6         7         4         9     9        0.000000        0.133589         1
         6         7         4         9     9      180.000000       14.055276         2
         6         7         4         9     9        0.000000       -0.217773         3
         6         7         4         9     9      180.000000       -0.238045         4
         7         4         9        10     9        0.000000       -0.215600         1
         7         4         9        10     9      180.000000        4.582441         2
         7         4         9        10     9        0.000000        0.346544         3
         7         4         9        10     9      180.000000        0.081039         4
         7         4         9        11     9        0.000000       -1.074103         1
         7         4         9        11     9      180.000000        6.486290         2
         7         4         9        11     9        0.000000       -0.078736         3
         7         4         9        11     9      180.000000       -0.049906         4
         7         6         3        24     9        0.000000       -0.005250         1
         7         6         3        24     9      180.000000       12.331273         2
         7         6         3        24     9        0.000000       -0.492858         3
         7         6         3        24     9      180.000000        0.109146         4
         8         6         3        24     9        0.000000        0.258364         1
         8         6         3        24     9      180.000000       14.685376         2
         8         6         3        24     9        0.000000        0.207204         3
         8         6         3        24     9      180.000000        0.209778         4
         8         6         7        25     9        0.000000        0.241037         1
         8         6         7        25     9      180.000000       16.226538         2
         8         6         7        25     9        0.000000        0.331559         3
         8         6         7        25     9      180.000000        0.192073         4
         9         4         7        25     9        0.000000        0.081035         1
         9         4         7        25     9      180.000000       10.990811         2
         9         4         7        25     9        0.000000       -0.361514         3
         9         4         7        25     9      180.000000        0.075766         4
         9        10        12        13     9        0.000000        0.325259         1
         9        10        12        13     9      180.000000        7.615467         2
         9        10        12        13     9        0.000000        0.228616         3
         9        10        12        13     9      180.000000       -0.360803         4
        10        12        13        14     9        0.000000        0.019614         1
        10        12        13        14     9      180.000000        3.830435         2
        10        12        13        14     9        0.000000        0.168120         3
        10        12        13        14     9      180.000000       -0.302758         4
        10        12        13        18     9        0.000000        0.019614         1
        10        12        13        18     9      180.000000        3.830435         2
        10        12        13        18     9        0.000000        0.168120         3
        10        12        13        18     9      180.000000       -0.302758         4
        11         9        10        12     9        0.000000       -0.496913         1
        11         9        10        12     9      180.000000        9.460009         2
        11         9        10        12     9        0.000000       -0.299086         3
        11         9        10        12     9      180.000000       -0.417326         4
        11         9        10        26     9        0.000000        0.204914         1
        11         9        10        26     9      180.000000       10.108021         2
        11         9        10        26     9        0.000000       -0.546979         3
        11         9        10        26     9      180.000000        0.236694         4
        12        13        14        15     9        0.000000        0.049032         1
        12        13        14        15     9      180.000000       14.913803         2
        12        13        14        15     9        0.000000       -0.374008         3
        12        13        14        15     9      180.000000       -0.175342         4
        12        13        14        27     9        0.000000       -0.022072         1
        12        13        14        27     9      180.000000       12.369898         2
        12        13        14        27     9        0.000000       -0.344720         3
        12        13        14        27     9      180.000000        0.164104         4
        12        13        18        17     9        0.000000        0.049032         1
        12        13        18        17     9      180.000000       14.913803         2
        12        13        18        17     9        0.000000       -0.374008         3
        12        13        18        17     9      180.000000       -0.175342         4
        12        13        18        30     9        0.000000       -0.022072         1
        12        13        18        30     9      180.000000       12.369899         2
        12        13        18        30     9        0.000000       -0.344721         3
        12        13        18        30     9      180.000000        0.164104         4
        13        12        10        26     9        0.000000       -0.489772         1
        13        12        10        26     9      180.000000        6.311139         2
        13        12        10        26     9        0.000000       -0.145705         3
        13        12        10        26     9      180.000000       -0.141797         4
        13        14        15        16     9        0.000000       -0.029852         1
        13        14        15        16     9      180.000000       19.279119         2
        13        14        15        16     9        0.000000       -1.746203         3
        13        14        15        16     9      180.000000       -0.394485         4
        13        14        15        28     9        0.000000       -0.089815         1
        13        14        15        28     9      180.000000       15.139981         2
        13        14        15        28     9        0.000000       -0.484184         3
        13        14        15        28     9      180.000000        0.126791         4
        13        18        17        16     9        0.000000       -0.029852         1
        13        18        17        16     9      180.000000       19.279119         2
        13        18        17        16     9        0.000000       -1.746203         3
        13        18        17        16     9      180.000000       -0.394485         4
        13        18        17        29     9        0.000000       -0.089816         1
        13        18        17        29     9      180.000000       15.139981         2
        13        18        17        29     9        0.000000       -0.484184         3
        13        18        17        29     9      180.000000        0.126791         4
        14        13        18        17     9        0.000000       -0.120070         1
        14        13        18        17     9      180.000000       18.086734         2
        14        13        18        17     9        0.000000       -1.494844         3
        14        13        18        17     9      180.000000       -0.364611         4
        14        13        18        30     9        0.000000       -0.074437         1
        14        13        18        30     9      180.000000       13.866631         2
        14        13        18        30     9        0.000000       -0.616165         3
        14        13        18        30     9      180.000000        0.084716         4
        14        15        16        17     9        0.000000       -0.044566         1
        14        15        16        17     9      180.000000       18.663695         2
        14        15        16        17     9        0.000000       -1.272081         3
        14        15        16        17     9      180.000000       -0.423270         4
        14        15        16        19     9        0.000000        0.101251         1
        14        15        16        19     9      180.000000       14.310310         2
        14        15        16        19     9        0.000000       -0.089938         3
        14        15        16        19     9      180.000000       -0.134185         4
        15        14        13        18     9        0.000000       -0.120070         1
        15        14        13        18     9      180.000000       18.086734         2
        15        14        13        18     9        0.000000       -1.494844         3
        15        14        13        18     9      180.000000       -0.364611         4
        15        16        17        18     9        0.000000       -0.044566         1
        15        16        17        18     9      180.000000       18.663695         2
        15        16        17        18     9        0.000000       -1.272081         3
        15        16        17        18     9      180.000000       -0.423270         4
        15        16        17        29     9        0.000000       -0.032101         1
        15        16        17        29     9      180.000000       14.870907         2
        15        16        17        29     9        0.000000       -0.644491         3
        15        16        17        29     9      180.000000        0.032834         4
        15        16        19        20     9        0.000000        0.073774         1
        15        16        19        20     9      180.000000        0.989724         2
        15        16        19        20     9        0.000000        0.067884         3
        15        16        19        20     9      180.000000        0.132387         4
        15        16        19        21     9        0.000000        0.038083         1
        15        16        19        21     9      180.000000        0.245516         2
        15        16        19        21     9        0.000000        0.051921         3
        15        16        19        21     9      180.000000        0.164157         4
        15        16        19        22     9        0.000000        0.038083         1
        15        16        19        22     9      180.000000        0.245516         2
        15        16        19        22     9        0.000000        0.051921         3
        15        16        19        22     9      180.000000        0.164157         4
        16        15        14        27     9        0.000000        0.014394         1
        16        15        14        27     9      180.000000       15.258784         2
        16        15        14        27     9        0.000000       -0.668963         3
        16        15        14        27     9      180.000000        0.129899         4
        16        17        18        30     9        0.000000        0.014395         1
        16        17        18        30     9      180.000000       15.258780         2
        16        17        18        30     9        0.000000       -0.668963         3
        16        17        18        30     9      180.000000        0.129900         4
        16        19        20        31     9        0.000000        2.043546         1
        16        19        20        31     9      180.000000       -0.635021         2
        16        19        20        31     9        0.000000        0.964895         3
        16        19        20        31     9      180.000000        0.005136         4
        16        19        21        32     9        0.000000       -0.061558         1
        16        19        21        32     9      180.000000        0.025199         2
        16        19        21        32     9        0.000000        0.622302         3
        16        19        21        32     9      180.000000        0.008500         4
        16        19        21        33     9        0.000000       -0.061558         1
        16        19        21        33     9      180.000000        0.025199         2
        16        19        21        33     9        0.000000        0.622302         3
        16        19        21        33     9      180.000000        0.008500         4
        16        19        21        34     9        0.000000       -0.061558         1
        16        19        21        34     9      180.000000        0.025199         2
        16        19        21        34     9        0.000000        0.622302         3
        16        19        21        34     9      180.000000        0.008500         4
        16        19        22        35     9        0.000000       -0.061558         1
        16        19        22        35     9      180.000000        0.025199         2
        16        19        22        35     9        0.000000        0.622302         3
        16        19        22        35     9      180.000000        0.008500         4
        16        19        22        36     9        0.000000       -0.061558         1
        16        19        22        36     9      180.000000        0.025199         2
        16        19        22        36     9        0.000000        0.622302         3
        16        19        22        36     9      180.000000        0.008500         4
        16        19        22        37     9        0.000000       -0.061558         1
        16        19        22        37     9      180.000000        0.025199         2
        16        19        22        37     9        0.000000        0.622302         3
        16        19        22        37     9      180.000000        0.008500         4
        17        16        15        28     9        0.000000       -0.032102         1
        17        16        15        28     9      180.000000       14.870907         2
        17        16        15        28     9        0.000000       -0.644491         3
        17        16        15        28     9      180.000000        0.032834         4
        17        16        19        20     9        0.000000        0.073774         1
        17        16        19        20     9      180.000000        0.989724         2
        17        16        19        20     9        0.000000        0.067884         3
        17        16        19        20     9      180.000000        0.132387         4
        17        16        19        21     9        0.000000        0.038083         1
        17        16        19        21     9      180.000000        0.245516         2
        17        16        19        21     9        0.000000        0.051921         3
        17        16        19        21     9      180.000000        0.164157         4
        17        16        19        22     9        0.000000        0.038083         1
        17        16        19        22     9      180.000000        0.245516         2
        17        16        19        22     9        0.000000        0.051921         3
        17        16        19        22     9      180.000000        0.164157         4
        18        13        14        27     9        0.000000       -0.074437         1
        18        13        14        27     9      180.000000       13.866631         2
        18        13        14        27     9        0.000000       -0.616164         3
        18        13        14        27     9      180.000000        0.084716         4
        18        17        16        19     9        0.000000        0.101251         1
        18        17        16        19     9      180.000000       14.310310         2
        18        17        16        19     9        0.000000       -0.089938         3
        18        17        16        19     9      180.000000       -0.134185         4
        19        16        15        28     9        0.000000       -0.107353         1
        19        16        15        28     9      180.000000       12.665265         2
        19        16        15        28     9        0.000000       -0.279679         3
        19        16        15        28     9      180.000000        0.197103         4
        19        16        17        29     9        0.000000       -0.107353         1
        19        16        17        29     9      180.000000       12.665268         2
        19        16        17        29     9        0.000000       -0.279679         3
        19        16        17        29     9      180.000000        0.197103         4
        20        19        21        32     9        0.000000        0.066220         1
        20        19        21        32     9      180.000000       -0.005018         2
        20        19        21        32     9        0.000000        0.478904         3
        20        19        21        32     9      180.000000        0.036037         4
        20        19        21        33     9        0.000000        0.066220         1
        20        19        21        33     9      180.000000       -0.005018         2
        20        19        21        33     9        0.000000        0.478904         3
        20        19        21        33     9      180.000000        0.036037         4
        20        19        21        34     9        0.000000        0.066220         1
        20        19        21        34     9      180.000000       -0.005018         2
        20        19        21        34     9        0.000000        0.478904         3
        20        19        21        34     9      180.000000        0.036037         4
        20        19        22        35     9        0.000000        0.066220         1
        20        19        22        35     9      180.000000       -0.005018         2
        20        19        22        35     9        0.000000        0.478904         3
        20        19        22        35     9      180.000000        0.036037         4
        20        19        22        36     9        0.000000        0.066220         1
        20        19        22        36     9      180.000000       -0.005018         2
        20        19        22        36     9        0.000000        0.478904         3
        20        19        22        36     9      180.000000        0.036037         4
        20        19        22        37     9        0.000000        0.066220         1
        20        19        22        37     9      180.000000       -0.005018         2
        20        19        22        37     9        0.000000        0.478904         3
        20        19        22        37     9      180.000000        0.036037         4
        21        19        20        31     9        0.000000       -0.807151         1
        21        19        20        31     9      180.000000        0.393124         2
        21        19        20        31     9        0.000000        0.885734         3
        21        19        20        31     9      180.000000        0.022606         4
        21        19        22        35     9        0.000000       -0.100193         1
        21        19        22        35     9      180.000000        0.026286         2
        21        19        22        35     9        0.000000        0.529878         3
        21        19        22        35     9      180.000000        0.062463         4
        21        19        22        36     9        0.000000       -0.100193         1
        21        19        22        36     9      180.000000        0.026286         2
        21        19        22        36     9        0.000000        0.529878         3
        21        19        22        36     9      180.000000        0.062463         4
        21        19        22        37     9        0.000000       -0.100193         1
        21        19        22        37     9      180.000000        0.026286         2
        21        19        22        37     9        0.000000        0.529878         3
        21        19        22        37     9      180.000000        0.062463         4
        22        19        20        31     9        0.000000       -0.807151         1
        22        19        20        31     9      180.000000        0.393124         2
        22        19        20        31     9        0.000000        0.885734         3
        22        19        20        31     9      180.000000        0.022606         4
        22        19        21        32     9        0.000000       -0.100193         1
        22        19        21        32     9      180.000000        0.026286         2
        22        19        21        32     9        0.000000        0.529878         3
        22        19        21        32     9      180.000000        0.062463         4
        22        19        21        33     9        0.000000       -0.100193         1
        22        19        21        33     9      180.000000        0.026286         2
        22        19        21        33     9        0.000000        0.529878         3
        22        19        21        33     9      180.000000        0.062463         4
        22        19        21        34     9        0.000000       -0.100193         1
        22        19        21        34     9      180.000000        0.026286         2
        22        19        21        34     9        0.000000        0.529878         3
        22        19        21        34     9      180.000000        0.062463         4
        23         1         3        24     9        0.000000       -0.076803         1
        23         1         3        24     9      180.000000       12.500208         2
        23         1         3        24     9        0.000000       -0.749261         3
        23         1         3        24     9      180.000000        0.339153         4
        27        14        15        28     9        0.000000       -0.224986         1
        27        14        15        28     9      180.000000       12.329039         2
        27        14        15        28     9        0.000000       -0.815557         3
        27        14        15        28     9      180.000000        0.376642         4
        29        17        18        30     9        0.000000       -0.224987         1
        29        17        18        30     9      180.000000       12.329039         2
        29        17        18        30     9        0.000000       -0.815557         3
        29        17        18        30     9      180.000000        0.376642         4

[ dihedrals ] ; impropers
;       ai        aj        ak        al funct           phase               k        pn
         2         1         4         5     4      180.000000       12.826806         2
         2         4         5         1     4      180.000000       12.826806         2
         2         5         1         4     4      180.000000       12.826806         2
         9         4        10        11     4      180.000000       27.893333         2
         9        10        11         4     4      180.000000       27.893333         2
         9        11         4        10     4      180.000000       27.893333         2
        12         5        10        13     4      180.000000        9.044406         2
        12        10        13         5     4      180.000000        9.044406         2
        12        13         5        10     4      180.000000        9.044406         2

[ pairs ]
;       ai        aj funct
         1         7     1
         1         8     1
         1         9     1
         1        12     1
         2         6     1
         2        10     1
         2        11     1
         2        13     1
         2        24     1
         2        25     1
         3         4     1
         3         5     1
         3        25     1
         4         8     1
         4        12     1
         4        23     1
         4        26     1
         5         7     1
         5         9     1
         5        14     1
         5        18     1
         5        23     1
         5        26     1
         6         9     1
         6        23     1
         7        10     1
         7        11     1
         7        24     1
         8        24     1
         8        25     1
         9        13     1
         9        25     1
        10        14     1
        10        18     1
        11        12     1
        11        26     1
        12        15     1
        12        17     1
        12        27     1
        12        30     1
        13        16     1
        13        26     1
        13        28     1
        13        29     1
        14        17     1
        14        19     1
        14        30     1
        15        18     1
        15        20     1
        15        21     1
        15        22     1
        15        29     1
        16        27     1
        16        30     1
        16        31     1
        16        32     1
        16        33     1
        16        34     1
        16        35     1
        16        36     1
        16        37     1
        17        20     1
        17        21     1
        17        22     1
        17        28     1
        18        19     1
        18        27     1
        19        28     1
        19        29     1
        20        32     1
        20        33     1
        20        34     1
        20        35     1
        20        36     1
        20        37     1
        21        31     1
        21        35     1
        21        36     1
        21        37     1
        22        31     1
        22        32     1
        22        33     1
        22        34     1
        23        24     1
        27        28     1
        29        30     1
