; ITP file created by ByteFF-ML, 2026-02-21 07:51:32.148613

[ atomtypes ]
;name           bonded.type        at.num        mass        charge   ptype           sigma         epsilon
 c0bf                                   6      0.0000       0.00000       A     3.31497e-01     4.13334e-01
 c1bf                                   6      0.0000       0.00000       A     3.31515e-01     4.11575e-01
 c2bf                                   6      0.0000       0.00000       A     3.31506e-01     4.12495e-01
 c3bf                                   6      0.0000       0.00000       A     3.31474e-01     4.13317e-01
 n4bf                                   7      0.0000       0.00000       A     3.38268e-01     3.93530e-01
 c5bf                                   6      0.0000       0.00000       A     3.31561e-01     4.12863e-01
 c6bf                                   6      0.0000       0.00000       A     3.31409e-01     4.12670e-01
 c7bf                                   6      0.0000       0.00000       A     3.31450e-01     4.12940e-01
 n8bf                                   7      0.0000       0.00000       A     3.26530e-01     5.01306e-01
 o9bf                                   8      0.0000       0.00000       A     3.04637e-01     6.12097e-01
 c10bf                                  6      0.0000       0.00000       A     3.31680e-01     4.10852e-01
 c11bf                                  6      0.0000       0.00000       A     3.31390e-01     4.12402e-01
 c12bf                                  6      0.0000       0.00000       A     3.31454e-01     4.13104e-01
 c13bf                                  6      0.0000       0.00000       A     3.31511e-01     4.13146e-01
 c14bf                                  6      0.0000       0.00000       A     3.31413e-01     4.11794e-01
 c15bf                                  6      0.0000       0.00000       A     3.31511e-01     4.13146e-01
 c16bf                                  6      0.0000       0.00000       A     3.31454e-01     4.13104e-01
 c17bf                                  6      0.0000       0.00000       A     3.39703e-01     4.51565e-01
 o18bf                                  8      0.0000       0.00000       A     3.24486e-01     3.89155e-01
 cl19bf                                17      0.0000       0.00000       A     3.46707e-01     1.10492e+00
 c20bf                                  6      0.0000       0.00000       A     3.39812e-01     4.51155e-01
 c21bf                                  6      0.0000       0.00000       A     3.39812e-01     4.51155e-01
 h22bf                                  1      0.0000       0.00000       A     2.62498e-01     6.69120e-02
 h23bf                                  1      0.0000       0.00000       A     2.62498e-01     6.74371e-02
 h24bf                                  1      0.0000       0.00000       A     2.62582e-01     6.73477e-02
 h25bf                                  1      0.0000       0.00000       A     1.10472e-01     4.18202e-02
 h26bf                                  1      0.0000       0.00000       A     2.62492e-01     6.72312e-02
 h27bf                                  1      0.0000       0.00000       A     2.62543e-01     6.73669e-02
 h28bf                                  1      0.0000       0.00000       A     2.62543e-01     6.73669e-02
 h29bf                                  1      0.0000       0.00000       A     2.62492e-01     6.72312e-02
 h30bf                                  1      0.0000       0.00000       A     5.37114e-02     1.97753e-02
 h31bf                                  1      0.0000       0.00000       A     2.60029e-01     8.77503e-02
 h32bf                                  1      0.0000       0.00000       A     2.60029e-01     8.77503e-02
 h33bf                                  1      0.0000       0.00000       A     2.60029e-01     8.77503e-02
 h34bf                                  1      0.0000       0.00000       A     2.60029e-01     8.77503e-02
 h35bf                                  1      0.0000       0.00000       A     2.60029e-01     8.77503e-02
 h36bf                                  1      0.0000       0.00000       A     2.60029e-01     8.77503e-02

[ moleculetype ]
;name             nrexcl
 5e                    3

[ atoms ]
;       nr            type      resi   res      atom      cgnr      charge          mass ; qtot
         1            c0bf         1   UNL        c0         1    -0.09951       12.0110 ; qtot   -0.100
         2            c1bf         1   UNL        c1         2     0.19638       12.0110 ; qtot    0.097
         3            c2bf         1   UNL        c2         3    -0.06530       12.0110 ; qtot    0.032
         4            c3bf         1   UNL        c3         4    -0.20059       12.0110 ; qtot   -0.169
         5            n4bf         1   UNL        n4         5    -0.62578       14.0070 ; qtot   -0.795
         6            c5bf         1   UNL        c5         6     0.09454       12.0110 ; qtot   -0.700
         7            c6bf         1   UNL        c6         7    -0.02781       12.0110 ; qtot   -0.728
         8            c7bf         1   UNL        c7         8     0.57381       12.0110 ; qtot   -0.154
         9            n8bf         1   UNL        n8         9    -0.42689       14.0070 ; qtot   -0.581
        10            o9bf         1   UNL        o9        10    -0.53017       15.9990 ; qtot   -1.111
        11           c10bf         1   UNL       c10        11     0.56268       12.0110 ; qtot   -0.549
        12           c11bf         1   UNL       c11        12    -0.15847       12.0110 ; qtot   -0.707
        13           c12bf         1   UNL       c12        13    -0.06622       12.0110 ; qtot   -0.773
        14           c13bf         1   UNL       c13        14    -0.10147       12.0110 ; qtot   -0.875
        15           c14bf         1   UNL       c14        15    -0.09419       12.0110 ; qtot   -0.969
        16           c15bf         1   UNL       c15        16    -0.10147       12.0110 ; qtot   -1.070
        17           c16bf         1   UNL       c16        17    -0.06622       12.0110 ; qtot   -1.137
        18           c17bf         1   UNL       c17        18     0.22590       12.0110 ; qtot   -0.911
        19           o18bf         1   UNL       o18        19    -0.66653       15.9990 ; qtot   -1.577
        20          cl19bf         1   UNL      cl19        20    -0.19636       35.4530 ; qtot   -1.774
        21           c20bf         1   UNL       c20        21    -0.10406       12.0110 ; qtot   -1.878
        22           c21bf         1   UNL       c21        22    -0.10406       12.0110 ; qtot   -1.982
        23           h22bf         1   UNL       h22        23     0.14090        1.0080 ; qtot   -1.841
        24           h23bf         1   UNL       h23        24     0.13570        1.0080 ; qtot   -1.705
        25           h24bf         1   UNL       h24        25     0.15704        1.0080 ; qtot   -1.548
        26           h25bf         1   UNL       h25        26     0.33464        1.0080 ; qtot   -1.214
        27           h26bf         1   UNL       h26        27     0.12685        1.0080 ; qtot   -1.087
        28           h27bf         1   UNL       h27        28     0.12301        1.0080 ; qtot   -0.964
        29           h28bf         1   UNL       h28        29     0.12301        1.0080 ; qtot   -0.841
        30           h29bf         1   UNL       h29        30     0.12685        1.0080 ; qtot   -0.714
        31           h30bf         1   UNL       h30        31     0.44306        1.0080 ; qtot   -0.271
        32           h31bf         1   UNL       h31        32     0.04512        1.0080 ; qtot   -0.226
        33           h32bf         1   UNL       h32        33     0.04512        1.0080 ; qtot   -0.180
        34           h33bf         1   UNL       h33        34     0.04512        1.0080 ; qtot   -0.135
        35           h34bf         1   UNL       h34        35     0.04512        1.0080 ; qtot   -0.090
        36           h35bf         1   UNL       h35        36     0.04512        1.0080 ; qtot   -0.045
        37           h36bf         1   UNL       h36        37     0.04513        1.0080 ; qtot   -0.000

[ bonds ]
;       ai        aj funct               r               k
         1         2     1        0.141281   282032.831885
         1         3     1        0.138640   337451.091699
         1        23     1        0.108506   324540.091016
         2         4     1        0.141572   265892.127441
         2         5     1        0.138605   255086.457129
         3         6     1        0.141015   276845.989600
         3        24     1        0.108469   325115.084570
         4         7     1        0.140508   292757.498486
         4         8     1        0.146875   200601.655273
         5        11     1        0.130004   426514.722949
         6         7     1        0.138620   318131.962012
         6        20     1        0.175422   152384.630469
         7        25     1        0.108380   327809.198535
         8         9     1        0.140195   209064.142578
         8        10     1        0.122777   612586.069434
         9        11     1        0.137908   255004.968213
         9        26     1        0.101480   412787.019971
        11        12     1        0.148032   204065.381104
        12        13     1        0.140471   289559.026611
        12        17     1        0.140471   289559.026611
        13        14     1        0.139386   326214.584814
        13        27     1        0.108506   321458.476953
        14        15     1        0.140255   285418.312012
        14        28     1        0.108556   319655.914551
        15        16     1        0.140255   285418.312012
        15        18     1        0.153061   167064.459033
        16        17     1        0.139386   326214.584814
        16        29     1        0.108556   319655.914551
        17        30     1        0.108506   321458.502490
        18        19     1        0.144382   176998.969165
        18        21     1        0.153644   175656.419482
        18        22     1        0.153644   175656.419482
        19        31     1        0.097079   466958.149512
        21        32     1        0.109340   302095.806494
        21        33     1        0.109340   302095.806494
        21        34     1        0.109340   302095.806494
        22        35     1        0.109340   302095.806494
        22        36     1        0.109340   302095.806494
        22        37     1        0.109340   302095.806494

[ angles ]
;       ai        aj        ak funct           theta             cth
         1         2         4     1      118.356422      616.748388
         1         2         5     1      118.578514      426.331986
         1         3         6     1      119.856216      646.042453
         1         3        24     1      120.705223      425.760370
         2         1         3     1      120.650925      696.222490
         2         1        23     1      118.294388      456.829200
         2         4         7     1      121.013283      724.131678
         2         4         8     1      119.076492      856.045085
         2         5        11     1      118.072708      319.684325
         3         1        23     1      120.996216      428.989409
         3         6         7     1      121.231079      651.543658
         3         6        20     1      118.750534      404.279064
         4         2         5     1      122.974350      729.375723
         4         7         6     1      118.923035      561.902211
         4         7        25     1      119.114441      415.897682
         4         8         9     1      112.788879      613.837669
         4         8        10     1      126.303055      461.403981
         5        11         9     1      122.649086      510.787707
         5        11        12     1      120.144737      397.378394
         6         3        24     1      119.576584      440.035646
         6         7        25     1      121.989258      404.027906
         7         4         8     1      119.726028      486.955136
         7         6        20     1      119.862015      339.001073
         8         9        11     1      124.970825      718.869182
         8         9        26     1      114.860107      511.112827
         9         8        10     1      120.540405      782.210790
         9        11        12     1      117.435585      653.950786
        11         9        26     1      120.328003      426.351937
        11        12        13     1      120.681503      548.326428
        11        12        17     1      120.681503      548.326428
        12        13        14     1      120.499977      679.153103
        12        13        27     1      119.853783      419.505789
        12        17        16     1      120.499977      679.153103
        12        17        30     1      119.853783      419.505789
        13        12        17     1      118.451012      558.728842
        13        14        15     1      120.933960      722.975294
        13        14        28     1      119.310745      430.952351
        14        13        27     1      119.619583      424.105278
        14        15        16     1      118.030006      644.246429
        14        15        18     1      120.914795      498.155808
        15        14        28     1      119.809998      401.303639
        15        16        17     1      120.933960      722.975294
        15        16        29     1      119.809998      401.303671
        15        18        19     1      108.993263      692.794836
        15        18        21     1      110.967125      628.055391
        15        18        22     1      110.967125      628.055391
        16        15        18     1      120.914795      498.155808
        16        17        30     1      119.619583      424.105214
        17        16        29     1      119.310730      430.952351
        18        19        31     1      107.614967      572.046955
        18        21        32     1      110.548935      458.224962
        18        21        33     1      110.548935      458.224962
        18        21        34     1      110.548935      458.224962
        18        22        35     1      110.548935      458.224962
        18        22        36     1      110.548935      458.224962
        18        22        37     1      110.548935      458.224962
        19        18        21     1      107.278610      609.475994
        19        18        22     1      107.278610      609.475994
        21        18        22     1      110.435745      551.993621
        32        21        33     1      108.447632      360.423356
        32        21        34     1      108.447632      360.423356
        33        21        34     1      108.447632      360.423356
        35        22        36     1      108.447632      360.423356
        35        22        37     1      108.447632      360.423356
        36        22        37     1      108.447632      360.423356

[ dihedrals ] ; propers for gromacs 4.5 or higher, use funct 9
;       ai        aj        ak        al funct           phase               k        pn
         1         2         4         7     9        0.000000        0.021581         1
         1         2         4         7     9      180.000000       12.741667         2
         1         2         4         7     9        0.000000       -0.924915         3
         1         2         4         7     9      180.000000       -0.137106         4
         1         2         4         8     9        0.000000        0.315737         1
         1         2         4         8     9      180.000000       11.428585         2
         1         2         4         8     9        0.000000       -0.267569         3
         1         2         4         8     9      180.000000       -0.199164         4
         1         2         5        11     9        0.000000       -0.244343         1
         1         2         5        11     9      180.000000        7.283001         2
         1         2         5        11     9        0.000000        1.085171         3
         1         2         5        11     9      180.000000       -0.166095         4
         1         3         6         7     9        0.000000       -0.157343         1
         1         3         6         7     9      180.000000       16.368858         2
         1         3         6         7     9        0.000000       -1.201008         3
         1         3         6         7     9      180.000000       -0.302219         4
         1         3         6        20     9        0.000000        0.306982         1
         1         3         6        20     9      180.000000       17.270165         2
         1         3         6        20     9        0.000000        0.223067         3
         1         3         6        20     9      180.000000       -0.451610         4
         2         1         3         6     9        0.000000       -0.076518         1
         2         1         3         6     9      180.000000       19.989488         2
         2         1         3         6     9        0.000000       -1.357526         3
         2         1         3         6     9      180.000000       -0.425946         4
         2         1         3        24     9        0.000000       -0.000721         1
         2         1         3        24     9      180.000000       15.239998         2
         2         1         3        24     9        0.000000       -0.368496         3
         2         1         3        24     9      180.000000        0.104536         4
         2         4         7         6     9        0.000000       -0.140902         1
         2         4         7         6     9      180.000000       16.999068         2
         2         4         7         6     9        0.000000       -1.165081         3
         2         4         7         6     9      180.000000       -0.271210         4
         2         4         7        25     9        0.000000        0.085848         1
         2         4         7        25     9      180.000000       12.479900         2
         2         4         7        25     9        0.000000       -0.382116         3
         2         4         7        25     9      180.000000        0.063533         4
         2         4         8         9     9        0.000000        0.191869         1
         2         4         8         9     9      180.000000        4.044352         2
         2         4         8         9     9        0.000000        0.213908         3
         2         4         8         9     9      180.000000        0.063111         4
         2         4         8        10     9        0.000000       -0.104882         1
         2         4         8        10     9      180.000000        7.737152         2
         2         4         8        10     9        0.000000        0.133131         3
         2         4         8        10     9      180.000000       -0.395518         4
         2         5        11         9     9        0.000000       -0.338060         1
         2         5        11         9     9      180.000000       36.508913         2
         2         5        11         9     9        0.000000       -0.425546         3
         2         5        11         9     9      180.000000       -1.042783         4
         2         5        11        12     9        0.000000        0.710649         1
         2         5        11        12     9      180.000000       30.637728         2
         2         5        11        12     9        0.000000        1.370006         3
         2         5        11        12     9      180.000000       -1.253026         4
         3         1         2         4     9        0.000000       -0.155659         1
         3         1         2         4     9      180.000000       15.888014         2
         3         1         2         4     9        0.000000       -0.970006         3
         3         1         2         4     9      180.000000       -0.260989         4
         3         1         2         5     9        0.000000        0.445816         1
         3         1         2         5     9      180.000000       16.180073         2
         3         1         2         5     9        0.000000        0.219160         3
         3         1         2         5     9      180.000000       -0.325177         4
         3         6         7         4     9        0.000000       -0.054632         1
         3         6         7         4     9      180.000000       18.113270         2
         3         6         7         4     9        0.000000       -1.274425         3
         3         6         7         4     9      180.000000       -0.413388         4
         3         6         7        25     9        0.000000        0.031116         1
         3         6         7        25     9      180.000000       14.007306         2
         3         6         7        25     9        0.000000       -0.384694         3
         3         6         7        25     9      180.000000        0.117428         4
         4         2         1        23     9        0.000000       -0.125301         1
         4         2         1        23     9      180.000000       12.296569         2
         4         2         1        23     9        0.000000       -0.292905         3
         4         2         1        23     9      180.000000       -0.006585         4
         4         2         5        11     9        0.000000        0.643501         1
         4         2         5        11     9      180.000000        5.580430         2
         4         2         5        11     9        0.000000        1.028804         3
         4         2         5        11     9      180.000000       -0.165034         4
         4         7         6        20     9        0.000000        0.296668         1
         4         7         6        20     9      180.000000       19.938818         2
         4         7         6        20     9        0.000000        0.338222         3
         4         7         6        20     9      180.000000       -0.727806         4
         4         8         9        11     9        0.000000       -0.428781         1
         4         8         9        11     9      180.000000        3.456563         2
         4         8         9        11     9        0.000000        0.180359         3
         4         8         9        11     9      180.000000        0.100768         4
         4         8         9        26     9        0.000000       -0.874043         1
         4         8         9        26     9      180.000000        7.049458         2
         4         8         9        26     9        0.000000        0.021178         3
         4         8         9        26     9      180.000000       -0.078861         4
         5         2         1        23     9        0.000000        0.209807         1
         5         2         1        23     9      180.000000       13.874755         2
         5         2         1        23     9        0.000000       -0.206137         3
         5         2         1        23     9      180.000000        0.080271         4
         5         2         4         7     9        0.000000        0.314599         1
         5         2         4         7     9      180.000000       13.376600         2
         5         2         4         7     9        0.000000       -0.000194         3
         5         2         4         7     9      180.000000       -0.233999         4
         5         2         4         8     9        0.000000        0.619649         1
         5         2         4         8     9      180.000000       12.039212         2
         5         2         4         8     9        0.000000        0.633010         3
         5         2         4         8     9      180.000000       -0.535941         4
         5        11         9         8     9        0.000000       -0.034619         1
         5        11         9         8     9      180.000000        7.168425         2
         5        11         9         8     9        0.000000        0.185321         3
         5        11         9         8     9      180.000000       -0.227486         4
         5        11         9        26     9        0.000000        1.385951         1
         5        11         9        26     9      180.000000        6.868330         2
         5        11         9        26     9        0.000000       -0.290598         3
         5        11         9        26     9      180.000000       -0.133254         4
         5        11        12        13     9        0.000000       -0.026616         1
         5        11        12        13     9      180.000000        3.709225         2
         5        11        12        13     9        0.000000       -0.058744         3
         5        11        12        13     9      180.000000       -0.055174         4
         5        11        12        17     9        0.000000       -0.026616         1
         5        11        12        17     9      180.000000        3.709225         2
         5        11        12        17     9        0.000000       -0.058744         3
         5        11        12        17     9      180.000000       -0.055174         4
         6         3         1        23     9        0.000000        0.043733         1
         6         3         1        23     9      180.000000       15.187460         2
         6         3         1        23     9        0.000000       -0.545733         3
         6         3         1        23     9      180.000000        0.238384         4
         6         7         4         8     9        0.000000        0.078625         1
         6         7         4         8     9      180.000000       13.637242         2
         6         7         4         8     9        0.000000       -0.254202         3
         6         7         4         8     9      180.000000       -0.178701         4
         7         4         8         9     9        0.000000       -0.233899         1
         7         4         8         9     9      180.000000        4.470017         2
         7         4         8         9     9        0.000000        0.365783         3
         7         4         8         9     9      180.000000        0.056585         4
         7         4         8        10     9        0.000000       -0.947842         1
         7         4         8        10     9      180.000000        6.530533         2
         7         4         8        10     9        0.000000       -0.090091         3
         7         4         8        10     9      180.000000       -0.071506         4
         7         6         3        24     9        0.000000       -0.107422         1
         7         6         3        24     9      180.000000       12.951002         2
         7         6         3        24     9        0.000000       -0.544332         3
         7         6         3        24     9      180.000000        0.125592         4
         8         4         7        25     9        0.000000        0.168364         1
         8         4         7        25     9      180.000000       11.170741         2
         8         4         7        25     9        0.000000       -0.385100         3
         8         4         7        25     9      180.000000        0.130513         4
         8         9        11        12     9        0.000000        0.349110         1
         8         9        11        12     9      180.000000        7.574460         2
         8         9        11        12     9        0.000000        0.230002         3
         8         9        11        12     9      180.000000       -0.355277         4
         9        11        12        13     9        0.000000        0.019614         1
         9        11        12        13     9      180.000000        3.830435         2
         9        11        12        13     9        0.000000        0.168120         3
         9        11        12        13     9      180.000000       -0.302758         4
         9        11        12        17     9        0.000000        0.019614         1
         9        11        12        17     9      180.000000        3.830435         2
         9        11        12        17     9        0.000000        0.168120         3
         9        11        12        17     9      180.000000       -0.302758         4
        10         8         9        11     9        0.000000       -0.479508         1
        10         8         9        11     9      180.000000        9.473264         2
        10         8         9        11     9        0.000000       -0.302193         3
        10         8         9        11     9      180.000000       -0.428487         4
        10         8         9        26     9        0.000000        0.200334         1
        10         8         9        26     9      180.000000       10.133011         2
        10         8         9        26     9        0.000000       -0.556273         3
        10         8         9        26     9      180.000000        0.240432         4
        11        12        13        14     9        0.000000        0.049032         1
        11        12        13        14     9      180.000000       14.913803         2
        11        12        13        14     9        0.000000       -0.374008         3
        11        12        13        14     9      180.000000       -0.175342         4
        11        12        13        27     9        0.000000       -0.022072         1
        11        12        13        27     9      180.000000       12.369898         2
        11        12        13        27     9        0.000000       -0.344720         3
        11        12        13        27     9      180.000000        0.164104         4
        11        12        17        16     9        0.000000        0.049032         1
        11        12        17        16     9      180.000000       14.913803         2
        11        12        17        16     9        0.000000       -0.374008         3
        11        12        17        16     9      180.000000       -0.175342         4
        11        12        17        30     9        0.000000       -0.022072         1
        11        12        17        30     9      180.000000       12.369899         2
        11        12        17        30     9        0.000000       -0.344721         3
        11        12        17        30     9      180.000000        0.164104         4
        12        11         9        26     9        0.000000       -0.489772         1
        12        11         9        26     9      180.000000        6.311139         2
        12        11         9        26     9        0.000000       -0.145705         3
        12        11         9        26     9      180.000000       -0.141797         4
        12        13        14        15     9        0.000000       -0.029852         1
        12        13        14        15     9      180.000000       19.279119         2
        12        13        14        15     9        0.000000       -1.746203         3
        12        13        14        15     9      180.000000       -0.394485         4
        12        13        14        28     9        0.000000       -0.089815         1
        12        13        14        28     9      180.000000       15.139981         2
        12        13        14        28     9        0.000000       -0.484184         3
        12        13        14        28     9      180.000000        0.126791         4
        12        17        16        15     9        0.000000       -0.029852         1
        12        17        16        15     9      180.000000       19.279119         2
        12        17        16        15     9        0.000000       -1.746203         3
        12        17        16        15     9      180.000000       -0.394485         4
        12        17        16        29     9        0.000000       -0.089816         1
        12        17        16        29     9      180.000000       15.139981         2
        12        17        16        29     9        0.000000       -0.484184         3
        12        17        16        29     9      180.000000        0.126791         4
        13        12        17        16     9        0.000000       -0.120070         1
        13        12        17        16     9      180.000000       18.086734         2
        13        12        17        16     9        0.000000       -1.494844         3
        13        12        17        16     9      180.000000       -0.364611         4
        13        12        17        30     9        0.000000       -0.074437         1
        13        12        17        30     9      180.000000       13.866631         2
        13        12        17        30     9        0.000000       -0.616165         3
        13        12        17        30     9      180.000000        0.084716         4
        13        14        15        16     9        0.000000       -0.044566         1
        13        14        15        16     9      180.000000       18.663695         2
        13        14        15        16     9        0.000000       -1.272081         3
        13        14        15        16     9      180.000000       -0.423270         4
        13        14        15        18     9        0.000000        0.101251         1
        13        14        15        18     9      180.000000       14.310310         2
        13        14        15        18     9        0.000000       -0.089938         3
        13        14        15        18     9      180.000000       -0.134185         4
        14        13        12        17     9        0.000000       -0.120070         1
        14        13        12        17     9      180.000000       18.086734         2
        14        13        12        17     9        0.000000       -1.494844         3
        14        13        12        17     9      180.000000       -0.364611         4
        14        15        16        17     9        0.000000       -0.044566         1
        14        15        16        17     9      180.000000       18.663695         2
        14        15        16        17     9        0.000000       -1.272081         3
        14        15        16        17     9      180.000000       -0.423270         4
        14        15        16        29     9        0.000000       -0.032101         1
        14        15        16        29     9      180.000000       14.870907         2
        14        15        16        29     9        0.000000       -0.644491         3
        14        15        16        29     9      180.000000        0.032834         4
        14        15        18        19     9        0.000000        0.073774         1
        14        15        18        19     9      180.000000        0.989723         2
        14        15        18        19     9        0.000000        0.067884         3
        14        15        18        19     9      180.000000        0.132387         4
        14        15        18        21     9        0.000000        0.038083         1
        14        15        18        21     9      180.000000        0.245516         2
        14        15        18        21     9        0.000000        0.051921         3
        14        15        18        21     9      180.000000        0.164157         4
        14        15        18        22     9        0.000000        0.038083         1
        14        15        18        22     9      180.000000        0.245516         2
        14        15        18        22     9        0.000000        0.051921         3
        14        15        18        22     9      180.000000        0.164157         4
        15        14        13        27     9        0.000000        0.014394         1
        15        14        13        27     9      180.000000       15.258784         2
        15        14        13        27     9        0.000000       -0.668963         3
        15        14        13        27     9      180.000000        0.129899         4
        15        16        17        30     9        0.000000        0.014395         1
        15        16        17        30     9      180.000000       15.258780         2
        15        16        17        30     9        0.000000       -0.668963         3
        15        16        17        30     9      180.000000        0.129900         4
        15        18        19        31     9        0.000000        2.043549         1
        15        18        19        31     9      180.000000       -0.635021         2
        15        18        19        31     9        0.000000        0.964895         3
        15        18        19        31     9      180.000000        0.005137         4
        15        18        21        32     9        0.000000       -0.061558         1
        15        18        21        32     9      180.000000        0.025199         2
        15        18        21        32     9        0.000000        0.622302         3
        15        18        21        32     9      180.000000        0.008500         4
        15        18        21        33     9        0.000000       -0.061558         1
        15        18        21        33     9      180.000000        0.025199         2
        15        18        21        33     9        0.000000        0.622302         3
        15        18        21        33     9      180.000000        0.008500         4
        15        18        21        34     9        0.000000       -0.061558         1
        15        18        21        34     9      180.000000        0.025199         2
        15        18        21        34     9        0.000000        0.622302         3
        15        18        21        34     9      180.000000        0.008500         4
        15        18        22        35     9        0.000000       -0.061558         1
        15        18        22        35     9      180.000000        0.025199         2
        15        18        22        35     9        0.000000        0.622302         3
        15        18        22        35     9      180.000000        0.008500         4
        15        18        22        36     9        0.000000       -0.061558         1
        15        18        22        36     9      180.000000        0.025199         2
        15        18        22        36     9        0.000000        0.622302         3
        15        18        22        36     9      180.000000        0.008500         4
        15        18        22        37     9        0.000000       -0.061558         1
        15        18        22        37     9      180.000000        0.025199         2
        15        18        22        37     9        0.000000        0.622302         3
        15        18        22        37     9      180.000000        0.008500         4
        16        15        14        28     9        0.000000       -0.032102         1
        16        15        14        28     9      180.000000       14.870907         2
        16        15        14        28     9        0.000000       -0.644491         3
        16        15        14        28     9      180.000000        0.032834         4
        16        15        18        19     9        0.000000        0.073774         1
        16        15        18        19     9      180.000000        0.989723         2
        16        15        18        19     9        0.000000        0.067884         3
        16        15        18        19     9      180.000000        0.132387         4
        16        15        18        21     9        0.000000        0.038083         1
        16        15        18        21     9      180.000000        0.245516         2
        16        15        18        21     9        0.000000        0.051921         3
        16        15        18        21     9      180.000000        0.164157         4
        16        15        18        22     9        0.000000        0.038083         1
        16        15        18        22     9      180.000000        0.245516         2
        16        15        18        22     9        0.000000        0.051921         3
        16        15        18        22     9      180.000000        0.164157         4
        17        12        13        27     9        0.000000       -0.074437         1
        17        12        13        27     9      180.000000       13.866631         2
        17        12        13        27     9        0.000000       -0.616164         3
        17        12        13        27     9      180.000000        0.084716         4
        17        16        15        18     9        0.000000        0.101251         1
        17        16        15        18     9      180.000000       14.310310         2
        17        16        15        18     9        0.000000       -0.089938         3
        17        16        15        18     9      180.000000       -0.134185         4
        18        15        14        28     9        0.000000       -0.107353         1
        18        15        14        28     9      180.000000       12.665265         2
        18        15        14        28     9        0.000000       -0.279679         3
        18        15        14        28     9      180.000000        0.197103         4
        18        15        16        29     9        0.000000       -0.107353         1
        18        15        16        29     9      180.000000       12.665268         2
        18        15        16        29     9        0.000000       -0.279679         3
        18        15        16        29     9      180.000000        0.197103         4
        19        18        21        32     9        0.000000        0.066220         1
        19        18        21        32     9      180.000000       -0.005018         2
        19        18        21        32     9        0.000000        0.478904         3
        19        18        21        32     9      180.000000        0.036037         4
        19        18        21        33     9        0.000000        0.066220         1
        19        18        21        33     9      180.000000       -0.005018         2
        19        18        21        33     9        0.000000        0.478904         3
        19        18        21        33     9      180.000000        0.036037         4
        19        18        21        34     9        0.000000        0.066220         1
        19        18        21        34     9      180.000000       -0.005018         2
        19        18        21        34     9        0.000000        0.478904         3
        19        18        21        34     9      180.000000        0.036037         4
        19        18        22        35     9        0.000000        0.066220         1
        19        18        22        35     9      180.000000       -0.005018         2
        19        18        22        35     9        0.000000        0.478904         3
        19        18        22        35     9      180.000000        0.036037         4
        19        18        22        36     9        0.000000        0.066220         1
        19        18        22        36     9      180.000000       -0.005018         2
        19        18        22        36     9        0.000000        0.478904         3
        19        18        22        36     9      180.000000        0.036037         4
        19        18        22        37     9        0.000000        0.066220         1
        19        18        22        37     9      180.000000       -0.005018         2
        19        18        22        37     9        0.000000        0.478904         3
        19        18        22        37     9      180.000000        0.036037         4
        20         6         3        24     9        0.000000        0.168670         1
        20         6         3        24     9      180.000000       12.492241         2
        20         6         3        24     9        0.000000       -0.147143         3
        20         6         3        24     9      180.000000        0.238091         4
        20         6         7        25     9        0.000000        0.113880         1
        20         6         7        25     9      180.000000       13.592711         2
        20         6         7        25     9        0.000000       -0.138247         3
        20         6         7        25     9      180.000000        0.355789         4
        21        18        19        31     9        0.000000       -0.807150         1
        21        18        19        31     9      180.000000        0.393125         2
        21        18        19        31     9        0.000000        0.885734         3
        21        18        19        31     9      180.000000        0.022606         4
        21        18        22        35     9        0.000000       -0.100193         1
        21        18        22        35     9      180.000000        0.026286         2
        21        18        22        35     9        0.000000        0.529878         3
        21        18        22        35     9      180.000000        0.062463         4
        21        18        22        36     9        0.000000       -0.100193         1
        21        18        22        36     9      180.000000        0.026286         2
        21        18        22        36     9        0.000000        0.529878         3
        21        18        22        36     9      180.000000        0.062463         4
        21        18        22        37     9        0.000000       -0.100193         1
        21        18        22        37     9      180.000000        0.026286         2
        21        18        22        37     9        0.000000        0.529878         3
        21        18        22        37     9      180.000000        0.062463         4
        22        18        19        31     9        0.000000       -0.807150         1
        22        18        19        31     9      180.000000        0.393125         2
        22        18        19        31     9        0.000000        0.885734         3
        22        18        19        31     9      180.000000        0.022606         4
        22        18        21        32     9        0.000000       -0.100193         1
        22        18        21        32     9      180.000000        0.026286         2
        22        18        21        32     9        0.000000        0.529878         3
        22        18        21        32     9      180.000000        0.062463         4
        22        18        21        33     9        0.000000       -0.100193         1
        22        18        21        33     9      180.000000        0.026286         2
        22        18        21        33     9        0.000000        0.529878         3
        22        18        21        33     9      180.000000        0.062463         4
        22        18        21        34     9        0.000000       -0.100193         1
        22        18        21        34     9      180.000000        0.026286         2
        22        18        21        34     9        0.000000        0.529878         3
        22        18        21        34     9      180.000000        0.062463         4
        23         1         3        24     9        0.000000       -0.142694         1
        23         1         3        24     9      180.000000       12.442699         2
        23         1         3        24     9        0.000000       -0.756157         3
        23         1         3        24     9      180.000000        0.390956         4
        27        13        14        28     9        0.000000       -0.224986         1
        27        13        14        28     9      180.000000       12.329039         2
        27        13        14        28     9        0.000000       -0.815557         3
        27        13        14        28     9      180.000000        0.376642         4
        29        16        17        30     9        0.000000       -0.224987         1
        29        16        17        30     9      180.000000       12.329039         2
        29        16        17        30     9        0.000000       -0.815557         3
        29        16        17        30     9      180.000000        0.376642         4

[ dihedrals ] ; impropers
;       ai        aj        ak        al funct           phase               k        pn
         2         1         4         5     4      180.000000       13.603477         2
         2         4         5         1     4      180.000000       13.603477         2
         2         5         1         4     4      180.000000       13.603477         2
         7         4         6        25     4      180.000000        0.233896         2
         7         6        25         4     4      180.000000        0.233896         2
         7        25         4         6     4      180.000000        0.233896         2
         8         4         9        10     4      180.000000       27.893333         2
         8         9        10         4     4      180.000000       27.893333         2
         8        10         4         9     4      180.000000       27.893333         2
        11         5         9        12     4      180.000000        9.044406         2
        11         9        12         5     4      180.000000        9.044406         2
        11        12         5         9     4      180.000000        9.044406         2

[ pairs ]
;       ai        aj funct
         1         7     1
         1         8     1
         1        11     1
         1        20     1
         2         6     1
         2         9     1
         2        10     1
         2        12     1
         2        24     1
         2        25     1
         3         4     1
         3         5     1
         3        25     1
         4        11     1
         4        20     1
         4        23     1
         4        26     1
         5         7     1
         5         8     1
         5        13     1
         5        17     1
         5        23     1
         5        26     1
         6         8     1
         6        23     1
         7         9     1
         7        10     1
         7        24     1
         8        12     1
         8        25     1
         9        13     1
         9        17     1
        10        11     1
        10        26     1
        11        14     1
        11        16     1
        11        27     1
        11        30     1
        12        15     1
        12        26     1
        12        28     1
        12        29     1
        13        16     1
        13        18     1
        13        30     1
        14        17     1
        14        19     1
        14        21     1
        14        22     1
        14        29     1
        15        27     1
        15        30     1
        15        31     1
        15        32     1
        15        33     1
        15        34     1
        15        35     1
        15        36     1
        15        37     1
        16        19     1
        16        21     1
        16        22     1
        16        28     1
        17        18     1
        17        27     1
        18        28     1
        18        29     1
        19        32     1
        19        33     1
        19        34     1
        19        35     1
        19        36     1
        19        37     1
        20        24     1
        20        25     1
        21        31     1
        21        35     1
        21        36     1
        21        37     1
        22        31     1
        22        32     1
        22        33     1
        22        34     1
        23        24     1
        27        28     1
        29        30     1
