; ITP file created by ByteFF-ML, 2026-02-21 07:52:10.942221

[ atomtypes ]
;name           bonded.type        at.num        mass        charge   ptype           sigma         epsilon
 c0bf                                   6      0.0000       0.00000       A     3.31467e-01     4.13318e-01
 c1bf                                   6      0.0000       0.00000       A     3.31455e-01     4.11012e-01
 c2bf                                   6      0.0000       0.00000       A     3.31479e-01     4.12518e-01
 c3bf                                   6      0.0000       0.00000       A     3.31540e-01     4.12458e-01
 n4bf                                   7      0.0000       0.00000       A     3.38346e-01     3.92604e-01
 c5bf                                   6      0.0000       0.00000       A     3.31457e-01     4.13340e-01
 c6bf                                   6      0.0000       0.00000       A     3.31513e-01     4.12791e-01
 c7bf                                   6      0.0000       0.00000       A     3.31441e-01     4.13326e-01
 n8bf                                   7      0.0000       0.00000       A     3.26530e-01     5.01306e-01
 o9bf                                   8      0.0000       0.00000       A     3.04637e-01     6.12097e-01
 c10bf                                  6      0.0000       0.00000       A     3.31679e-01     4.10311e-01
 c11bf                                  6      0.0000       0.00000       A     3.31390e-01     4.12402e-01
 c12bf                                  6      0.0000       0.00000       A     3.31454e-01     4.13104e-01
 c13bf                                  6      0.0000       0.00000       A     3.31511e-01     4.13146e-01
 c14bf                                  6      0.0000       0.00000       A     3.31413e-01     4.11794e-01
 c15bf                                  6      0.0000       0.00000       A     3.31511e-01     4.13146e-01
 c16bf                                  6      0.0000       0.00000       A     3.31454e-01     4.13104e-01
 c17bf                                  6      0.0000       0.00000       A     3.39703e-01     4.51565e-01
 o18bf                                  8      0.0000       0.00000       A     3.24486e-01     3.89155e-01
 c19bf                                  6      0.0000       0.00000       A     3.39812e-01     4.51155e-01
 c20bf                                  6      0.0000       0.00000       A     3.39812e-01     4.51155e-01
 f21bf                                  9      0.0000       0.00000       A     3.03423e-01     3.48888e-01
 h22bf                                  1      0.0000       0.00000       A     2.62461e-01     6.74706e-02
 h23bf                                  1      0.0000       0.00000       A     2.62527e-01     6.74307e-02
 h24bf                                  1      0.0000       0.00000       A     2.62555e-01     6.74627e-02
 h25bf                                  1      0.0000       0.00000       A     1.10472e-01     4.18202e-02
 h26bf                                  1      0.0000       0.00000       A     2.62492e-01     6.72312e-02
 h27bf                                  1      0.0000       0.00000       A     2.62543e-01     6.73669e-02
 h28bf                                  1      0.0000       0.00000       A     2.62543e-01     6.73669e-02
 h29bf                                  1      0.0000       0.00000       A     2.62492e-01     6.72312e-02
 h30bf                                  1      0.0000       0.00000       A     5.37114e-02     1.97753e-02
 h31bf                                  1      0.0000       0.00000       A     2.60029e-01     8.77503e-02
 h32bf                                  1      0.0000       0.00000       A     2.60029e-01     8.77503e-02
 h33bf                                  1      0.0000       0.00000       A     2.60029e-01     8.77503e-02
 h34bf                                  1      0.0000       0.00000       A     2.60029e-01     8.77503e-02
 h35bf                                  1      0.0000       0.00000       A     2.60029e-01     8.77503e-02
 h36bf                                  1      0.0000       0.00000       A     2.60029e-01     8.77503e-02

[ moleculetype ]
;name             nrexcl
 5f                    3

[ atoms ]
;       nr            type      resi   res      atom      cgnr      charge          mass ; qtot
         1            c0bf         1   UNL        c0         1     0.17271       12.0110 ; qtot    0.173
         2            c1bf         1   UNL        c1         2     0.15794       12.0110 ; qtot    0.331
         3            c2bf         1   UNL        c2         3    -0.12444       12.0110 ; qtot    0.206
         4            c3bf         1   UNL        c3         4    -0.18469       12.0110 ; qtot    0.022
         5            n4bf         1   UNL        n4         5    -0.60938       14.0070 ; qtot   -0.588
         6            c5bf         1   UNL        c5         6    -0.10211       12.0110 ; qtot   -0.690
         7            c6bf         1   UNL        c6         7    -0.05806       12.0110 ; qtot   -0.748
         8            c7bf         1   UNL        c7         8     0.57410       12.0110 ; qtot   -0.174
         9            n8bf         1   UNL        n8         9    -0.42602       14.0070 ; qtot   -0.600
        10            o9bf         1   UNL        o9        10    -0.52957       15.9990 ; qtot   -1.130
        11           c10bf         1   UNL       c10        11     0.56567       12.0110 ; qtot   -0.564
        12           c11bf         1   UNL       c11        12    -0.15977       12.0110 ; qtot   -0.724
        13           c12bf         1   UNL       c12        13    -0.06622       12.0110 ; qtot   -0.790
        14           c13bf         1   UNL       c13        14    -0.10147       12.0110 ; qtot   -0.891
        15           c14bf         1   UNL       c14        15    -0.09419       12.0110 ; qtot   -0.985
        16           c15bf         1   UNL       c15        16    -0.10147       12.0110 ; qtot   -1.087
        17           c16bf         1   UNL       c16        17    -0.06622       12.0110 ; qtot   -1.153
        18           c17bf         1   UNL       c17        18     0.22590       12.0110 ; qtot   -0.927
        19           o18bf         1   UNL       o18        19    -0.66653       15.9990 ; qtot   -1.594
        20           c19bf         1   UNL       c19        20    -0.10406       12.0110 ; qtot   -1.698
        21           c20bf         1   UNL       c20        21    -0.10406       12.0110 ; qtot   -1.802
        22           f21bf         1   UNL       f21        22    -0.15557       18.9980 ; qtot   -1.958
        23           h22bf         1   UNL       h22        23     0.13705        1.0080 ; qtot   -1.820
        24           h23bf         1   UNL       h23        24     0.12809        1.0080 ; qtot   -1.692
        25           h24bf         1   UNL       h24        25     0.14421        1.0080 ; qtot   -1.548
        26           h25bf         1   UNL       h25        26     0.33464        1.0080 ; qtot   -1.214
        27           h26bf         1   UNL       h26        27     0.12685        1.0080 ; qtot   -1.087
        28           h27bf         1   UNL       h27        28     0.12301        1.0080 ; qtot   -0.964
        29           h28bf         1   UNL       h28        29     0.12301        1.0080 ; qtot   -0.841
        30           h29bf         1   UNL       h29        30     0.12685        1.0080 ; qtot   -0.714
        31           h30bf         1   UNL       h30        31     0.44306        1.0080 ; qtot   -0.271
        32           h31bf         1   UNL       h31        32     0.04512        1.0080 ; qtot   -0.226
        33           h32bf         1   UNL       h32        33     0.04512        1.0080 ; qtot   -0.180
        34           h33bf         1   UNL       h33        34     0.04512        1.0080 ; qtot   -0.135
        35           h34bf         1   UNL       h34        35     0.04512        1.0080 ; qtot   -0.090
        36           h35bf         1   UNL       h35        36     0.04512        1.0080 ; qtot   -0.045
        37           h36bf         1   UNL       h36        37     0.04514        1.0080 ; qtot    0.000

[ bonds ]
;       ai        aj funct               r               k
         1         2     1        0.141430   259641.102734
         1         3     1        0.138030   336165.119482
         1        22     1        0.134823   305149.917090
         2         4     1        0.141643   265859.746387
         2         5     1        0.138096   261613.972119
         3         6     1        0.140924   292381.387939
         3        23     1        0.108491   324726.282080
         4         7     1        0.140504   291986.047949
         4         8     1        0.146920   200199.011670
         5        11     1        0.130068   422115.700488
         6         7     1        0.138875   327925.622217
         6        24     1        0.108532   323306.291113
         7        25     1        0.108436   326364.691943
         8         9     1        0.140135   210253.418530
         8        10     1        0.122792   612093.356445
         9        11     1        0.137808   256097.190381
         9        26     1        0.101480   412787.019971
        11        12     1        0.147962   204054.719360
        12        13     1        0.140471   289559.026611
        12        17     1        0.140471   289559.026611
        13        14     1        0.139386   326214.584814
        13        27     1        0.108506   321458.476953
        14        15     1        0.140255   285418.312012
        14        28     1        0.108556   319655.914551
        15        16     1        0.140255   285418.312012
        15        18     1        0.153061   167064.459033
        16        17     1        0.139386   326214.584814
        16        29     1        0.108556   319655.914551
        17        30     1        0.108506   321458.502490
        18        19     1        0.144382   176998.969165
        18        20     1        0.153644   175656.419482
        18        21     1        0.153644   175656.419482
        19        31     1        0.097079   466958.149512
        20        32     1        0.109340   302095.806494
        20        33     1        0.109340   302095.806494
        20        34     1        0.109340   302095.806494
        21        35     1        0.109340   302095.806494
        21        36     1        0.109340   302095.806494
        21        37     1        0.109340   302095.806494

[ angles ]
;       ai        aj        ak funct           theta             cth
         1         2         4     1      117.071373      606.022739
         1         2         5     1      119.255699      338.017798
         1         3         6     1      119.546974      716.378548
         1         3        23     1      119.163254      446.951350
         2         1         3     1      122.115395      630.665538
         2         1        22     1      118.489479      475.700421
         2         4         7     1      121.142029      709.003303
         2         4         8     1      118.624390      843.025564
         2         5        11     1      117.923729      316.558519
         3         1        22     1      119.236534      560.636528
         3         6         7     1      120.357155      702.849370
         3         6        24     1      119.288124      445.175212
         4         2         5     1      123.528732      724.357171
         4         7         6     1      119.514221      639.994883
         4         7        25     1      118.486649      433.546315
         4         8         9     1      112.904861      618.043311
         4         8        10     1      126.368248      461.925194
         5        11         9     1      122.630020      508.093159
         5        11        12     1      120.018456      392.911220
         6         3        23     1      121.425308      438.251176
         6         7        25     1      121.940086      425.215248
         7         4         8     1      120.179100      510.070466
         7         6        24     1      120.315025      437.704459
         8         9        11     1      124.994614      719.483158
         8         9        26     1      114.865158      511.023000
         9         8        10     1      120.531898      783.572109
         9        11        12     1      117.566299      651.938908
        11         9        26     1      120.287392      426.436337
        11        12        13     1      120.648026      548.419192
        11        12        17     1      120.648026      548.419192
        12        13        14     1      120.499977      679.153103
        12        13        27     1      119.853783      419.505789
        12        17        16     1      120.499977      679.153103
        12        17        30     1      119.853783      419.505789
        13        12        17     1      118.451012      558.728842
        13        14        15     1      120.933960      722.975294
        13        14        28     1      119.310745      430.952351
        14        13        27     1      119.619583      424.105278
        14        15        16     1      118.030006      644.246429
        14        15        18     1      120.914795      498.155808
        15        14        28     1      119.809998      401.303639
        15        16        17     1      120.933960      722.975294
        15        16        29     1      119.809998      401.303671
        15        18        19     1      108.993263      692.794836
        15        18        20     1      110.967125      628.055391
        15        18        21     1      110.967125      628.055391
        16        15        18     1      120.914795      498.155808
        16        17        30     1      119.619583      424.105214
        17        16        29     1      119.310730      430.952351
        18        19        31     1      107.614967      572.046955
        18        20        32     1      110.548935      458.224962
        18        20        33     1      110.548935      458.224962
        18        20        34     1      110.548935      458.224962
        18        21        35     1      110.548935      458.224962
        18        21        36     1      110.548935      458.224962
        18        21        37     1      110.548935      458.224962
        19        18        20     1      107.278610      609.475994
        19        18        21     1      107.278610      609.475994
        20        18        21     1      110.435745      551.993621
        32        20        33     1      108.447632      360.423356
        32        20        34     1      108.447632      360.423356
        33        20        34     1      108.447632      360.423356
        35        21        36     1      108.447632      360.423356
        35        21        37     1      108.447632      360.423356
        36        21        37     1      108.447632      360.423356

[ dihedrals ] ; propers for gromacs 4.5 or higher, use funct 9
;       ai        aj        ak        al funct           phase               k        pn
         1         2         4         7     9        0.000000       -0.026962         1
         1         2         4         7     9      180.000000       12.791977         2
         1         2         4         7     9        0.000000       -1.246037         3
         1         2         4         7     9      180.000000       -0.127568         4
         1         2         4         8     9        0.000000        0.495728         1
         1         2         4         8     9      180.000000       11.327039         2
         1         2         4         8     9        0.000000       -0.226417         3
         1         2         4         8     9      180.000000       -0.200490         4
         1         2         5        11     9        0.000000        1.249019         1
         1         2         5        11     9      180.000000        6.944047         2
         1         2         5        11     9        0.000000        1.141379         3
         1         2         5        11     9      180.000000       -0.344133         4
         1         3         6         7     9        0.000000        0.033777         1
         1         3         6         7     9      180.000000       17.436465         2
         1         3         6         7     9        0.000000       -1.610721         3
         1         3         6         7     9      180.000000       -0.418133         4
         1         3         6        24     9        0.000000        0.179703         1
         1         3         6        24     9      180.000000       13.705527         2
         1         3         6        24     9        0.000000       -0.553088         3
         1         3         6        24     9      180.000000        0.118982         4
         2         1         3         6     9        0.000000        0.027119         1
         2         1         3         6     9      180.000000       18.371514         2
         2         1         3         6     9        0.000000       -1.147212         3
         2         1         3         6     9      180.000000       -0.355149         4
         2         1         3        23     9        0.000000        0.206008         1
         2         1         3        23     9      180.000000       13.374905         2
         2         1         3        23     9        0.000000       -0.421835         3
         2         1         3        23     9      180.000000        0.138287         4
         2         4         7         6     9        0.000000       -0.163609         1
         2         4         7         6     9      180.000000       17.490538         2
         2         4         7         6     9        0.000000       -1.298665         3
         2         4         7         6     9      180.000000       -0.338515         4
         2         4         7        25     9        0.000000        0.171864         1
         2         4         7        25     9      180.000000       12.256465         2
         2         4         7        25     9        0.000000       -0.352247         3
         2         4         7        25     9      180.000000        0.019231         4
         2         4         8         9     9        0.000000        0.196646         1
         2         4         8         9     9      180.000000        4.174348         2
         2         4         8         9     9        0.000000        0.108316         3
         2         4         8         9     9      180.000000        0.067489         4
         2         4         8        10     9        0.000000       -0.424990         1
         2         4         8        10     9      180.000000        7.886115         2
         2         4         8        10     9        0.000000        0.137071         3
         2         4         8        10     9      180.000000       -0.483055         4
         2         5        11         9     9        0.000000       -0.182087         1
         2         5        11         9     9      180.000000       36.208980         2
         2         5        11         9     9        0.000000       -0.486844         3
         2         5        11         9     9      180.000000       -1.106095         4
         2         5        11        12     9        0.000000        0.573011         1
         2         5        11        12     9      180.000000       31.177688         2
         2         5        11        12     9        0.000000        1.335284         3
         2         5        11        12     9      180.000000       -1.437105         4
         3         1         2         4     9        0.000000       -0.172711         1
         3         1         2         4     9      180.000000       12.587173         2
         3         1         2         4     9        0.000000       -0.653604         3
         3         1         2         4     9      180.000000       -0.153225         4
         3         1         2         5     9        0.000000        0.306500         1
         3         1         2         5     9      180.000000       12.074582         2
         3         1         2         5     9        0.000000       -0.026393         3
         3         1         2         5     9      180.000000       -0.071769         4
         3         6         7         4     9        0.000000        0.023124         1
         3         6         7         4     9      180.000000       19.656099         2
         3         6         7         4     9        0.000000       -1.659627         3
         3         6         7         4     9      180.000000       -0.393658         4
         3         6         7        25     9        0.000000        0.063978         1
         3         6         7        25     9      180.000000       15.660435         2
         3         6         7        25     9        0.000000       -0.467688         3
         3         6         7        25     9      180.000000        0.108294         4
         4         2         1        22     9        0.000000        0.363629         1
         4         2         1        22     9      180.000000       18.462153         2
         4         2         1        22     9        0.000000        0.439537         3
         4         2         1        22     9      180.000000       -0.572748         4
         4         2         5        11     9        0.000000        0.142646         1
         4         2         5        11     9      180.000000        5.947254         2
         4         2         5        11     9        0.000000        0.905755         3
         4         2         5        11     9      180.000000       -0.221470         4
         4         7         6        24     9        0.000000        0.034061         1
         4         7         6        24     9      180.000000       15.299338         2
         4         7         6        24     9        0.000000       -0.416329         3
         4         7         6        24     9      180.000000        0.059059         4
         4         8         9        11     9        0.000000       -0.312062         1
         4         8         9        11     9      180.000000        3.216786         2
         4         8         9        11     9        0.000000        0.195021         3
         4         8         9        11     9      180.000000        0.104599         4
         4         8         9        26     9        0.000000       -0.877715         1
         4         8         9        26     9      180.000000        6.944177         2
         4         8         9        26     9        0.000000        0.081628         3
         4         8         9        26     9      180.000000       -0.051478         4
         5         2         1        22     9        0.000000       -0.366532         1
         5         2         1        22     9      180.000000       20.540263         2
         5         2         1        22     9        0.000000        0.582479         3
         5         2         1        22     9      180.000000       -1.249533         4
         5         2         4         7     9        0.000000        0.156666         1
         5         2         4         7     9      180.000000       13.465189         2
         5         2         4         7     9        0.000000       -0.029797         3
         5         2         4         7     9      180.000000       -0.126679         4
         5         2         4         8     9        0.000000        0.512702         1
         5         2         4         8     9      180.000000       12.550375         2
         5         2         4         8     9        0.000000        0.456885         3
         5         2         4         8     9      180.000000       -0.470534         4
         5        11         9         8     9        0.000000       -0.153093         1
         5        11         9         8     9      180.000000        7.489337         2
         5        11         9         8     9        0.000000        0.156759         3
         5        11         9         8     9      180.000000       -0.235034         4
         5        11         9        26     9        0.000000        1.722155         1
         5        11         9        26     9      180.000000        6.896207         2
         5        11         9        26     9        0.000000       -0.253035         3
         5        11         9        26     9      180.000000       -0.129323         4
         5        11        12        13     9        0.000000       -0.159245         1
         5        11        12        13     9      180.000000        3.744774         2
         5        11        12        13     9        0.000000       -0.099812         3
         5        11        12        13     9      180.000000       -0.054980         4
         5        11        12        17     9        0.000000       -0.159245         1
         5        11        12        17     9      180.000000        3.744774         2
         5        11        12        17     9        0.000000       -0.099812         3
         5        11        12        17     9      180.000000       -0.054980         4
         6         3         1        22     9        0.000000        0.455244         1
         6         3         1        22     9      180.000000       24.582037         2
         6         3         1        22     9        0.000000        0.545041         3
         6         3         1        22     9      180.000000       -0.718091         4
         6         7         4         8     9        0.000000       -0.008565         1
         6         7         4         8     9      180.000000       13.651655         2
         6         7         4         8     9        0.000000       -0.529664         3
         6         7         4         8     9      180.000000       -0.078779         4
         7         4         8         9     9        0.000000       -0.391111         1
         7         4         8         9     9      180.000000        4.461565         2
         7         4         8         9     9        0.000000        0.313431         3
         7         4         8         9     9      180.000000        0.064753         4
         7         4         8        10     9        0.000000       -0.883697         1
         7         4         8        10     9      180.000000        6.620990         2
         7         4         8        10     9        0.000000       -0.111547         3
         7         4         8        10     9      180.000000       -0.101697         4
         7         6         3        23     9        0.000000        0.067777         1
         7         6         3        23     9      180.000000       13.428049         2
         7         6         3        23     9        0.000000       -0.637148         3
         7         6         3        23     9      180.000000        0.192589         4
         8         4         7        25     9        0.000000        0.256570         1
         8         4         7        25     9      180.000000       10.908626         2
         8         4         7        25     9        0.000000       -0.472695         3
         8         4         7        25     9      180.000000        0.116695         4
         8         9        11        12     9        0.000000        0.327375         1
         8         9        11        12     9      180.000000        7.708737         2
         8         9        11        12     9        0.000000        0.231212         3
         8         9        11        12     9      180.000000       -0.353041         4
         9        11        12        13     9        0.000000       -0.008496         1
         9        11        12        13     9      180.000000        3.869729         2
         9        11        12        13     9        0.000000        0.186503         3
         9        11        12        13     9      180.000000       -0.306207         4
         9        11        12        17     9        0.000000       -0.008496         1
         9        11        12        17     9      180.000000        3.869729         2
         9        11        12        17     9        0.000000        0.186503         3
         9        11        12        17     9      180.000000       -0.306207         4
        10         8         9        11     9        0.000000       -0.440666         1
        10         8         9        11     9      180.000000        9.428444         2
        10         8         9        11     9        0.000000       -0.298626         3
        10         8         9        11     9      180.000000       -0.419374         4
        10         8         9        26     9        0.000000        0.193165         1
        10         8         9        26     9      180.000000       10.128774         2
        10         8         9        26     9        0.000000       -0.569294         3
        10         8         9        26     9      180.000000        0.238075         4
        11        12        13        14     9        0.000000        0.039380         1
        11        12        13        14     9      180.000000       14.896317         2
        11        12        13        14     9        0.000000       -0.390720         3
        11        12        13        14     9      180.000000       -0.164008         4
        11        12        13        27     9        0.000000       -0.029240         1
        11        12        13        27     9      180.000000       12.336158         2
        11        12        13        27     9        0.000000       -0.354791         3
        11        12        13        27     9      180.000000        0.172211         4
        11        12        17        16     9        0.000000        0.039380         1
        11        12        17        16     9      180.000000       14.896317         2
        11        12        17        16     9        0.000000       -0.390720         3
        11        12        17        16     9      180.000000       -0.164008         4
        11        12        17        30     9        0.000000       -0.029240         1
        11        12        17        30     9      180.000000       12.336158         2
        11        12        17        30     9        0.000000       -0.354791         3
        11        12        17        30     9      180.000000        0.172210         4
        12        11         9        26     9        0.000000       -0.470033         1
        12        11         9        26     9      180.000000        6.378521         2
        12        11         9        26     9        0.000000       -0.143657         3
        12        11         9        26     9      180.000000       -0.143122         4
        12        13        14        15     9        0.000000       -0.029852         1
        12        13        14        15     9      180.000000       19.279119         2
        12        13        14        15     9        0.000000       -1.746203         3
        12        13        14        15     9      180.000000       -0.394485         4
        12        13        14        28     9        0.000000       -0.089815         1
        12        13        14        28     9      180.000000       15.139981         2
        12        13        14        28     9        0.000000       -0.484184         3
        12        13        14        28     9      180.000000        0.126791         4
        12        17        16        15     9        0.000000       -0.029852         1
        12        17        16        15     9      180.000000       19.279119         2
        12        17        16        15     9        0.000000       -1.746203         3
        12        17        16        15     9      180.000000       -0.394485         4
        12        17        16        29     9        0.000000       -0.089816         1
        12        17        16        29     9      180.000000       15.139981         2
        12        17        16        29     9        0.000000       -0.484184         3
        12        17        16        29     9      180.000000        0.126791         4
        13        12        17        16     9        0.000000       -0.120070         1
        13        12        17        16     9      180.000000       18.086734         2
        13        12        17        16     9        0.000000       -1.494844         3
        13        12        17        16     9      180.000000       -0.364611         4
        13        12        17        30     9        0.000000       -0.074437         1
        13        12        17        30     9      180.000000       13.866631         2
        13        12        17        30     9        0.000000       -0.616165         3
        13        12        17        30     9      180.000000        0.084716         4
        13        14        15        16     9        0.000000       -0.044566         1
        13        14        15        16     9      180.000000       18.663695         2
        13        14        15        16     9        0.000000       -1.272081         3
        13        14        15        16     9      180.000000       -0.423270         4
        13        14        15        18     9        0.000000        0.101251         1
        13        14        15        18     9      180.000000       14.310310         2
        13        14        15        18     9        0.000000       -0.089938         3
        13        14        15        18     9      180.000000       -0.134185         4
        14        13        12        17     9        0.000000       -0.120070         1
        14        13        12        17     9      180.000000       18.086734         2
        14        13        12        17     9        0.000000       -1.494844         3
        14        13        12        17     9      180.000000       -0.364611         4
        14        15        16        17     9        0.000000       -0.044566         1
        14        15        16        17     9      180.000000       18.663695         2
        14        15        16        17     9        0.000000       -1.272081         3
        14        15        16        17     9      180.000000       -0.423270         4
        14        15        16        29     9        0.000000       -0.032101         1
        14        15        16        29     9      180.000000       14.870907         2
        14        15        16        29     9        0.000000       -0.644491         3
        14        15        16        29     9      180.000000        0.032834         4
        14        15        18        19     9        0.000000        0.073774         1
        14        15        18        19     9      180.000000        0.989723         2
        14        15        18        19     9        0.000000        0.067884         3
        14        15        18        19     9      180.000000        0.132387         4
        14        15        18        20     9        0.000000        0.038083         1
        14        15        18        20     9      180.000000        0.245516         2
        14        15        18        20     9        0.000000        0.051921         3
        14        15        18        20     9      180.000000        0.164157         4
        14        15        18        21     9        0.000000        0.038083         1
        14        15        18        21     9      180.000000        0.245516         2
        14        15        18        21     9        0.000000        0.051921         3
        14        15        18        21     9      180.000000        0.164157         4
        15        14        13        27     9        0.000000        0.014394         1
        15        14        13        27     9      180.000000       15.258784         2
        15        14        13        27     9        0.000000       -0.668963         3
        15        14        13        27     9      180.000000        0.129899         4
        15        16        17        30     9        0.000000        0.014395         1
        15        16        17        30     9      180.000000       15.258780         2
        15        16        17        30     9        0.000000       -0.668963         3
        15        16        17        30     9      180.000000        0.129900         4
        15        18        19        31     9        0.000000        2.043549         1
        15        18        19        31     9      180.000000       -0.635021         2
        15        18        19        31     9        0.000000        0.964895         3
        15        18        19        31     9      180.000000        0.005137         4
        15        18        20        32     9        0.000000       -0.061558         1
        15        18        20        32     9      180.000000        0.025199         2
        15        18        20        32     9        0.000000        0.622302         3
        15        18        20        32     9      180.000000        0.008500         4
        15        18        20        33     9        0.000000       -0.061558         1
        15        18        20        33     9      180.000000        0.025199         2
        15        18        20        33     9        0.000000        0.622302         3
        15        18        20        33     9      180.000000        0.008500         4
        15        18        20        34     9        0.000000       -0.061558         1
        15        18        20        34     9      180.000000        0.025199         2
        15        18        20        34     9        0.000000        0.622302         3
        15        18        20        34     9      180.000000        0.008500         4
        15        18        21        35     9        0.000000       -0.061558         1
        15        18        21        35     9      180.000000        0.025199         2
        15        18        21        35     9        0.000000        0.622302         3
        15        18        21        35     9      180.000000        0.008500         4
        15        18        21        36     9        0.000000       -0.061558         1
        15        18        21        36     9      180.000000        0.025199         2
        15        18        21        36     9        0.000000        0.622302         3
        15        18        21        36     9      180.000000        0.008500         4
        15        18        21        37     9        0.000000       -0.061558         1
        15        18        21        37     9      180.000000        0.025199         2
        15        18        21        37     9        0.000000        0.622302         3
        15        18        21        37     9      180.000000        0.008500         4
        16        15        14        28     9        0.000000       -0.032102         1
        16        15        14        28     9      180.000000       14.870907         2
        16        15        14        28     9        0.000000       -0.644491         3
        16        15        14        28     9      180.000000        0.032834         4
        16        15        18        19     9        0.000000        0.073774         1
        16        15        18        19     9      180.000000        0.989723         2
        16        15        18        19     9        0.000000        0.067884         3
        16        15        18        19     9      180.000000        0.132387         4
        16        15        18        20     9        0.000000        0.038083         1
        16        15        18        20     9      180.000000        0.245516         2
        16        15        18        20     9        0.000000        0.051921         3
        16        15        18        20     9      180.000000        0.164157         4
        16        15        18        21     9        0.000000        0.038083         1
        16        15        18        21     9      180.000000        0.245516         2
        16        15        18        21     9        0.000000        0.051921         3
        16        15        18        21     9      180.000000        0.164157         4
        17        12        13        27     9        0.000000       -0.074437         1
        17        12        13        27     9      180.000000       13.866631         2
        17        12        13        27     9        0.000000       -0.616164         3
        17        12        13        27     9      180.000000        0.084716         4
        17        16        15        18     9        0.000000        0.101251         1
        17        16        15        18     9      180.000000       14.310310         2
        17        16        15        18     9        0.000000       -0.089938         3
        17        16        15        18     9      180.000000       -0.134185         4
        18        15        14        28     9        0.000000       -0.107353         1
        18        15        14        28     9      180.000000       12.665265         2
        18        15        14        28     9        0.000000       -0.279679         3
        18        15        14        28     9      180.000000        0.197103         4
        18        15        16        29     9        0.000000       -0.107353         1
        18        15        16        29     9      180.000000       12.665268         2
        18        15        16        29     9        0.000000       -0.279679         3
        18        15        16        29     9      180.000000        0.197103         4
        19        18        20        32     9        0.000000        0.066220         1
        19        18        20        32     9      180.000000       -0.005018         2
        19        18        20        32     9        0.000000        0.478904         3
        19        18        20        32     9      180.000000        0.036037         4
        19        18        20        33     9        0.000000        0.066220         1
        19        18        20        33     9      180.000000       -0.005018         2
        19        18        20        33     9        0.000000        0.478904         3
        19        18        20        33     9      180.000000        0.036037         4
        19        18        20        34     9        0.000000        0.066220         1
        19        18        20        34     9      180.000000       -0.005018         2
        19        18        20        34     9        0.000000        0.478904         3
        19        18        20        34     9      180.000000        0.036037         4
        19        18        21        35     9        0.000000        0.066220         1
        19        18        21        35     9      180.000000       -0.005018         2
        19        18        21        35     9        0.000000        0.478904         3
        19        18        21        35     9      180.000000        0.036037         4
        19        18        21        36     9        0.000000        0.066220         1
        19        18        21        36     9      180.000000       -0.005018         2
        19        18        21        36     9        0.000000        0.478904         3
        19        18        21        36     9      180.000000        0.036037         4
        19        18        21        37     9        0.000000        0.066220         1
        19        18        21        37     9      180.000000       -0.005018         2
        19        18        21        37     9        0.000000        0.478904         3
        19        18        21        37     9      180.000000        0.036037         4
        20        18        19        31     9        0.000000       -0.807150         1
        20        18        19        31     9      180.000000        0.393125         2
        20        18        19        31     9        0.000000        0.885734         3
        20        18        19        31     9      180.000000        0.022606         4
        20        18        21        35     9        0.000000       -0.100193         1
        20        18        21        35     9      180.000000        0.026286         2
        20        18        21        35     9        0.000000        0.529878         3
        20        18        21        35     9      180.000000        0.062463         4
        20        18        21        36     9        0.000000       -0.100193         1
        20        18        21        36     9      180.000000        0.026286         2
        20        18        21        36     9        0.000000        0.529878         3
        20        18        21        36     9      180.000000        0.062463         4
        20        18        21        37     9        0.000000       -0.100193         1
        20        18        21        37     9      180.000000        0.026286         2
        20        18        21        37     9        0.000000        0.529878         3
        20        18        21        37     9      180.000000        0.062463         4
        21        18        19        31     9        0.000000       -0.807150         1
        21        18        19        31     9      180.000000        0.393125         2
        21        18        19        31     9        0.000000        0.885734         3
        21        18        19        31     9      180.000000        0.022606         4
        21        18        20        32     9        0.000000       -0.100193         1
        21        18        20        32     9      180.000000        0.026286         2
        21        18        20        32     9        0.000000        0.529878         3
        21        18        20        32     9      180.000000        0.062463         4
        21        18        20        33     9        0.000000       -0.100193         1
        21        18        20        33     9      180.000000        0.026286         2
        21        18        20        33     9        0.000000        0.529878         3
        21        18        20        33     9      180.000000        0.062463         4
        21        18        20        34     9        0.000000       -0.100193         1
        21        18        20        34     9      180.000000        0.026286         2
        21        18        20        34     9        0.000000        0.529878         3
        21        18        20        34     9      180.000000        0.062463         4
        22         1         3        23     9        0.000000        0.285693         1
        22         1         3        23     9      180.000000       17.678028         2
        22         1         3        23     9        0.000000        0.275707         3
        22         1         3        23     9      180.000000        0.074177         4
        23         3         6        24     9        0.000000       -0.085838         1
        23         3         6        24     9      180.000000       11.144626         2
        23         3         6        24     9        0.000000       -0.608589         3
        23         3         6        24     9      180.000000        0.209186         4
        24         6         7        25     9        0.000000       -0.089447         1
        24         6         7        25     9      180.000000       12.348165         2
        24         6         7        25     9        0.000000       -0.702797         3
        24         6         7        25     9      180.000000        0.357187         4
        27        13        14        28     9        0.000000       -0.224986         1
        27        13        14        28     9      180.000000       12.329039         2
        27        13        14        28     9        0.000000       -0.815557         3
        27        13        14        28     9      180.000000        0.376642         4
        29        16        17        30     9        0.000000       -0.224987         1
        29        16        17        30     9      180.000000       12.329039         2
        29        16        17        30     9        0.000000       -0.815557         3
        29        16        17        30     9      180.000000        0.376642         4

[ dihedrals ] ; impropers
;       ai        aj        ak        al funct           phase               k        pn
         2         1         4         5     4      180.000000        8.897870         2
         2         4         5         1     4      180.000000        8.897870         2
         2         5         1         4     4      180.000000        8.897870         2
         8         4         9        10     4      180.000000       27.893333         2
         8         9        10         4     4      180.000000       27.893333         2
         8        10         4         9     4      180.000000       27.893333         2
        11         5         9        12     4      180.000000        8.962291         2
        11         9        12         5     4      180.000000        8.962291         2
        11        12         5         9     4      180.000000        8.962291         2

[ pairs ]
;       ai        aj funct
         1         7     1
         1         8     1
         1        11     1
         1        24     1
         2         6     1
         2         9     1
         2        10     1
         2        12     1
         2        23     1
         2        25     1
         3         4     1
         3         5     1
         3        25     1
         4        11     1
         4        22     1
         4        24     1
         4        26     1
         5         7     1
         5         8     1
         5        13     1
         5        17     1
         5        22     1
         5        26     1
         6         8     1
         6        22     1
         7         9     1
         7        10     1
         7        23     1
         8        12     1
         8        25     1
         9        13     1
         9        17     1
        10        11     1
        10        26     1
        11        14     1
        11        16     1
        11        27     1
        11        30     1
        12        15     1
        12        26     1
        12        28     1
        12        29     1
        13        16     1
        13        18     1
        13        30     1
        14        17     1
        14        19     1
        14        20     1
        14        21     1
        14        29     1
        15        27     1
        15        30     1
        15        31     1
        15        32     1
        15        33     1
        15        34     1
        15        35     1
        15        36     1
        15        37     1
        16        19     1
        16        20     1
        16        21     1
        16        28     1
        17        18     1
        17        27     1
        18        28     1
        18        29     1
        19        32     1
        19        33     1
        19        34     1
        19        35     1
        19        36     1
        19        37     1
        20        31     1
        20        35     1
        20        36     1
        20        37     1
        21        31     1
        21        32     1
        21        33     1
        21        34     1
        22        23     1
        23        24     1
        24        25     1
        27        28     1
        29        30     1
