; ITP file created by ByteFF-ML, 2026-02-21 07:51:05.446704

[ atomtypes ]
;name           bonded.type        at.num        mass        charge   ptype           sigma         epsilon
 c0bf                                   6      0.0000       0.00000       A     3.31451e-01     4.11428e-01
 c1bf                                   6      0.0000       0.00000       A     3.31352e-01     4.10999e-01
 c2bf                                   6      0.0000       0.00000       A     3.31448e-01     4.12040e-01
 c3bf                                   6      0.0000       0.00000       A     3.31498e-01     4.12437e-01
 n4bf                                   7      0.0000       0.00000       A     3.38314e-01     3.92783e-01
 c5bf                                   6      0.0000       0.00000       A     3.31476e-01     4.13617e-01
 c6bf                                   6      0.0000       0.00000       A     3.31498e-01     4.12752e-01
 c7bf                                   6      0.0000       0.00000       A     3.31445e-01     4.13286e-01
 n8bf                                   7      0.0000       0.00000       A     3.26530e-01     5.01306e-01
 o9bf                                   8      0.0000       0.00000       A     3.04637e-01     6.12097e-01
 c10bf                                  6      0.0000       0.00000       A     3.31667e-01     4.10195e-01
 c11bf                                  6      0.0000       0.00000       A     3.31390e-01     4.12402e-01
 c12bf                                  6      0.0000       0.00000       A     3.31454e-01     4.13104e-01
 c13bf                                  6      0.0000       0.00000       A     3.31511e-01     4.13146e-01
 c14bf                                  6      0.0000       0.00000       A     3.31413e-01     4.11794e-01
 c15bf                                  6      0.0000       0.00000       A     3.31511e-01     4.13146e-01
 c16bf                                  6      0.0000       0.00000       A     3.31454e-01     4.13104e-01
 c17bf                                  6      0.0000       0.00000       A     3.39703e-01     4.51565e-01
 o18bf                                  8      0.0000       0.00000       A     3.24486e-01     3.89155e-01
 c19bf                                  6      0.0000       0.00000       A     3.39812e-01     4.51155e-01
 c20bf                                  6      0.0000       0.00000       A     3.39812e-01     4.51155e-01
 cl21bf                                17      0.0000       0.00000       A     3.46765e-01     1.10664e+00
 h22bf                                  1      0.0000       0.00000       A     2.62422e-01     6.74307e-02
 h23bf                                  1      0.0000       0.00000       A     2.62531e-01     6.75169e-02
 h24bf                                  1      0.0000       0.00000       A     2.62555e-01     6.74627e-02
 h25bf                                  1      0.0000       0.00000       A     1.10472e-01     4.18202e-02
 h26bf                                  1      0.0000       0.00000       A     2.62492e-01     6.72312e-02
 h27bf                                  1      0.0000       0.00000       A     2.62543e-01     6.73669e-02
 h28bf                                  1      0.0000       0.00000       A     2.62543e-01     6.73669e-02
 h29bf                                  1      0.0000       0.00000       A     2.62492e-01     6.72312e-02
 h30bf                                  1      0.0000       0.00000       A     5.37114e-02     1.97753e-02
 h31bf                                  1      0.0000       0.00000       A     2.60029e-01     8.77503e-02
 h32bf                                  1      0.0000       0.00000       A     2.60029e-01     8.77503e-02
 h33bf                                  1      0.0000       0.00000       A     2.60029e-01     8.77503e-02
 h34bf                                  1      0.0000       0.00000       A     2.60029e-01     8.77503e-02
 h35bf                                  1      0.0000       0.00000       A     2.60029e-01     8.77503e-02
 h36bf                                  1      0.0000       0.00000       A     2.60029e-01     8.77503e-02

[ moleculetype ]
;name             nrexcl
 5g                    3

[ atoms ]
;       nr            type      resi   res      atom      cgnr      charge          mass ; qtot
         1            c0bf         1   UNL        c0         1     0.11770       12.0110 ; qtot    0.118
         2            c1bf         1   UNL        c1         2     0.20322       12.0110 ; qtot    0.321
         3            c2bf         1   UNL        c2         3    -0.07241       12.0110 ; qtot    0.249
         4            c3bf         1   UNL        c3         4    -0.19995       12.0110 ; qtot    0.049
         5            n4bf         1   UNL        n4         5    -0.61361       14.0070 ; qtot   -0.565
         6            c5bf         1   UNL        c5         6    -0.12094       12.0110 ; qtot   -0.686
         7            c6bf         1   UNL        c6         7    -0.04272       12.0110 ; qtot   -0.729
         8            c7bf         1   UNL        c7         8     0.57251       12.0110 ; qtot   -0.156
         9            n8bf         1   UNL        n8         9    -0.42474       14.0070 ; qtot   -0.581
        10            o9bf         1   UNL        o9        10    -0.52847       15.9990 ; qtot   -1.109
        11           c10bf         1   UNL       c10        11     0.57116       12.0110 ; qtot   -0.538
        12           c11bf         1   UNL       c11        12    -0.16032       12.0110 ; qtot   -0.699
        13           c12bf         1   UNL       c12        13    -0.06622       12.0110 ; qtot   -0.765
        14           c13bf         1   UNL       c13        14    -0.10147       12.0110 ; qtot   -0.866
        15           c14bf         1   UNL       c14        15    -0.09419       12.0110 ; qtot   -0.960
        16           c15bf         1   UNL       c15        16    -0.10147       12.0110 ; qtot   -1.062
        17           c16bf         1   UNL       c16        17    -0.06622       12.0110 ; qtot   -1.128
        18           c17bf         1   UNL       c17        18     0.22590       12.0110 ; qtot   -0.902
        19           o18bf         1   UNL       o18        19    -0.66653       15.9990 ; qtot   -1.569
        20           c19bf         1   UNL       c19        20    -0.10406       12.0110 ; qtot   -1.673
        21           c20bf         1   UNL       c20        21    -0.10406       12.0110 ; qtot   -1.777
        22          cl21bf         1   UNL      cl21        22    -0.17888       35.4530 ; qtot   -1.956
        23           h22bf         1   UNL       h22        23     0.13468        1.0080 ; qtot   -1.821
        24           h23bf         1   UNL       h23        24     0.12774        1.0080 ; qtot   -1.693
        25           h24bf         1   UNL       h24        25     0.14519        1.0080 ; qtot   -1.548
        26           h25bf         1   UNL       h25        26     0.33464        1.0080 ; qtot   -1.214
        27           h26bf         1   UNL       h26        27     0.12685        1.0080 ; qtot   -1.087
        28           h27bf         1   UNL       h27        28     0.12301        1.0080 ; qtot   -0.964
        29           h28bf         1   UNL       h28        29     0.12301        1.0080 ; qtot   -0.841
        30           h29bf         1   UNL       h29        30     0.12685        1.0080 ; qtot   -0.714
        31           h30bf         1   UNL       h30        31     0.44306        1.0080 ; qtot   -0.271
        32           h31bf         1   UNL       h31        32     0.04512        1.0080 ; qtot   -0.226
        33           h32bf         1   UNL       h32        33     0.04512        1.0080 ; qtot   -0.181
        34           h33bf         1   UNL       h33        34     0.04512        1.0080 ; qtot   -0.135
        35           h34bf         1   UNL       h34        35     0.04512        1.0080 ; qtot   -0.090
        36           h35bf         1   UNL       h35        36     0.04512        1.0080 ; qtot   -0.045
        37           h36bf         1   UNL       h36        37     0.04514        1.0080 ; qtot   -0.000

[ bonds ]
;       ai        aj funct               r               k
         1         2     1        0.141899   250045.763721
         1         3     1        0.138620   327246.667090
         1        22     1        0.174772   154757.921729
         2         4     1        0.141794   259875.482324
         2         5     1        0.138047   258523.471143
         3         6     1        0.140691   293043.284277
         3        23     1        0.108465   324623.852734
         4         7     1        0.140422   293008.655957
         4         8     1        0.146937   199793.661133
         5        11     1        0.130083   420956.162500
         6         7     1        0.138821   328747.074414
         6        24     1        0.108536   323200.720703
         7        25     1        0.108441   326450.726465
         8         9     1        0.140090   211352.203735
         8        10     1        0.122777   612841.593750
         9        11     1        0.137689   258023.148096
         9        26     1        0.101480   412787.019971
        11        12     1        0.147942   204045.819678
        12        13     1        0.140471   289559.026611
        12        17     1        0.140471   289559.026611
        13        14     1        0.139386   326214.584814
        13        27     1        0.108506   321458.476953
        14        15     1        0.140255   285418.312012
        14        28     1        0.108556   319655.914551
        15        16     1        0.140255   285418.312012
        15        18     1        0.153061   167064.459033
        16        17     1        0.139386   326214.584814
        16        29     1        0.108556   319655.914551
        17        30     1        0.108506   321458.502490
        18        19     1        0.144382   176998.969165
        18        20     1        0.153644   175656.419482
        18        21     1        0.153644   175656.419482
        19        31     1        0.097079   466958.149512
        20        32     1        0.109340   302095.806494
        20        33     1        0.109340   302095.806494
        20        34     1        0.109340   302095.806494
        21        35     1        0.109340   302095.806494
        21        36     1        0.109340   302095.806494
        21        37     1        0.109340   302095.806494

[ angles ]
;       ai        aj        ak funct           theta             cth
         1         2         4     1      117.473534      571.446067
         1         2         5     1      119.617752      353.579251
         1         3         6     1      120.447083      663.260594
         1         3        23     1      119.355919      420.569186
         2         1         3     1      120.926903      652.953561
         2         1        22     1      119.670670      379.588988
         2         4         7     1      121.247635      708.141489
         2         4         8     1      118.929062      842.667981
         2         5        11     1      118.467873      314.410784
         3         1        22     1      119.361671      372.120884
         3         6         7     1      120.207802      710.338830
         3         6        24     1      119.264015      449.063684
         4         2         5     1      122.998154      735.145067
         4         7         6     1      119.452377      651.508353
         4         7        25     1      118.417503      431.760952
         4         8         9     1      112.945786      619.868640
         4         8        10     1      126.302353      462.598671
         5        11         9     1      122.580727      523.623616
         5        11        12     1      119.984558      389.968451
         6         3        23     1      120.359360      437.109604
         6         7        25     1      122.032410      422.351038
         7         4         8     1      119.670456      513.271383
         7         6        24     1      120.474220      440.780723
         8         9        11     1      124.865311      723.761901
         8         9        26     1      114.932640      510.762426
         9         8        10     1      120.557480      782.446114
         9        11        12     1      117.623306      651.748593
        11         9        26     1      120.358910      426.302458
        11        12        13     1      120.630882      548.117662
        11        12        17     1      120.630882      548.117662
        12        13        14     1      120.499977      679.153103
        12        13        27     1      119.853783      419.505789
        12        17        16     1      120.499977      679.153103
        12        17        30     1      119.853783      419.505789
        13        12        17     1      118.451012      558.728842
        13        14        15     1      120.933960      722.975294
        13        14        28     1      119.310745      430.952351
        14        13        27     1      119.619583      424.105278
        14        15        16     1      118.030006      644.246429
        14        15        18     1      120.914795      498.155808
        15        14        28     1      119.809998      401.303639
        15        16        17     1      120.933960      722.975294
        15        16        29     1      119.809998      401.303671
        15        18        19     1      108.993263      692.794836
        15        18        20     1      110.967125      628.055391
        15        18        21     1      110.967125      628.055391
        16        15        18     1      120.914795      498.155808
        16        17        30     1      119.619583      424.105214
        17        16        29     1      119.310730      430.952351
        18        19        31     1      107.614967      572.046955
        18        20        32     1      110.548935      458.224962
        18        20        33     1      110.548935      458.224962
        18        20        34     1      110.548935      458.224962
        18        21        35     1      110.548935      458.224962
        18        21        36     1      110.548935      458.224962
        18        21        37     1      110.548935      458.224962
        19        18        20     1      107.278610      609.475994
        19        18        21     1      107.278610      609.475994
        20        18        21     1      110.435745      551.993621
        32        20        33     1      108.447632      360.423356
        32        20        34     1      108.447632      360.423356
        33        20        34     1      108.447632      360.423356
        35        21        36     1      108.447632      360.423356
        35        21        37     1      108.447632      360.423356
        36        21        37     1      108.447632      360.423356

[ dihedrals ] ; propers for gromacs 4.5 or higher, use funct 9
;       ai        aj        ak        al funct           phase               k        pn
         1         2         4         7     9        0.000000        0.178764         1
         1         2         4         7     9      180.000000       12.850954         2
         1         2         4         7     9        0.000000       -1.014867         3
         1         2         4         7     9      180.000000       -0.220549         4
         1         2         4         8     9        0.000000        0.534359         1
         1         2         4         8     9      180.000000       11.274377         2
         1         2         4         8     9        0.000000       -0.122897         3
         1         2         4         8     9      180.000000       -0.326975         4
         1         2         5        11     9        0.000000        2.032093         1
         1         2         5        11     9      180.000000        5.968604         2
         1         2         5        11     9        0.000000        1.258507         3
         1         2         5        11     9      180.000000       -0.329854         4
         1         3         6         7     9        0.000000       -0.039687         1
         1         3         6         7     9      180.000000       17.365603         2
         1         3         6         7     9        0.000000       -1.592436         3
         1         3         6         7     9      180.000000       -0.429071         4
         1         3         6        24     9        0.000000        0.021146         1
         1         3         6        24     9      180.000000       13.590789         2
         1         3         6        24     9        0.000000       -0.490047         3
         1         3         6        24     9      180.000000        0.127245         4
         2         1         3         6     9        0.000000       -0.057838         1
         2         1         3         6     9      180.000000       18.591071         2
         2         1         3         6     9        0.000000       -1.330810         3
         2         1         3         6     9      180.000000       -0.383676         4
         2         1         3        23     9        0.000000        0.126399         1
         2         1         3        23     9      180.000000       13.993503         2
         2         1         3        23     9        0.000000       -0.430277         3
         2         1         3        23     9      180.000000        0.136478         4
         2         4         7         6     9        0.000000       -0.127775         1
         2         4         7         6     9      180.000000       17.367874         2
         2         4         7         6     9        0.000000       -1.232405         3
         2         4         7         6     9      180.000000       -0.341326         4
         2         4         7        25     9        0.000000        0.137510         1
         2         4         7        25     9      180.000000       12.180072         2
         2         4         7        25     9        0.000000       -0.338747         3
         2         4         7        25     9      180.000000       -0.002948         4
         2         4         8         9     9        0.000000        0.045480         1
         2         4         8         9     9      180.000000        3.667124         2
         2         4         8         9     9        0.000000        0.141290         3
         2         4         8         9     9      180.000000        0.142804         4
         2         4         8        10     9        0.000000       -0.156420         1
         2         4         8        10     9      180.000000        7.739111         2
         2         4         8        10     9        0.000000        0.149308         3
         2         4         8        10     9      180.000000       -0.472721         4
         2         5        11         9     9        0.000000       -0.203943         1
         2         5        11         9     9      180.000000       34.898511         2
         2         5        11         9     9        0.000000       -0.444903         3
         2         5        11         9     9      180.000000       -1.072225         4
         2         5        11        12     9        0.000000        0.732298         1
         2         5        11        12     9      180.000000       30.129033         2
         2         5        11        12     9        0.000000        1.374008         3
         2         5        11        12     9      180.000000       -1.403471         4
         3         1         2         4     9        0.000000       -0.040220         1
         3         1         2         4     9      180.000000       12.958804         2
         3         1         2         4     9        0.000000       -0.634299         3
         3         1         2         4     9      180.000000       -0.157939         4
         3         1         2         5     9        0.000000        0.330814         1
         3         1         2         5     9      180.000000       12.837777         2
         3         1         2         5     9        0.000000        0.011802         3
         3         1         2         5     9      180.000000       -0.211923         4
         3         6         7         4     9        0.000000        0.010803         1
         3         6         7         4     9      180.000000       19.424902         2
         3         6         7         4     9        0.000000       -1.543176         3
         3         6         7         4     9      180.000000       -0.411976         4
         3         6         7        25     9        0.000000        0.076457         1
         3         6         7        25     9      180.000000       15.433267         2
         3         6         7        25     9        0.000000       -0.461546         3
         3         6         7        25     9      180.000000        0.096237         4
         4         2         1        22     9        0.000000        0.256492         1
         4         2         1        22     9      180.000000       15.020230         2
         4         2         1        22     9        0.000000        0.029363         3
         4         2         1        22     9      180.000000       -0.444872         4
         4         2         5        11     9        0.000000        0.424519         1
         4         2         5        11     9      180.000000        5.945396         2
         4         2         5        11     9        0.000000        0.971953         3
         4         2         5        11     9      180.000000       -0.250685         4
         4         7         6        24     9        0.000000        0.007040         1
         4         7         6        24     9      180.000000       15.162957         2
         4         7         6        24     9        0.000000       -0.418866         3
         4         7         6        24     9      180.000000        0.040802         4
         4         8         9        11     9        0.000000       -0.412450         1
         4         8         9        11     9      180.000000        3.168987         2
         4         8         9        11     9        0.000000        0.221767         3
         4         8         9        11     9      180.000000        0.083558         4
         4         8         9        26     9        0.000000       -0.965306         1
         4         8         9        26     9      180.000000        7.001984         2
         4         8         9        26     9        0.000000        0.054657         3
         4         8         9        26     9      180.000000       -0.067672         4
         5         2         1        22     9        0.000000       -0.446261         1
         5         2         1        22     9      180.000000       18.122924         2
         5         2         1        22     9        0.000000        0.056892         3
         5         2         1        22     9      180.000000       -0.961945         4
         5         2         4         7     9        0.000000        0.156582         1
         5         2         4         7     9      180.000000       14.064972         2
         5         2         4         7     9        0.000000       -0.000231         3
         5         2         4         7     9      180.000000       -0.193908         4
         5         2         4         8     9        0.000000        0.591935         1
         5         2         4         8     9      180.000000       12.772846         2
         5         2         4         8     9        0.000000        0.532984         3
         5         2         4         8     9      180.000000       -0.521309         4
         5        11         9         8     9        0.000000       -0.248147         1
         5        11         9         8     9      180.000000        7.552610         2
         5        11         9         8     9        0.000000        0.160602         3
         5        11         9         8     9      180.000000       -0.254459         4
         5        11         9        26     9        0.000000        1.590549         1
         5        11         9        26     9      180.000000        7.062887         2
         5        11         9        26     9        0.000000       -0.279294         3
         5        11         9        26     9      180.000000       -0.149155         4
         5        11        12        13     9        0.000000       -0.159914         1
         5        11        12        13     9      180.000000        3.803398         2
         5        11        12        13     9        0.000000       -0.093060         3
         5        11        12        13     9      180.000000       -0.045670         4
         5        11        12        17     9        0.000000       -0.159914         1
         5        11        12        17     9      180.000000        3.803398         2
         5        11        12        17     9        0.000000       -0.093060         3
         5        11        12        17     9      180.000000       -0.045670         4
         6         3         1        22     9        0.000000        0.197633         1
         6         3         1        22     9      180.000000       22.089673         2
         6         3         1        22     9        0.000000        0.251008         3
         6         3         1        22     9      180.000000       -0.919693         4
         6         7         4         8     9        0.000000       -0.037144         1
         6         7         4         8     9      180.000000       13.944542         2
         6         7         4         8     9        0.000000       -0.521624         3
         6         7         4         8     9      180.000000       -0.120015         4
         7         4         8         9     9        0.000000       -0.405115         1
         7         4         8         9     9      180.000000        4.362569         2
         7         4         8         9     9        0.000000        0.303384         3
         7         4         8         9     9      180.000000        0.084150         4
         7         4         8        10     9        0.000000       -0.830424         1
         7         4         8        10     9      180.000000        6.598700         2
         7         4         8        10     9        0.000000       -0.093854         3
         7         4         8        10     9      180.000000       -0.094351         4
         7         6         3        23     9        0.000000        0.011959         1
         7         6         3        23     9      180.000000       13.922385         2
         7         6         3        23     9        0.000000       -0.724506         3
         7         6         3        23     9      180.000000        0.174267         4
         8         4         7        25     9        0.000000        0.266411         1
         8         4         7        25     9      180.000000       11.100051         2
         8         4         7        25     9        0.000000       -0.503055         3
         8         4         7        25     9      180.000000        0.115599         4
         8         9        11        12     9        0.000000        0.305816         1
         8         9        11        12     9      180.000000        7.810674         2
         8         9        11        12     9        0.000000        0.227932         3
         8         9        11        12     9      180.000000       -0.367143         4
         9        11        12        13     9        0.000000       -0.008038         1
         9        11        12        13     9      180.000000        3.888872         2
         9        11        12        13     9        0.000000        0.194746         3
         9        11        12        13     9      180.000000       -0.309246         4
         9        11        12        17     9        0.000000       -0.008038         1
         9        11        12        17     9      180.000000        3.888872         2
         9        11        12        17     9        0.000000        0.194746         3
         9        11        12        17     9      180.000000       -0.309246         4
        10         8         9        11     9        0.000000       -0.408094         1
        10         8         9        11     9      180.000000        9.384767         2
        10         8         9        11     9        0.000000       -0.283467         3
        10         8         9        11     9      180.000000       -0.422766         4
        10         8         9        26     9        0.000000        0.193657         1
        10         8         9        26     9      180.000000       10.162314         2
        10         8         9        26     9        0.000000       -0.574061         3
        10         8         9        26     9      180.000000        0.237123         4
        11        12        13        14     9        0.000000        0.034877         1
        11        12        13        14     9      180.000000       14.886895         2
        11        12        13        14     9        0.000000       -0.400326         3
        11        12        13        14     9      180.000000       -0.165101         4
        11        12        13        27     9        0.000000       -0.026418         1
        11        12        13        27     9      180.000000       12.325495         2
        11        12        13        27     9        0.000000       -0.359568         3
        11        12        13        27     9      180.000000        0.169275         4
        11        12        17        16     9        0.000000        0.034877         1
        11        12        17        16     9      180.000000       14.886895         2
        11        12        17        16     9        0.000000       -0.400326         3
        11        12        17        16     9      180.000000       -0.165101         4
        11        12        17        30     9        0.000000       -0.026417         1
        11        12        17        30     9      180.000000       12.325496         2
        11        12        17        30     9        0.000000       -0.359568         3
        11        12        17        30     9      180.000000        0.169274         4
        12        11         9        26     9        0.000000       -0.463683         1
        12        11         9        26     9      180.000000        6.403738         2
        12        11         9        26     9        0.000000       -0.137145         3
        12        11         9        26     9      180.000000       -0.152262         4
        12        13        14        15     9        0.000000       -0.029852         1
        12        13        14        15     9      180.000000       19.279119         2
        12        13        14        15     9        0.000000       -1.746203         3
        12        13        14        15     9      180.000000       -0.394485         4
        12        13        14        28     9        0.000000       -0.089815         1
        12        13        14        28     9      180.000000       15.139981         2
        12        13        14        28     9        0.000000       -0.484184         3
        12        13        14        28     9      180.000000        0.126791         4
        12        17        16        15     9        0.000000       -0.029852         1
        12        17        16        15     9      180.000000       19.279119         2
        12        17        16        15     9        0.000000       -1.746203         3
        12        17        16        15     9      180.000000       -0.394485         4
        12        17        16        29     9        0.000000       -0.089816         1
        12        17        16        29     9      180.000000       15.139981         2
        12        17        16        29     9        0.000000       -0.484184         3
        12        17        16        29     9      180.000000        0.126791         4
        13        12        17        16     9        0.000000       -0.120070         1
        13        12        17        16     9      180.000000       18.086734         2
        13        12        17        16     9        0.000000       -1.494844         3
        13        12        17        16     9      180.000000       -0.364611         4
        13        12        17        30     9        0.000000       -0.074437         1
        13        12        17        30     9      180.000000       13.866631         2
        13        12        17        30     9        0.000000       -0.616165         3
        13        12        17        30     9      180.000000        0.084716         4
        13        14        15        16     9        0.000000       -0.044566         1
        13        14        15        16     9      180.000000       18.663695         2
        13        14        15        16     9        0.000000       -1.272081         3
        13        14        15        16     9      180.000000       -0.423270         4
        13        14        15        18     9        0.000000        0.101251         1
        13        14        15        18     9      180.000000       14.310310         2
        13        14        15        18     9        0.000000       -0.089938         3
        13        14        15        18     9      180.000000       -0.134185         4
        14        13        12        17     9        0.000000       -0.120070         1
        14        13        12        17     9      180.000000       18.086734         2
        14        13        12        17     9        0.000000       -1.494844         3
        14        13        12        17     9      180.000000       -0.364611         4
        14        15        16        17     9        0.000000       -0.044566         1
        14        15        16        17     9      180.000000       18.663695         2
        14        15        16        17     9        0.000000       -1.272081         3
        14        15        16        17     9      180.000000       -0.423270         4
        14        15        16        29     9        0.000000       -0.032101         1
        14        15        16        29     9      180.000000       14.870907         2
        14        15        16        29     9        0.000000       -0.644491         3
        14        15        16        29     9      180.000000        0.032834         4
        14        15        18        19     9        0.000000        0.073774         1
        14        15        18        19     9      180.000000        0.989723         2
        14        15        18        19     9        0.000000        0.067884         3
        14        15        18        19     9      180.000000        0.132387         4
        14        15        18        20     9        0.000000        0.038083         1
        14        15        18        20     9      180.000000        0.245516         2
        14        15        18        20     9        0.000000        0.051921         3
        14        15        18        20     9      180.000000        0.164157         4
        14        15        18        21     9        0.000000        0.038083         1
        14        15        18        21     9      180.000000        0.245516         2
        14        15        18        21     9        0.000000        0.051921         3
        14        15        18        21     9      180.000000        0.164157         4
        15        14        13        27     9        0.000000        0.014394         1
        15        14        13        27     9      180.000000       15.258784         2
        15        14        13        27     9        0.000000       -0.668963         3
        15        14        13        27     9      180.000000        0.129899         4
        15        16        17        30     9        0.000000        0.014395         1
        15        16        17        30     9      180.000000       15.258780         2
        15        16        17        30     9        0.000000       -0.668963         3
        15        16        17        30     9      180.000000        0.129900         4
        15        18        19        31     9        0.000000        2.043549         1
        15        18        19        31     9      180.000000       -0.635021         2
        15        18        19        31     9        0.000000        0.964895         3
        15        18        19        31     9      180.000000        0.005137         4
        15        18        20        32     9        0.000000       -0.061558         1
        15        18        20        32     9      180.000000        0.025199         2
        15        18        20        32     9        0.000000        0.622302         3
        15        18        20        32     9      180.000000        0.008500         4
        15        18        20        33     9        0.000000       -0.061558         1
        15        18        20        33     9      180.000000        0.025199         2
        15        18        20        33     9        0.000000        0.622302         3
        15        18        20        33     9      180.000000        0.008500         4
        15        18        20        34     9        0.000000       -0.061558         1
        15        18        20        34     9      180.000000        0.025199         2
        15        18        20        34     9        0.000000        0.622302         3
        15        18        20        34     9      180.000000        0.008500         4
        15        18        21        35     9        0.000000       -0.061558         1
        15        18        21        35     9      180.000000        0.025199         2
        15        18        21        35     9        0.000000        0.622302         3
        15        18        21        35     9      180.000000        0.008500         4
        15        18        21        36     9        0.000000       -0.061558         1
        15        18        21        36     9      180.000000        0.025199         2
        15        18        21        36     9        0.000000        0.622302         3
        15        18        21        36     9      180.000000        0.008500         4
        15        18        21        37     9        0.000000       -0.061558         1
        15        18        21        37     9      180.000000        0.025199         2
        15        18        21        37     9        0.000000        0.622302         3
        15        18        21        37     9      180.000000        0.008500         4
        16        15        14        28     9        0.000000       -0.032102         1
        16        15        14        28     9      180.000000       14.870907         2
        16        15        14        28     9        0.000000       -0.644491         3
        16        15        14        28     9      180.000000        0.032834         4
        16        15        18        19     9        0.000000        0.073774         1
        16        15        18        19     9      180.000000        0.989723         2
        16        15        18        19     9        0.000000        0.067884         3
        16        15        18        19     9      180.000000        0.132387         4
        16        15        18        20     9        0.000000        0.038083         1
        16        15        18        20     9      180.000000        0.245516         2
        16        15        18        20     9        0.000000        0.051921         3
        16        15        18        20     9      180.000000        0.164157         4
        16        15        18        21     9        0.000000        0.038083         1
        16        15        18        21     9      180.000000        0.245516         2
        16        15        18        21     9        0.000000        0.051921         3
        16        15        18        21     9      180.000000        0.164157         4
        17        12        13        27     9        0.000000       -0.074437         1
        17        12        13        27     9      180.000000       13.866631         2
        17        12        13        27     9        0.000000       -0.616164         3
        17        12        13        27     9      180.000000        0.084716         4
        17        16        15        18     9        0.000000        0.101251         1
        17        16        15        18     9      180.000000       14.310310         2
        17        16        15        18     9        0.000000       -0.089938         3
        17        16        15        18     9      180.000000       -0.134185         4
        18        15        14        28     9        0.000000       -0.107353         1
        18        15        14        28     9      180.000000       12.665265         2
        18        15        14        28     9        0.000000       -0.279679         3
        18        15        14        28     9      180.000000        0.197103         4
        18        15        16        29     9        0.000000       -0.107353         1
        18        15        16        29     9      180.000000       12.665268         2
        18        15        16        29     9        0.000000       -0.279679         3
        18        15        16        29     9      180.000000        0.197103         4
        19        18        20        32     9        0.000000        0.066220         1
        19        18        20        32     9      180.000000       -0.005018         2
        19        18        20        32     9        0.000000        0.478904         3
        19        18        20        32     9      180.000000        0.036037         4
        19        18        20        33     9        0.000000        0.066220         1
        19        18        20        33     9      180.000000       -0.005018         2
        19        18        20        33     9        0.000000        0.478904         3
        19        18        20        33     9      180.000000        0.036037         4
        19        18        20        34     9        0.000000        0.066220         1
        19        18        20        34     9      180.000000       -0.005018         2
        19        18        20        34     9        0.000000        0.478904         3
        19        18        20        34     9      180.000000        0.036037         4
        19        18        21        35     9        0.000000        0.066220         1
        19        18        21        35     9      180.000000       -0.005018         2
        19        18        21        35     9        0.000000        0.478904         3
        19        18        21        35     9      180.000000        0.036037         4
        19        18        21        36     9        0.000000        0.066220         1
        19        18        21        36     9      180.000000       -0.005018         2
        19        18        21        36     9        0.000000        0.478904         3
        19        18        21        36     9      180.000000        0.036037         4
        19        18        21        37     9        0.000000        0.066220         1
        19        18        21        37     9      180.000000       -0.005018         2
        19        18        21        37     9        0.000000        0.478904         3
        19        18        21        37     9      180.000000        0.036037         4
        20        18        19        31     9        0.000000       -0.807150         1
        20        18        19        31     9      180.000000        0.393125         2
        20        18        19        31     9        0.000000        0.885734         3
        20        18        19        31     9      180.000000        0.022606         4
        20        18        21        35     9        0.000000       -0.100193         1
        20        18        21        35     9      180.000000        0.026286         2
        20        18        21        35     9        0.000000        0.529878         3
        20        18        21        35     9      180.000000        0.062463         4
        20        18        21        36     9        0.000000       -0.100193         1
        20        18        21        36     9      180.000000        0.026286         2
        20        18        21        36     9        0.000000        0.529878         3
        20        18        21        36     9      180.000000        0.062463         4
        20        18        21        37     9        0.000000       -0.100193         1
        20        18        21        37     9      180.000000        0.026286         2
        20        18        21        37     9        0.000000        0.529878         3
        20        18        21        37     9      180.000000        0.062463         4
        21        18        19        31     9        0.000000       -0.807150         1
        21        18        19        31     9      180.000000        0.393125         2
        21        18        19        31     9        0.000000        0.885734         3
        21        18        19        31     9      180.000000        0.022606         4
        21        18        20        32     9        0.000000       -0.100193         1
        21        18        20        32     9      180.000000        0.026286         2
        21        18        20        32     9        0.000000        0.529878         3
        21        18        20        32     9      180.000000        0.062463         4
        21        18        20        33     9        0.000000       -0.100193         1
        21        18        20        33     9      180.000000        0.026286         2
        21        18        20        33     9        0.000000        0.529878         3
        21        18        20        33     9      180.000000        0.062463         4
        21        18        20        34     9        0.000000       -0.100193         1
        21        18        20        34     9      180.000000        0.026286         2
        21        18        20        34     9        0.000000        0.529878         3
        21        18        20        34     9      180.000000        0.062463         4
        22         1         3        23     9        0.000000        0.027655         1
        22         1         3        23     9      180.000000       15.634814         2
        22         1         3        23     9        0.000000       -0.142849         3
        22         1         3        23     9      180.000000        0.097764         4
        23         3         6        24     9        0.000000       -0.199507         1
        23         3         6        24     9      180.000000       11.308657         2
        23         3         6        24     9        0.000000       -0.679838         3
        23         3         6        24     9      180.000000        0.252001         4
        24         6         7        25     9        0.000000       -0.096317         1
        24         6         7        25     9      180.000000       12.300623         2
        24         6         7        25     9        0.000000       -0.647231         3
        24         6         7        25     9      180.000000        0.349891         4
        27        13        14        28     9        0.000000       -0.224986         1
        27        13        14        28     9      180.000000       12.329039         2
        27        13        14        28     9        0.000000       -0.815557         3
        27        13        14        28     9      180.000000        0.376642         4
        29        16        17        30     9        0.000000       -0.224987         1
        29        16        17        30     9      180.000000       12.329039         2
        29        16        17        30     9        0.000000       -0.815557         3
        29        16        17        30     9      180.000000        0.376642         4

[ dihedrals ] ; impropers
;       ai        aj        ak        al funct           phase               k        pn
         2         1         4         5     4      180.000000       12.379171         2
         2         4         5         1     4      180.000000       12.379171         2
         2         5         1         4     4      180.000000       12.379171         2
         8         4         9        10     4      180.000000       27.893333         2
         8         9        10         4     4      180.000000       27.893333         2
         8        10         4         9     4      180.000000       27.893333         2
        11         5         9        12     4      180.000000       10.075563         2
        11         9        12         5     4      180.000000       10.075563         2
        11        12         5         9     4      180.000000       10.075563         2

[ pairs ]
;       ai        aj funct
         1         7     1
         1         8     1
         1        11     1
         1        24     1
         2         6     1
         2         9     1
         2        10     1
         2        12     1
         2        23     1
         2        25     1
         3         4     1
         3         5     1
         3        25     1
         4        11     1
         4        22     1
         4        24     1
         4        26     1
         5         7     1
         5         8     1
         5        13     1
         5        17     1
         5        22     1
         5        26     1
         6         8     1
         6        22     1
         7         9     1
         7        10     1
         7        23     1
         8        12     1
         8        25     1
         9        13     1
         9        17     1
        10        11     1
        10        26     1
        11        14     1
        11        16     1
        11        27     1
        11        30     1
        12        15     1
        12        26     1
        12        28     1
        12        29     1
        13        16     1
        13        18     1
        13        30     1
        14        17     1
        14        19     1
        14        20     1
        14        21     1
        14        29     1
        15        27     1
        15        30     1
        15        31     1
        15        32     1
        15        33     1
        15        34     1
        15        35     1
        15        36     1
        15        37     1
        16        19     1
        16        20     1
        16        21     1
        16        28     1
        17        18     1
        17        27     1
        18        28     1
        18        29     1
        19        32     1
        19        33     1
        19        34     1
        19        35     1
        19        36     1
        19        37     1
        20        31     1
        20        35     1
        20        36     1
        20        37     1
        21        31     1
        21        32     1
        21        33     1
        21        34     1
        22        23     1
        23        24     1
        24        25     1
        27        28     1
        29        30     1
