; ITP file created by ByteFF-ML, 2026-02-21 07:50:50.740436

[ atomtypes ]
;name           bonded.type        at.num        mass        charge   ptype           sigma         epsilon
 c0bf                                   6      0.0000       0.00000       A     3.31504e-01     4.14359e-01
 c1bf                                   6      0.0000       0.00000       A     3.31656e-01     4.09826e-01
 c2bf                                   6      0.0000       0.00000       A     3.31551e-01     4.13229e-01
 c3bf                                   6      0.0000       0.00000       A     3.31484e-01     4.13829e-01
 n4bf                                   7      0.0000       0.00000       A     3.38381e-01     3.91734e-01
 c5bf                                   6      0.0000       0.00000       A     3.31472e-01     4.13112e-01
 c6bf                                   6      0.0000       0.00000       A     3.31556e-01     4.12716e-01
 c7bf                                   6      0.0000       0.00000       A     3.31420e-01     4.13455e-01
 n8bf                                   7      0.0000       0.00000       A     3.26530e-01     5.01306e-01
 o9bf                                   8      0.0000       0.00000       A     3.04637e-01     6.12097e-01
 c10bf                                  6      0.0000       0.00000       A     3.31589e-01     4.10278e-01
 c11bf                                  6      0.0000       0.00000       A     3.31390e-01     4.12402e-01
 c12bf                                  6      0.0000       0.00000       A     3.31454e-01     4.13104e-01
 c13bf                                  6      0.0000       0.00000       A     3.31511e-01     4.13146e-01
 c14bf                                  6      0.0000       0.00000       A     3.31413e-01     4.11794e-01
 c15bf                                  6      0.0000       0.00000       A     3.31511e-01     4.13146e-01
 c16bf                                  6      0.0000       0.00000       A     3.31454e-01     4.13104e-01
 c17bf                                  6      0.0000       0.00000       A     3.39703e-01     4.51565e-01
 o18bf                                  8      0.0000       0.00000       A     3.24486e-01     3.89155e-01
 c19bf                                  6      0.0000       0.00000       A     3.39812e-01     4.51155e-01
 c20bf                                  6      0.0000       0.00000       A     3.39812e-01     4.51155e-01
 o21bf                                  8      0.0000       0.00000       A     3.15684e-01     3.00246e-01
 c22bf                                  6      0.0000       0.00000       A     3.39762e-01     4.50136e-01
 h23bf                                  1      0.0000       0.00000       A     2.62477e-01     6.73621e-02
 h24bf                                  1      0.0000       0.00000       A     2.62575e-01     6.75281e-02
 h25bf                                  1      0.0000       0.00000       A     2.62555e-01     6.74627e-02
 h26bf                                  1      0.0000       0.00000       A     1.10472e-01     4.18202e-02
 h27bf                                  1      0.0000       0.00000       A     2.62492e-01     6.72312e-02
 h28bf                                  1      0.0000       0.00000       A     2.62543e-01     6.73669e-02
 h29bf                                  1      0.0000       0.00000       A     2.62543e-01     6.73669e-02
 h30bf                                  1      0.0000       0.00000       A     2.62492e-01     6.72312e-02
 h31bf                                  1      0.0000       0.00000       A     5.37114e-02     1.97753e-02
 h32bf                                  1      0.0000       0.00000       A     2.60029e-01     8.77503e-02
 h33bf                                  1      0.0000       0.00000       A     2.60029e-01     8.77503e-02
 h34bf                                  1      0.0000       0.00000       A     2.60029e-01     8.77503e-02
 h35bf                                  1      0.0000       0.00000       A     2.60029e-01     8.77503e-02
 h36bf                                  1      0.0000       0.00000       A     2.60029e-01     8.77503e-02
 h37bf                                  1      0.0000       0.00000       A     2.60029e-01     8.77503e-02
 h38bf                                  1      0.0000       0.00000       A     2.42103e-01     8.75588e-02
 h39bf                                  1      0.0000       0.00000       A     2.42103e-01     8.75588e-02
 h40bf                                  1      0.0000       0.00000       A     2.42103e-01     8.75588e-02

[ moleculetype ]
;name             nrexcl
 5h                    3

[ atoms ]
;       nr            type      resi   res      atom      cgnr      charge          mass ; qtot
         1            c0bf         1   UNL        c0         1     0.14113       12.0110 ; qtot    0.141
         2            c1bf         1   UNL        c1         2     0.15400       12.0110 ; qtot    0.295
         3            c2bf         1   UNL        c2         3    -0.17406       12.0110 ; qtot    0.121
         4            c3bf         1   UNL        c3         4    -0.18050       12.0110 ; qtot   -0.059
         5            n4bf         1   UNL        n4         5    -0.60778       14.0070 ; qtot   -0.667
         6            c5bf         1   UNL        c5         6    -0.08820       12.0110 ; qtot   -0.755
         7            c6bf         1   UNL        c6         7    -0.07260       12.0110 ; qtot   -0.828
         8            c7bf         1   UNL        c7         8     0.57262       12.0110 ; qtot   -0.255
         9            n8bf         1   UNL        n8         9    -0.42408       14.0070 ; qtot   -0.679
        10            o9bf         1   UNL        o9        10    -0.53552       15.9990 ; qtot   -1.215
        11           c10bf         1   UNL       c10        11     0.55807       12.0110 ; qtot   -0.657
        12           c11bf         1   UNL       c11        12    -0.15715       12.0110 ; qtot   -0.814
        13           c12bf         1   UNL       c12        13    -0.06622       12.0110 ; qtot   -0.880
        14           c13bf         1   UNL       c13        14    -0.10147       12.0110 ; qtot   -0.982
        15           c14bf         1   UNL       c14        15    -0.09419       12.0110 ; qtot   -1.076
        16           c15bf         1   UNL       c15        16    -0.10147       12.0110 ; qtot   -1.177
        17           c16bf         1   UNL       c16        17    -0.06622       12.0110 ; qtot   -1.244
        18           c17bf         1   UNL       c17        18     0.22590       12.0110 ; qtot   -1.018
        19           o18bf         1   UNL       o18        19    -0.66653       15.9990 ; qtot   -1.684
        20           c19bf         1   UNL       c19        20    -0.10406       12.0110 ; qtot   -1.788
        21           c20bf         1   UNL       c20        21    -0.10406       12.0110 ; qtot   -1.892
        22           o21bf         1   UNL       o21        22    -0.32680       15.9990 ; qtot   -2.219
        23           c22bf         1   UNL       c22        23     0.14383       12.0110 ; qtot   -2.075
        24           h23bf         1   UNL       h23        24     0.12765        1.0080 ; qtot   -1.948
        25           h24bf         1   UNL       h24        25     0.12169        1.0080 ; qtot   -1.826
        26           h25bf         1   UNL       h25        26     0.14182        1.0080 ; qtot   -1.684
        27           h26bf         1   UNL       h26        27     0.33464        1.0080 ; qtot   -1.350
        28           h27bf         1   UNL       h27        28     0.12685        1.0080 ; qtot   -1.223
        29           h28bf         1   UNL       h28        29     0.12301        1.0080 ; qtot   -1.100
        30           h29bf         1   UNL       h29        30     0.12301        1.0080 ; qtot   -0.977
        31           h30bf         1   UNL       h30        31     0.12685        1.0080 ; qtot   -0.850
        32           h31bf         1   UNL       h31        32     0.44306        1.0080 ; qtot   -0.407
        33           h32bf         1   UNL       h32        33     0.04512        1.0080 ; qtot   -0.362
        34           h33bf         1   UNL       h33        34     0.04512        1.0080 ; qtot   -0.317
        35           h34bf         1   UNL       h34        35     0.04512        1.0080 ; qtot   -0.271
        36           h35bf         1   UNL       h35        36     0.04512        1.0080 ; qtot   -0.226
        37           h36bf         1   UNL       h36        37     0.04512        1.0080 ; qtot   -0.181
        38           h37bf         1   UNL       h37        38     0.04512        1.0080 ; qtot   -0.136
        39           h38bf         1   UNL       h38        39     0.04535        1.0080 ; qtot   -0.091
        40           h39bf         1   UNL       h39        40     0.04535        1.0080 ; qtot   -0.045
        41           h40bf         1   UNL       h40        41     0.04536        1.0080 ; qtot    0.000

[ bonds ]
;       ai        aj funct               r               k
         1         2     1        0.142973   238925.016553
         1         3     1        0.138943   316252.967041
         1        22     1        0.136121   280397.716309
         2         4     1        0.141401   268718.472559
         2         5     1        0.138483   254021.712891
         3         6     1        0.140831   294408.421533
         3        24     1        0.108392   323969.949512
         4         7     1        0.140552   291639.024170
         4         8     1        0.146847   199785.821240
         5        11     1        0.130014   423799.719629
         6         7     1        0.138736   330416.435254
         6        25     1        0.108564   321311.791797
         7        26     1        0.108431   325912.991553
         8         9     1        0.140155   209342.471533
         8        10     1        0.122918   607052.126758
         9        11     1        0.137800   256645.216748
         9        27     1        0.101480   412787.019971
        11        12     1        0.147961   204430.076563
        12        13     1        0.140471   289559.026611
        12        17     1        0.140471   289559.026611
        13        14     1        0.139386   326214.559277
        13        28     1        0.108506   321458.476953
        14        15     1        0.140255   285418.312012
        14        29     1        0.108556   319655.914551
        15        16     1        0.140255   285418.312012
        15        18     1        0.153061   167064.459033
        16        17     1        0.139386   326214.584814
        16        30     1        0.108556   319655.914551
        17        31     1        0.108506   321458.476953
        18        19     1        0.144382   176998.969165
        18        20     1        0.153644   175656.432251
        18        21     1        0.153644   175656.432251
        19        32     1        0.097079   466958.149512
        20        33     1        0.109340   302095.806494
        20        34     1        0.109340   302095.806494
        20        35     1        0.109340   302095.806494
        21        36     1        0.109340   302095.806494
        21        37     1        0.109340   302095.806494
        21        38     1        0.109340   302095.806494
        22        23     1        0.142938   202772.475562
        23        39     1        0.109330   300834.579736
        23        40     1        0.109330   300834.579736
        23        41     1        0.109330   300834.579736

[ angles ]
;       ai        aj        ak funct           theta             cth
         1         2         4     1      118.668068      659.995866
         1         2         5     1      118.627396      360.204694
         1         3         6     1      120.698631      750.847772
         1         3        24     1      119.559204      442.805113
         1        22        23     1      118.368698      518.428857
         2         1         3     1      119.546547      600.966710
         2         1        22     1      117.741394      429.485053
         2         4         7     1      121.238022      700.929427
         2         4         8     1      118.915039      848.725958
         2         5        11     1      118.142799      346.611355
         3         1        22     1      122.333542      475.627992
         3         6         7     1      120.748215      701.638209
         3         6        25     1      119.102097      444.684996
         4         2         5     1      123.081375      721.039709
         4         7         6     1      119.033646      621.403293
         4         7        26     1      118.481239      430.127758
         4         8         9     1      112.936668      628.522273
         4         8        10     1      126.419846      460.861637
         5        11         9     1      122.543312      495.513707
         5        11        12     1      119.991211      393.298107
         6         3        24     1      119.793213      438.787902
         6         7        26     1      122.226196      424.231463
         7         4         8     1      119.965965      514.494100
         7         6        25     1      120.273666      442.345988
         8         9        11     1      124.965454      715.343656
         8         9        27     1      114.820824      512.242557
         9         8        10     1      120.360107      785.476922
         9        11        12     1      117.576622      652.260867
        11         9        27     1      120.289413      426.556106
        11        12        13     1      120.658157      547.074344
        11        12        17     1      120.658157      547.074344
        12        13        14     1      120.499977      679.153103
        12        13        28     1      119.853783      419.505789
        12        17        16     1      120.499977      679.153103
        12        17        31     1      119.853783      419.505789
        13        12        17     1      118.451012      558.728842
        13        14        15     1      120.933960      722.975294
        13        14        29     1      119.310745      430.952351
        14        13        28     1      119.619583      424.105278
        14        15        16     1      118.030006      644.246429
        14        15        18     1      120.914795      498.155808
        15        14        29     1      119.809998      401.303639
        15        16        17     1      120.933960      722.975294
        15        16        30     1      119.809998      401.303639
        15        18        19     1      108.993263      692.794836
        15        18        20     1      110.967125      628.055391
        15        18        21     1      110.967125      628.055391
        16        15        18     1      120.914795      498.155808
        16        17        31     1      119.619583      424.105278
        17        16        30     1      119.310745      430.952351
        18        19        32     1      107.614967      572.046955
        18        20        33     1      110.548935      458.224962
        18        20        34     1      110.548935      458.224962
        18        20        35     1      110.548935      458.224962
        18        21        36     1      110.548935      458.224962
        18        21        37     1      110.548935      458.224962
        18        21        38     1      110.548935      458.224962
        19        18        20     1      107.278610      609.475930
        19        18        21     1      107.278610      609.475930
        20        18        21     1      110.435745      551.993621
        22        23        39     1      109.221458      448.108596
        22        23        40     1      109.221458      448.108596
        22        23        41     1      109.221458      448.108596
        33        20        34     1      108.447632      360.423388
        33        20        35     1      108.447632      360.423388
        34        20        35     1      108.447632      360.423388
        36        21        37     1      108.447632      360.423388
        36        21        38     1      108.447632      360.423388
        37        21        38     1      108.447632      360.423388
        39        23        40     1      109.793800      342.636951
        39        23        41     1      109.793800      342.636951
        40        23        41     1      109.793800      342.636951

[ dihedrals ] ; propers for gromacs 4.5 or higher, use funct 9
;       ai        aj        ak        al funct           phase               k        pn
         1         2         4         7     9        0.000000        0.058091         1
         1         2         4         7     9      180.000000       12.983945         2
         1         2         4         7     9        0.000000       -1.092113         3
         1         2         4         7     9      180.000000       -0.087905         4
         1         2         4         8     9        0.000000        0.325248         1
         1         2         4         8     9      180.000000       11.389044         2
         1         2         4         8     9        0.000000       -0.281182         3
         1         2         4         8     9      180.000000       -0.239742         4
         1         2         5        11     9        0.000000        0.484719         1
         1         2         5        11     9      180.000000        7.256411         2
         1         2         5        11     9        0.000000        1.120901         3
         1         2         5        11     9      180.000000       -0.447101         4
         1         3         6         7     9        0.000000       -0.128910         1
         1         3         6         7     9      180.000000       17.244865         2
         1         3         6         7     9        0.000000       -1.700829         3
         1         3         6         7     9      180.000000       -0.407337         4
         1         3         6        25     9        0.000000        0.024257         1
         1         3         6        25     9      180.000000       13.587509         2
         1         3         6        25     9        0.000000       -0.531654         3
         1         3         6        25     9      180.000000        0.035505         4
         1        22        23        39     9        0.000000       -0.037748         1
         1        22        23        39     9      180.000000       -0.046534         2
         1        22        23        39     9        0.000000        0.412675         3
         1        22        23        39     9      180.000000       -0.008723         4
         1        22        23        40     9        0.000000       -0.037748         1
         1        22        23        40     9      180.000000       -0.046534         2
         1        22        23        40     9        0.000000        0.412675         3
         1        22        23        40     9      180.000000       -0.008723         4
         1        22        23        41     9        0.000000       -0.037748         1
         1        22        23        41     9      180.000000       -0.046534         2
         1        22        23        41     9        0.000000        0.412675         3
         1        22        23        41     9      180.000000       -0.008723         4
         2         1         3         6     9        0.000000       -0.057741         1
         2         1         3         6     9      180.000000       17.614115         2
         2         1         3         6     9        0.000000       -1.003553         3
         2         1         3         6     9      180.000000       -0.365306         4
         2         1         3        24     9        0.000000        0.123700         1
         2         1         3        24     9      180.000000       13.113766         2
         2         1         3        24     9        0.000000       -0.291836         3
         2         1         3        24     9      180.000000        0.150036         4
         2         1        22        23     9        0.000000        2.400442         1
         2         1        22        23     9      180.000000        3.528153         2
         2         1        22        23     9        0.000000        0.934831         3
         2         1        22        23     9      180.000000        0.161295         4
         2         4         7         6     9        0.000000       -0.228574         1
         2         4         7         6     9      180.000000       17.722520         2
         2         4         7         6     9        0.000000       -1.485815         3
         2         4         7         6     9      180.000000       -0.355699         4
         2         4         7        26     9        0.000000        0.166477         1
         2         4         7        26     9      180.000000       12.525331         2
         2         4         7        26     9        0.000000       -0.451307         3
         2         4         7        26     9      180.000000        0.017195         4
         2         4         8         9     9        0.000000        0.273241         1
         2         4         8         9     9      180.000000        4.216484         2
         2         4         8         9     9        0.000000        0.054254         3
         2         4         8         9     9      180.000000        0.041751         4
         2         4         8        10     9        0.000000       -0.396008         1
         2         4         8        10     9      180.000000        7.925385         2
         2         4         8        10     9        0.000000        0.093790         3
         2         4         8        10     9      180.000000       -0.491759         4
         2         5        11         9     9        0.000000       -0.219485         1
         2         5        11         9     9      180.000000       36.267891         2
         2         5        11         9     9        0.000000       -0.538316         3
         2         5        11         9     9      180.000000       -1.206600         4
         2         5        11        12     9        0.000000        0.254506         1
         2         5        11        12     9      180.000000       31.546923         2
         2         5        11        12     9        0.000000        1.353841         3
         2         5        11        12     9      180.000000       -1.492864         4
         3         1         2         4     9        0.000000       -0.089802         1
         3         1         2         4     9      180.000000       11.618302         2
         3         1         2         4     9        0.000000       -0.539157         3
         3         1         2         4     9      180.000000       -0.093707         4
         3         1         2         5     9        0.000000        0.237657         1
         3         1         2         5     9      180.000000       11.308551         2
         3         1         2         5     9        0.000000       -0.129854         3
         3         1         2         5     9      180.000000       -0.068002         4
         3         1        22        23     9        0.000000       -0.214057         1
         3         1        22        23     9      180.000000        5.176087         2
         3         1        22        23     9        0.000000       -1.793822         3
         3         1        22        23     9      180.000000        0.724897         4
         3         6         7         4     9        0.000000       -0.012627         1
         3         6         7         4     9      180.000000       19.142304         2
         3         6         7         4     9        0.000000       -1.722233         3
         3         6         7         4     9      180.000000       -0.288550         4
         3         6         7        26     9        0.000000        0.092997         1
         3         6         7        26     9      180.000000       15.520136         2
         3         6         7        26     9        0.000000       -0.489873         3
         3         6         7        26     9      180.000000        0.057403         4
         4         2         1        22     9        0.000000        0.302522         1
         4         2         1        22     9      180.000000       13.757709         2
         4         2         1        22     9        0.000000        0.170492         3
         4         2         1        22     9      180.000000       -0.129456         4
         4         2         5        11     9        0.000000        0.560406         1
         4         2         5        11     9      180.000000        6.200710         2
         4         2         5        11     9        0.000000        0.768497         3
         4         2         5        11     9      180.000000       -0.302781         4
         4         7         6        25     9        0.000000        0.079162         1
         4         7         6        25     9      180.000000       15.052225         2
         4         7         6        25     9        0.000000       -0.399084         3
         4         7         6        25     9      180.000000        0.097916         4
         4         8         9        11     9        0.000000       -0.333204         1
         4         8         9        11     9      180.000000        3.475015         2
         4         8         9        11     9        0.000000        0.221452         3
         4         8         9        11     9      180.000000        0.077443         4
         4         8         9        27     9        0.000000       -0.770502         1
         4         8         9        27     9      180.000000        7.140173         2
         4         8         9        27     9        0.000000        0.077960         3
         4         8         9        27     9      180.000000       -0.099048         4
         5         2         1        22     9        0.000000       -0.359297         1
         5         2         1        22     9      180.000000       16.603528         2
         5         2         1        22     9        0.000000        0.055821         3
         5         2         1        22     9      180.000000       -0.553785         4
         5         2         4         7     9        0.000000        0.017352         1
         5         2         4         7     9      180.000000       14.018519         2
         5         2         4         7     9        0.000000        0.004567         3
         5         2         4         7     9      180.000000       -0.146932         4
         5         2         4         8     9        0.000000        0.279590         1
         5         2         4         8     9      180.000000       12.968323         2
         5         2         4         8     9        0.000000        0.504668         3
         5         2         4         8     9      180.000000       -0.490659         4
         5        11         9         8     9        0.000000       -0.426680         1
         5        11         9         8     9      180.000000        7.623326         2
         5        11         9         8     9        0.000000        0.125219         3
         5        11         9         8     9      180.000000       -0.230713         4
         5        11         9        27     9        0.000000        1.891932         1
         5        11         9        27     9      180.000000        6.744874         2
         5        11         9        27     9        0.000000       -0.160698         3
         5        11         9        27     9      180.000000       -0.152366         4
         5        11        12        13     9        0.000000       -0.161394         1
         5        11        12        13     9      180.000000        3.721044         2
         5        11        12        13     9        0.000000       -0.097478         3
         5        11        12        13     9      180.000000       -0.049318         4
         5        11        12        17     9        0.000000       -0.161394         1
         5        11        12        17     9      180.000000        3.721044         2
         5        11        12        17     9        0.000000       -0.097478         3
         5        11        12        17     9      180.000000       -0.049318         4
         6         3         1        22     9        0.000000        0.488451         1
         6         3         1        22     9      180.000000       20.045915         2
         6         3         1        22     9        0.000000        0.296184         3
         6         3         1        22     9      180.000000       -0.477370         4
         6         7         4         8     9        0.000000        0.021640         1
         6         7         4         8     9      180.000000       13.784818         2
         6         7         4         8     9        0.000000       -0.610722         3
         6         7         4         8     9      180.000000       -0.059787         4
         7         4         8         9     9        0.000000       -0.383025         1
         7         4         8         9     9      180.000000        4.419930         2
         7         4         8         9     9        0.000000        0.331212         3
         7         4         8         9     9      180.000000        0.052802         4
         7         4         8        10     9        0.000000       -0.867543         1
         7         4         8        10     9      180.000000        6.699970         2
         7         4         8        10     9        0.000000       -0.067661         3
         7         4         8        10     9      180.000000       -0.096743         4
         7         6         3        24     9        0.000000        0.064092         1
         7         6         3        24     9      180.000000       13.763913         2
         7         6         3        24     9        0.000000       -0.632324         3
         7         6         3        24     9      180.000000        0.235720         4
         8         4         7        26     9        0.000000        0.161375         1
         8         4         7        26     9      180.000000       10.930427         2
         8         4         7        26     9        0.000000       -0.429386         3
         8         4         7        26     9      180.000000        0.099533         4
         8         9        11        12     9        0.000000        0.242847         1
         8         9        11        12     9      180.000000        7.860500         2
         8         9        11        12     9        0.000000        0.230277         3
         8         9        11        12     9      180.000000       -0.380221         4
         9        11        12        13     9        0.000000        0.031130         1
         9        11        12        13     9      180.000000        3.844040         2
         9        11        12        13     9        0.000000        0.181141         3
         9        11        12        13     9      180.000000       -0.301900         4
         9        11        12        17     9        0.000000        0.031130         1
         9        11        12        17     9      180.000000        3.844040         2
         9        11        12        17     9        0.000000        0.181141         3
         9        11        12        17     9      180.000000       -0.301900         4
        10         8         9        11     9        0.000000       -0.440146         1
        10         8         9        11     9      180.000000        9.415251         2
        10         8         9        11     9        0.000000       -0.299406         3
        10         8         9        11     9      180.000000       -0.413669         4
        10         8         9        27     9        0.000000        0.220056         1
        10         8         9        27     9      180.000000       10.166092         2
        10         8         9        27     9        0.000000       -0.583833         3
        10         8         9        27     9      180.000000        0.232685         4
        11        12        13        14     9        0.000000        0.045493         1
        11        12        13        14     9      180.000000       14.906887         2
        11        12        13        14     9        0.000000       -0.389217         3
        11        12        13        14     9      180.000000       -0.161883         4
        11        12        13        28     9        0.000000       -0.031807         1
        11        12        13        28     9      180.000000       12.341817         2
        11        12        13        28     9        0.000000       -0.357500         3
        11        12        13        28     9      180.000000        0.175958         4
        11        12        17        16     9        0.000000        0.045493         1
        11        12        17        16     9      180.000000       14.906887         2
        11        12        17        16     9        0.000000       -0.389217         3
        11        12        17        16     9      180.000000       -0.161883         4
        11        12        17        31     9        0.000000       -0.031807         1
        11        12        17        31     9      180.000000       12.341817         2
        11        12        17        31     9        0.000000       -0.357500         3
        11        12        17        31     9      180.000000        0.175958         4
        12        11         9        27     9        0.000000       -0.487480         1
        12        11         9        27     9      180.000000        6.293916         2
        12        11         9        27     9        0.000000       -0.155929         3
        12        11         9        27     9      180.000000       -0.139871         4
        12        13        14        15     9        0.000000       -0.029852         1
        12        13        14        15     9      180.000000       19.279119         2
        12        13        14        15     9        0.000000       -1.746203         3
        12        13        14        15     9      180.000000       -0.394485         4
        12        13        14        29     9        0.000000       -0.089815         1
        12        13        14        29     9      180.000000       15.139981         2
        12        13        14        29     9        0.000000       -0.484184         3
        12        13        14        29     9      180.000000        0.126791         4
        12        17        16        15     9        0.000000       -0.029852         1
        12        17        16        15     9      180.000000       19.279119         2
        12        17        16        15     9        0.000000       -1.746203         3
        12        17        16        15     9      180.000000       -0.394485         4
        12        17        16        30     9        0.000000       -0.089815         1
        12        17        16        30     9      180.000000       15.139981         2
        12        17        16        30     9        0.000000       -0.484184         3
        12        17        16        30     9      180.000000        0.126791         4
        13        12        17        16     9        0.000000       -0.120070         1
        13        12        17        16     9      180.000000       18.086734         2
        13        12        17        16     9        0.000000       -1.494844         3
        13        12        17        16     9      180.000000       -0.364611         4
        13        12        17        31     9        0.000000       -0.074437         1
        13        12        17        31     9      180.000000       13.866631         2
        13        12        17        31     9        0.000000       -0.616164         3
        13        12        17        31     9      180.000000        0.084716         4
        13        14        15        16     9        0.000000       -0.044566         1
        13        14        15        16     9      180.000000       18.663695         2
        13        14        15        16     9        0.000000       -1.272081         3
        13        14        15        16     9      180.000000       -0.423270         4
        13        14        15        18     9        0.000000        0.101251         1
        13        14        15        18     9      180.000000       14.310310         2
        13        14        15        18     9        0.000000       -0.089938         3
        13        14        15        18     9      180.000000       -0.134185         4
        14        13        12        17     9        0.000000       -0.120070         1
        14        13        12        17     9      180.000000       18.086734         2
        14        13        12        17     9        0.000000       -1.494844         3
        14        13        12        17     9      180.000000       -0.364611         4
        14        15        16        17     9        0.000000       -0.044566         1
        14        15        16        17     9      180.000000       18.663695         2
        14        15        16        17     9        0.000000       -1.272081         3
        14        15        16        17     9      180.000000       -0.423270         4
        14        15        16        30     9        0.000000       -0.032102         1
        14        15        16        30     9      180.000000       14.870907         2
        14        15        16        30     9        0.000000       -0.644491         3
        14        15        16        30     9      180.000000        0.032834         4
        14        15        18        19     9        0.000000        0.073774         1
        14        15        18        19     9      180.000000        0.989723         2
        14        15        18        19     9        0.000000        0.067884         3
        14        15        18        19     9      180.000000        0.132387         4
        14        15        18        20     9        0.000000        0.038083         1
        14        15        18        20     9      180.000000        0.245517         2
        14        15        18        20     9        0.000000        0.051921         3
        14        15        18        20     9      180.000000        0.164156         4
        14        15        18        21     9        0.000000        0.038083         1
        14        15        18        21     9      180.000000        0.245517         2
        14        15        18        21     9        0.000000        0.051921         3
        14        15        18        21     9      180.000000        0.164156         4
        15        14        13        28     9        0.000000        0.014394         1
        15        14        13        28     9      180.000000       15.258784         2
        15        14        13        28     9        0.000000       -0.668963         3
        15        14        13        28     9      180.000000        0.129899         4
        15        16        17        31     9        0.000000        0.014394         1
        15        16        17        31     9      180.000000       15.258784         2
        15        16        17        31     9        0.000000       -0.668963         3
        15        16        17        31     9      180.000000        0.129899         4
        15        18        19        32     9        0.000000        2.043549         1
        15        18        19        32     9      180.000000       -0.635021         2
        15        18        19        32     9        0.000000        0.964895         3
        15        18        19        32     9      180.000000        0.005137         4
        15        18        20        33     9        0.000000       -0.061558         1
        15        18        20        33     9      180.000000        0.025199         2
        15        18        20        33     9        0.000000        0.622302         3
        15        18        20        33     9      180.000000        0.008501         4
        15        18        20        34     9        0.000000       -0.061558         1
        15        18        20        34     9      180.000000        0.025199         2
        15        18        20        34     9        0.000000        0.622302         3
        15        18        20        34     9      180.000000        0.008501         4
        15        18        20        35     9        0.000000       -0.061558         1
        15        18        20        35     9      180.000000        0.025199         2
        15        18        20        35     9        0.000000        0.622302         3
        15        18        20        35     9      180.000000        0.008501         4
        15        18        21        36     9        0.000000       -0.061558         1
        15        18        21        36     9      180.000000        0.025199         2
        15        18        21        36     9        0.000000        0.622302         3
        15        18        21        36     9      180.000000        0.008501         4
        15        18        21        37     9        0.000000       -0.061558         1
        15        18        21        37     9      180.000000        0.025199         2
        15        18        21        37     9        0.000000        0.622302         3
        15        18        21        37     9      180.000000        0.008501         4
        15        18        21        38     9        0.000000       -0.061558         1
        15        18        21        38     9      180.000000        0.025199         2
        15        18        21        38     9        0.000000        0.622302         3
        15        18        21        38     9      180.000000        0.008501         4
        16        15        14        29     9        0.000000       -0.032102         1
        16        15        14        29     9      180.000000       14.870907         2
        16        15        14        29     9        0.000000       -0.644491         3
        16        15        14        29     9      180.000000        0.032834         4
        16        15        18        19     9        0.000000        0.073774         1
        16        15        18        19     9      180.000000        0.989723         2
        16        15        18        19     9        0.000000        0.067884         3
        16        15        18        19     9      180.000000        0.132387         4
        16        15        18        20     9        0.000000        0.038083         1
        16        15        18        20     9      180.000000        0.245517         2
        16        15        18        20     9        0.000000        0.051921         3
        16        15        18        20     9      180.000000        0.164156         4
        16        15        18        21     9        0.000000        0.038083         1
        16        15        18        21     9      180.000000        0.245517         2
        16        15        18        21     9        0.000000        0.051921         3
        16        15        18        21     9      180.000000        0.164156         4
        17        12        13        28     9        0.000000       -0.074437         1
        17        12        13        28     9      180.000000       13.866631         2
        17        12        13        28     9        0.000000       -0.616164         3
        17        12        13        28     9      180.000000        0.084716         4
        17        16        15        18     9        0.000000        0.101251         1
        17        16        15        18     9      180.000000       14.310310         2
        17        16        15        18     9        0.000000       -0.089938         3
        17        16        15        18     9      180.000000       -0.134185         4
        18        15        14        29     9        0.000000       -0.107353         1
        18        15        14        29     9      180.000000       12.665265         2
        18        15        14        29     9        0.000000       -0.279679         3
        18        15        14        29     9      180.000000        0.197103         4
        18        15        16        30     9        0.000000       -0.107353         1
        18        15        16        30     9      180.000000       12.665265         2
        18        15        16        30     9        0.000000       -0.279679         3
        18        15        16        30     9      180.000000        0.197103         4
        19        18        20        33     9        0.000000        0.066220         1
        19        18        20        33     9      180.000000       -0.005018         2
        19        18        20        33     9        0.000000        0.478904         3
        19        18        20        33     9      180.000000        0.036037         4
        19        18        20        34     9        0.000000        0.066220         1
        19        18        20        34     9      180.000000       -0.005018         2
        19        18        20        34     9        0.000000        0.478904         3
        19        18        20        34     9      180.000000        0.036037         4
        19        18        20        35     9        0.000000        0.066220         1
        19        18        20        35     9      180.000000       -0.005018         2
        19        18        20        35     9        0.000000        0.478904         3
        19        18        20        35     9      180.000000        0.036037         4
        19        18        21        36     9        0.000000        0.066220         1
        19        18        21        36     9      180.000000       -0.005018         2
        19        18        21        36     9        0.000000        0.478904         3
        19        18        21        36     9      180.000000        0.036037         4
        19        18        21        37     9        0.000000        0.066220         1
        19        18        21        37     9      180.000000       -0.005018         2
        19        18        21        37     9        0.000000        0.478904         3
        19        18        21        37     9      180.000000        0.036037         4
        19        18        21        38     9        0.000000        0.066220         1
        19        18        21        38     9      180.000000       -0.005018         2
        19        18        21        38     9        0.000000        0.478904         3
        19        18        21        38     9      180.000000        0.036037         4
        20        18        19        32     9        0.000000       -0.807152         1
        20        18        19        32     9      180.000000        0.393124         2
        20        18        19        32     9        0.000000        0.885734         3
        20        18        19        32     9      180.000000        0.022606         4
        20        18        21        36     9        0.000000       -0.100194         1
        20        18        21        36     9      180.000000        0.026287         2
        20        18        21        36     9        0.000000        0.529877         3
        20        18        21        36     9      180.000000        0.062463         4
        20        18        21        37     9        0.000000       -0.100194         1
        20        18        21        37     9      180.000000        0.026287         2
        20        18        21        37     9        0.000000        0.529877         3
        20        18        21        37     9      180.000000        0.062463         4
        20        18        21        38     9        0.000000       -0.100194         1
        20        18        21        38     9      180.000000        0.026287         2
        20        18        21        38     9        0.000000        0.529877         3
        20        18        21        38     9      180.000000        0.062463         4
        21        18        19        32     9        0.000000       -0.807152         1
        21        18        19        32     9      180.000000        0.393124         2
        21        18        19        32     9        0.000000        0.885734         3
        21        18        19        32     9      180.000000        0.022606         4
        21        18        20        33     9        0.000000       -0.100194         1
        21        18        20        33     9      180.000000        0.026287         2
        21        18        20        33     9        0.000000        0.529877         3
        21        18        20        33     9      180.000000        0.062463         4
        21        18        20        34     9        0.000000       -0.100194         1
        21        18        20        34     9      180.000000        0.026287         2
        21        18        20        34     9        0.000000        0.529877         3
        21        18        20        34     9      180.000000        0.062463         4
        21        18        20        35     9        0.000000       -0.100194         1
        21        18        20        35     9      180.000000        0.026287         2
        21        18        20        35     9        0.000000        0.529877         3
        21        18        20        35     9      180.000000        0.062463         4
        22         1         3        24     9        0.000000        0.136836         1
        22         1         3        24     9      180.000000       15.262128         2
        22         1         3        24     9        0.000000       -0.014917         3
        22         1         3        24     9      180.000000        0.118954         4
        24         3         6        25     9        0.000000       -0.188241         1
        24         3         6        25     9      180.000000       11.167975         2
        24         3         6        25     9        0.000000       -0.740375         3
        24         3         6        25     9      180.000000        0.250570         4
        25         6         7        26     9        0.000000       -0.117189         1
        25         6         7        26     9      180.000000       12.116699         2
        25         6         7        26     9        0.000000       -0.707505         3
        25         6         7        26     9      180.000000        0.380082         4
        28        13        14        29     9        0.000000       -0.224986         1
        28        13        14        29     9      180.000000       12.329039         2
        28        13        14        29     9        0.000000       -0.815557         3
        28        13        14        29     9      180.000000        0.376642         4
        30        16        17        31     9        0.000000       -0.224986         1
        30        16        17        31     9      180.000000       12.329039         2
        30        16        17        31     9        0.000000       -0.815557         3
        30        16        17        31     9      180.000000        0.376642         4

[ dihedrals ] ; impropers
;       ai        aj        ak        al funct           phase               k        pn
         2         1         4         5     4      180.000000        9.702592         2
         2         4         5         1     4      180.000000        9.702592         2
         2         5         1         4     4      180.000000        9.702592         2
         8         4         9        10     4      180.000000       27.893333         2
         8         9        10         4     4      180.000000       27.893333         2
         8        10         4         9     4      180.000000       27.893333         2
        11         5         9        12     4      180.000000        8.462280         2
        11         9        12         5     4      180.000000        8.462280         2
        11        12         5         9     4      180.000000        8.462280         2

[ pairs ]
;       ai        aj funct
         1         7     1
         1         8     1
         1        11     1
         1        25     1
         1        39     1
         1        40     1
         1        41     1
         2         6     1
         2         9     1
         2        10     1
         2        12     1
         2        23     1
         2        24     1
         2        26     1
         3         4     1
         3         5     1
         3        23     1
         3        26     1
         4        11     1
         4        22     1
         4        25     1
         4        27     1
         5         7     1
         5         8     1
         5        13     1
         5        17     1
         5        22     1
         5        27     1
         6         8     1
         6        22     1
         7         9     1
         7        10     1
         7        24     1
         8        12     1
         8        26     1
         9        13     1
         9        17     1
        10        11     1
        10        27     1
        11        14     1
        11        16     1
        11        28     1
        11        31     1
        12        15     1
        12        27     1
        12        29     1
        12        30     1
        13        16     1
        13        18     1
        13        31     1
        14        17     1
        14        19     1
        14        20     1
        14        21     1
        14        30     1
        15        28     1
        15        31     1
        15        32     1
        15        33     1
        15        34     1
        15        35     1
        15        36     1
        15        37     1
        15        38     1
        16        19     1
        16        20     1
        16        21     1
        16        29     1
        17        18     1
        17        28     1
        18        29     1
        18        30     1
        19        33     1
        19        34     1
        19        35     1
        19        36     1
        19        37     1
        19        38     1
        20        32     1
        20        36     1
        20        37     1
        20        38     1
        21        32     1
        21        33     1
        21        34     1
        21        35     1
        22        24     1
        24        25     1
        25        26     1
        28        29     1
        30        31     1
