; ITP file created by ByteFF-ML, 2026-02-21 07:51:00.346517

[ atomtypes ]
;name           bonded.type        at.num        mass        charge   ptype           sigma         epsilon
 c0bf                                   6      0.0000       0.00000       A     3.31555e-01     4.12579e-01
 c1bf                                   6      0.0000       0.00000       A     3.31499e-01     4.10356e-01
 c2bf                                   6      0.0000       0.00000       A     3.31523e-01     4.12421e-01
 c3bf                                   6      0.0000       0.00000       A     3.31415e-01     4.12748e-01
 n4bf                                   7      0.0000       0.00000       A     3.38308e-01     3.91379e-01
 c5bf                                   6      0.0000       0.00000       A     3.31485e-01     4.13289e-01
 c6bf                                   6      0.0000       0.00000       A     3.31528e-01     4.12734e-01
 c7bf                                   6      0.0000       0.00000       A     3.31413e-01     4.13200e-01
 n8bf                                   7      0.0000       0.00000       A     3.26530e-01     5.01306e-01
 o9bf                                   8      0.0000       0.00000       A     3.04637e-01     6.12097e-01
 c10bf                                  6      0.0000       0.00000       A     3.31630e-01     4.10739e-01
 c11bf                                  6      0.0000       0.00000       A     3.31390e-01     4.12402e-01
 c12bf                                  6      0.0000       0.00000       A     3.31454e-01     4.13104e-01
 c13bf                                  6      0.0000       0.00000       A     3.31511e-01     4.13146e-01
 c14bf                                  6      0.0000       0.00000       A     3.31413e-01     4.11794e-01
 c15bf                                  6      0.0000       0.00000       A     3.31511e-01     4.13146e-01
 c16bf                                  6      0.0000       0.00000       A     3.31454e-01     4.13104e-01
 c17bf                                  6      0.0000       0.00000       A     3.39703e-01     4.51565e-01
 o18bf                                  8      0.0000       0.00000       A     3.24486e-01     3.89155e-01
 c19bf                                  6      0.0000       0.00000       A     3.39812e-01     4.51155e-01
 c20bf                                  6      0.0000       0.00000       A     3.39812e-01     4.51155e-01
 c21bf                                  6      0.0000       0.00000       A     3.39802e-01     4.51357e-01
 h22bf                                  1      0.0000       0.00000       A     2.62426e-01     6.76462e-02
 h23bf                                  1      0.0000       0.00000       A     2.62530e-01     6.75377e-02
 h24bf                                  1      0.0000       0.00000       A     2.62555e-01     6.74627e-02
 h25bf                                  1      0.0000       0.00000       A     1.10472e-01     4.18202e-02
 h26bf                                  1      0.0000       0.00000       A     2.62492e-01     6.72312e-02
 h27bf                                  1      0.0000       0.00000       A     2.62543e-01     6.73669e-02
 h28bf                                  1      0.0000       0.00000       A     2.62543e-01     6.73669e-02
 h29bf                                  1      0.0000       0.00000       A     2.62492e-01     6.72312e-02
 h30bf                                  1      0.0000       0.00000       A     5.37114e-02     1.97753e-02
 h31bf                                  1      0.0000       0.00000       A     2.60029e-01     8.77503e-02
 h32bf                                  1      0.0000       0.00000       A     2.60029e-01     8.77503e-02
 h33bf                                  1      0.0000       0.00000       A     2.60029e-01     8.77503e-02
 h34bf                                  1      0.0000       0.00000       A     2.60029e-01     8.77503e-02
 h35bf                                  1      0.0000       0.00000       A     2.60029e-01     8.77503e-02
 h36bf                                  1      0.0000       0.00000       A     2.60029e-01     8.77503e-02
 h37bf                                  1      0.0000       0.00000       A     2.59974e-01     8.74439e-02
 h38bf                                  1      0.0000       0.00000       A     2.59974e-01     8.74439e-02
 h39bf                                  1      0.0000       0.00000       A     2.59974e-01     8.74439e-02

[ moleculetype ]
;name             nrexcl
 5i                    3

[ atoms ]
;       nr            type      resi   res      atom      cgnr      charge          mass ; qtot
         1            c0bf         1   UNL        c0         1    -0.06813       12.0110 ; qtot   -0.068
         2            c1bf         1   UNL        c1         2     0.18528       12.0110 ; qtot    0.117
         3            c2bf         1   UNL        c2         3    -0.08404       12.0110 ; qtot    0.033
         4            c3bf         1   UNL        c3         4    -0.20298       12.0110 ; qtot   -0.170
         5            n4bf         1   UNL        n4         5    -0.62382       14.0070 ; qtot   -0.794
         6            c5bf         1   UNL        c5         6    -0.12420       12.0110 ; qtot   -0.918
         7            c6bf         1   UNL        c6         7    -0.04762       12.0110 ; qtot   -0.966
         8            c7bf         1   UNL        c7         8     0.57429       12.0110 ; qtot   -0.391
         9            n8bf         1   UNL        n8         9    -0.42547       14.0070 ; qtot   -0.817
        10            o9bf         1   UNL        o9        10    -0.53803       15.9990 ; qtot   -1.355
        11           c10bf         1   UNL       c10        11     0.55844       12.0110 ; qtot   -0.796
        12           c11bf         1   UNL       c11        12    -0.15625       12.0110 ; qtot   -0.953
        13           c12bf         1   UNL       c12        13    -0.06622       12.0110 ; qtot   -1.019
        14           c13bf         1   UNL       c13        14    -0.10147       12.0110 ; qtot   -1.120
        15           c14bf         1   UNL       c14        15    -0.09419       12.0110 ; qtot   -1.214
        16           c15bf         1   UNL       c15        16    -0.10147       12.0110 ; qtot   -1.316
        17           c16bf         1   UNL       c16        17    -0.06622       12.0110 ; qtot   -1.382
        18           c17bf         1   UNL       c17        18     0.22590       12.0110 ; qtot   -1.156
        19           o18bf         1   UNL       o18        19    -0.66653       15.9990 ; qtot   -1.823
        20           c19bf         1   UNL       c19        20    -0.10406       12.0110 ; qtot   -1.927
        21           c20bf         1   UNL       c20        21    -0.10406       12.0110 ; qtot   -2.031
        22           c21bf         1   UNL       c21        22    -0.03773       12.0110 ; qtot   -2.069
        23           h22bf         1   UNL       h22        23     0.11622        1.0080 ; qtot   -1.952
        24           h23bf         1   UNL       h23        24     0.12018        1.0080 ; qtot   -1.832
        25           h24bf         1   UNL       h24        25     0.13909        1.0080 ; qtot   -1.693
        26           h25bf         1   UNL       h25        26     0.33464        1.0080 ; qtot   -1.358
        27           h26bf         1   UNL       h26        27     0.12685        1.0080 ; qtot   -1.232
        28           h27bf         1   UNL       h27        28     0.12301        1.0080 ; qtot   -1.109
        29           h28bf         1   UNL       h28        29     0.12301        1.0080 ; qtot   -0.986
        30           h29bf         1   UNL       h29        30     0.12685        1.0080 ; qtot   -0.859
        31           h30bf         1   UNL       h30        31     0.44306        1.0080 ; qtot   -0.416
        32           h31bf         1   UNL       h31        32     0.04512        1.0080 ; qtot   -0.371
        33           h32bf         1   UNL       h32        33     0.04512        1.0080 ; qtot   -0.325
        34           h33bf         1   UNL       h33        34     0.04512        1.0080 ; qtot   -0.280
        35           h34bf         1   UNL       h34        35     0.04512        1.0080 ; qtot   -0.235
        36           h35bf         1   UNL       h35        36     0.04512        1.0080 ; qtot   -0.190
        37           h36bf         1   UNL       h36        37     0.04512        1.0080 ; qtot   -0.145
        38           h37bf         1   UNL       h37        38     0.04831        1.0080 ; qtot   -0.097
        39           h38bf         1   UNL       h38        39     0.04831        1.0080 ; qtot   -0.048
        40           h39bf         1   UNL       h39        40     0.04833        1.0080 ; qtot    0.000

[ bonds ]
;       ai        aj funct               r               k
         1         2     1        0.142234   254085.938721
         1         3     1        0.139064   318652.612598
         1        22     1        0.150758   205510.985791
         2         4     1        0.141581   264814.129443
         2         5     1        0.138846   249245.583936
         3         6     1        0.141003   288241.745898
         3        23     1        0.108710   315523.244141
         4         7     1        0.140563   291185.714941
         4         8     1        0.146734   200608.256616
         5        11     1        0.129930   427087.035107
         6         7     1        0.138679   332531.571875
         6        24     1        0.108594   320724.361670
         7        25     1        0.108486   324337.837109
         8         9     1        0.140137   209821.036963
         8        10     1        0.122948   605874.508496
         9        11     1        0.137831   256540.003857
         9        26     1        0.101480   412787.019971
        11        12     1        0.148027   204114.476196
        12        13     1        0.140471   289559.026611
        12        17     1        0.140471   289559.026611
        13        14     1        0.139386   326214.559277
        13        27     1        0.108506   321458.476953
        14        15     1        0.140255   285418.312012
        14        28     1        0.108556   319655.914551
        15        16     1        0.140255   285418.312012
        15        18     1        0.153061   167064.459033
        16        17     1        0.139386   326214.584814
        16        29     1        0.108556   319655.914551
        17        30     1        0.108506   321458.476953
        18        19     1        0.144382   176998.969165
        18        20     1        0.153644   175656.432251
        18        21     1        0.153644   175656.432251
        19        31     1        0.097079   466958.149512
        20        32     1        0.109340   302095.806494
        20        33     1        0.109340   302095.806494
        20        34     1        0.109340   302095.806494
        21        35     1        0.109340   302095.806494
        21        36     1        0.109340   302095.806494
        21        37     1        0.109340   302095.806494
        22        38     1        0.109360   302414.279785
        22        39     1        0.109360   302414.279785
        22        40     1        0.109360   302414.279785

[ angles ]
;       ai        aj        ak funct           theta             cth
         1         2         4     1      119.689407      647.566572
         1         2         5     1      118.033737      398.619913
         1         3         6     1      122.028587      713.100285
         1         3        23     1      118.889259      413.382724
         1        22        38     1      110.901352      477.387754
         1        22        39     1      110.901352      477.387754
         1        22        40     1      110.901352      477.387754
         2         1         3     1      118.183228      688.664400
         2         1        22     1      119.991867      499.846429
         2         4         7     1      120.769455      717.452958
         2         4         8     1      119.278709      849.433336
         2         5        11     1      118.564613      323.970473
         3         1        22     1      121.878151      497.064448
         3         6         7     1      120.009933      708.869680
         3         6        24     1      119.664490      447.886072
         4         2         5     1      122.606552      740.586770
         4         7         6     1      119.224792      636.343332
         4         7        25     1      118.430847      430.566741
         4         8         9     1      112.907204      624.307628
         4         8        10     1      126.551231      460.860360
         5        11         9     1      122.567589      512.025331
         5        11        12     1      120.108299      390.931583
         6         3        23     1      119.091835      450.032722
         6         7        25     1      122.152954      424.593707
         7         4         8     1      119.758057      511.744774
         7         6        24     1      120.408920      443.605797
         8         9        11     1      124.826378      717.534868
         8         9        26     1      114.882629      511.756011
         9         8        10     1      120.357567      785.092078
         9        11        12     1      117.498795      652.027139
        11         9        26     1      120.364792      426.611777
        11        12        13     1      120.680870      547.433012
        11        12        17     1      120.680870      547.433012
        12        13        14     1      120.499977      679.153103
        12        13        27     1      119.853783      419.505789
        12        17        16     1      120.499977      679.153103
        12        17        30     1      119.853783      419.505789
        13        12        17     1      118.451012      558.728842
        13        14        15     1      120.933960      722.975294
        13        14        28     1      119.310745      430.952351
        14        13        27     1      119.619583      424.105278
        14        15        16     1      118.030006      644.246429
        14        15        18     1      120.914795      498.155808
        15        14        28     1      119.809998      401.303639
        15        16        17     1      120.933960      722.975294
        15        16        29     1      119.809998      401.303639
        15        18        19     1      108.993263      692.794836
        15        18        20     1      110.967125      628.055391
        15        18        21     1      110.967125      628.055391
        16        15        18     1      120.914795      498.155808
        16        17        30     1      119.619583      424.105278
        17        16        29     1      119.310745      430.952351
        18        19        31     1      107.614967      572.046955
        18        20        32     1      110.548935      458.224962
        18        20        33     1      110.548935      458.224962
        18        20        34     1      110.548935      458.224962
        18        21        35     1      110.548935      458.224962
        18        21        36     1      110.548935      458.224962
        18        21        37     1      110.548935      458.224962
        19        18        20     1      107.278610      609.475930
        19        18        21     1      107.278610      609.475994
        20        18        21     1      110.435745      551.993621
        32        20        33     1      108.447632      360.423388
        32        20        34     1      108.447632      360.423388
        33        20        34     1      108.447632      360.423388
        35        21        36     1      108.447632      360.423356
        35        21        37     1      108.447632      360.423356
        36        21        37     1      108.447632      360.423356
        38        22        39     1      108.042618      351.820351
        38        22        40     1      108.042618      351.820351
        39        22        40     1      108.042618      351.820351

[ dihedrals ] ; propers for gromacs 4.5 or higher, use funct 9
;       ai        aj        ak        al funct           phase               k        pn
         1         2         4         7     9        0.000000       -0.105770         1
         1         2         4         7     9      180.000000       13.128639         2
         1         2         4         7     9        0.000000       -0.962670         3
         1         2         4         7     9      180.000000       -0.203500         4
         1         2         4         8     9        0.000000        0.336940         1
         1         2         4         8     9      180.000000       11.516605         2
         1         2         4         8     9        0.000000       -0.256428         3
         1         2         4         8     9      180.000000       -0.302403         4
         1         2         5        11     9        0.000000        0.025424         1
         1         2         5        11     9      180.000000        6.744304         2
         1         2         5        11     9        0.000000        1.094289         3
         1         2         5        11     9      180.000000       -0.168856         4
         1         3         6         7     9        0.000000        0.059603         1
         1         3         6         7     9      180.000000       17.013912         2
         1         3         6         7     9        0.000000       -1.694357         3
         1         3         6         7     9      180.000000       -0.369831         4
         1         3         6        24     9        0.000000        0.025272         1
         1         3         6        24     9      180.000000       13.253986         2
         1         3         6        24     9        0.000000       -0.601079         3
         1         3         6        24     9      180.000000        0.068472         4
         2         1         3         6     9        0.000000       -0.052673         1
         2         1         3         6     9      180.000000       20.200133         2
         2         1         3         6     9        0.000000       -1.274646         3
         2         1         3         6     9      180.000000       -0.446786         4
         2         1         3        23     9        0.000000        0.068419         1
         2         1         3        23     9      180.000000       15.077123         2
         2         1         3        23     9        0.000000       -0.174931         3
         2         1         3        23     9      180.000000        0.054462         4
         2         1        22        38     9        0.000000       -0.008643         1
         2         1        22        38     9      180.000000        0.004730         2
         2         1        22        38     9        0.000000        0.005529         3
         2         1        22        38     9      180.000000        0.022925         4
         2         1        22        39     9        0.000000       -0.008643         1
         2         1        22        39     9      180.000000        0.004730         2
         2         1        22        39     9        0.000000        0.005529         3
         2         1        22        39     9      180.000000        0.022925         4
         2         1        22        40     9        0.000000       -0.008643         1
         2         1        22        40     9      180.000000        0.004730         2
         2         1        22        40     9        0.000000        0.005529         3
         2         1        22        40     9      180.000000        0.022925         4
         2         4         7         6     9        0.000000       -0.205879         1
         2         4         7         6     9      180.000000       17.386167         2
         2         4         7         6     9        0.000000       -1.336616         3
         2         4         7         6     9      180.000000       -0.313172         4
         2         4         7        25     9        0.000000        0.118170         1
         2         4         7        25     9      180.000000       12.270344         2
         2         4         7        25     9        0.000000       -0.292593         3
         2         4         7        25     9      180.000000       -0.008359         4
         2         4         8         9     9        0.000000        0.358966         1
         2         4         8         9     9      180.000000        4.042542         2
         2         4         8         9     9        0.000000        0.171862         3
         2         4         8         9     9      180.000000        0.112139         4
         2         4         8        10     9        0.000000       -0.167784         1
         2         4         8        10     9      180.000000        8.139291         2
         2         4         8        10     9        0.000000        0.082841         3
         2         4         8        10     9      180.000000       -0.461451         4
         2         5        11         9     9        0.000000       -0.243682         1
         2         5        11         9     9      180.000000       36.628973         2
         2         5        11         9     9        0.000000       -0.560748         3
         2         5        11         9     9      180.000000       -1.187653         4
         2         5        11        12     9        0.000000        0.569675         1
         2         5        11        12     9      180.000000       30.896158         2
         2         5        11        12     9        0.000000        1.356973         3
         2         5        11        12     9      180.000000       -1.365323         4
         3         1         2         4     9        0.000000       -0.143264         1
         3         1         2         4     9      180.000000       14.840179         2
         3         1         2         4     9        0.000000       -0.854085         3
         3         1         2         4     9      180.000000       -0.259445         4
         3         1         2         5     9        0.000000        0.305657         1
         3         1         2         5     9      180.000000       15.265701         2
         3         1         2         5     9        0.000000        0.177468         3
         3         1         2         5     9      180.000000       -0.328725         4
         3         1        22        38     9        0.000000        0.004402         1
         3         1        22        38     9      180.000000       -0.003651         2
         3         1        22        38     9        0.000000       -0.087088         3
         3         1        22        38     9      180.000000        0.007029         4
         3         1        22        39     9        0.000000        0.004402         1
         3         1        22        39     9      180.000000       -0.003651         2
         3         1        22        39     9        0.000000       -0.087088         3
         3         1        22        39     9      180.000000        0.007029         4
         3         1        22        40     9        0.000000        0.004402         1
         3         1        22        40     9      180.000000       -0.003651         2
         3         1        22        40     9        0.000000       -0.087088         3
         3         1        22        40     9      180.000000        0.007029         4
         3         6         7         4     9        0.000000        0.033380         1
         3         6         7         4     9      180.000000       19.342806         2
         3         6         7         4     9        0.000000       -1.630323         3
         3         6         7         4     9      180.000000       -0.356937         4
         3         6         7        25     9        0.000000        0.095252         1
         3         6         7        25     9      180.000000       15.373766         2
         3         6         7        25     9        0.000000       -0.408604         3
         3         6         7        25     9      180.000000        0.114519         4
         4         2         1        22     9        0.000000        0.043308         1
         4         2         1        22     9      180.000000       12.786689         2
         4         2         1        22     9        0.000000       -0.145157         3
         4         2         1        22     9      180.000000       -0.225707         4
         4         2         5        11     9        0.000000        0.622435         1
         4         2         5        11     9      180.000000        5.964675         2
         4         2         5        11     9        0.000000        0.973655         3
         4         2         5        11     9      180.000000       -0.231989         4
         4         7         6        24     9        0.000000        0.086123         1
         4         7         6        24     9      180.000000       15.147238         2
         4         7         6        24     9        0.000000       -0.372923         3
         4         7         6        24     9      180.000000        0.059387         4
         4         8         9        11     9        0.000000       -0.444306         1
         4         8         9        11     9      180.000000        3.661914         2
         4         8         9        11     9        0.000000        0.198457         3
         4         8         9        11     9      180.000000        0.075815         4
         4         8         9        26     9        0.000000       -0.727053         1
         4         8         9        26     9      180.000000        6.913406         2
         4         8         9        26     9        0.000000        0.100209         3
         4         8         9        26     9      180.000000       -0.111188         4
         5         2         1        22     9        0.000000       -0.200162         1
         5         2         1        22     9      180.000000       16.660876         2
         5         2         1        22     9        0.000000       -0.225174         3
         5         2         1        22     9      180.000000       -0.603581         4
         5         2         4         7     9        0.000000        0.109432         1
         5         2         4         7     9      180.000000       13.868076         2
         5         2         4         7     9        0.000000       -0.006117         3
         5         2         4         7     9      180.000000       -0.239647         4
         5         2         4         8     9        0.000000        0.539189         1
         5         2         4         8     9      180.000000       12.657672         2
         5         2         4         8     9        0.000000        0.552844         3
         5         2         4         8     9      180.000000       -0.542827         4
         5        11         9         8     9        0.000000       -0.363315         1
         5        11         9         8     9      180.000000        7.366641         2
         5        11         9         8     9        0.000000        0.157688         3
         5        11         9         8     9      180.000000       -0.235402         4
         5        11         9        26     9        0.000000        1.563217         1
         5        11         9        26     9      180.000000        6.825650         2
         5        11         9        26     9        0.000000       -0.238310         3
         5        11         9        26     9      180.000000       -0.161067         4
         5        11        12        13     9        0.000000       -0.095647         1
         5        11        12        13     9      180.000000        3.726284         2
         5        11        12        13     9        0.000000       -0.079551         3
         5        11        12        13     9      180.000000       -0.042771         4
         5        11        12        17     9        0.000000       -0.095647         1
         5        11        12        17     9      180.000000        3.726284         2
         5        11        12        17     9        0.000000       -0.079551         3
         5        11        12        17     9      180.000000       -0.042771         4
         6         3         1        22     9        0.000000        0.036394         1
         6         3         1        22     9      180.000000       18.424687         2
         6         3         1        22     9        0.000000       -0.245657         3
         6         3         1        22     9      180.000000       -0.346600         4
         6         7         4         8     9        0.000000       -0.027456         1
         6         7         4         8     9      180.000000       13.865304         2
         6         7         4         8     9        0.000000       -0.592913         3
         6         7         4         8     9      180.000000       -0.079936         4
         7         4         8         9     9        0.000000       -0.585371         1
         7         4         8         9     9      180.000000        4.471769         2
         7         4         8         9     9        0.000000        0.315632         3
         7         4         8         9     9      180.000000        0.087584         4
         7         4         8        10     9        0.000000       -0.858391         1
         7         4         8        10     9      180.000000        6.938406         2
         7         4         8        10     9        0.000000       -0.062105         3
         7         4         8        10     9      180.000000       -0.106321         4
         7         6         3        23     9        0.000000        0.004812         1
         7         6         3        23     9      180.000000       13.623120         2
         7         6         3        23     9        0.000000       -0.664855         3
         7         6         3        23     9      180.000000        0.198120         4
         8         4         7        25     9        0.000000        0.239064         1
         8         4         7        25     9      180.000000       11.104440         2
         8         4         7        25     9        0.000000       -0.444127         3
         8         4         7        25     9      180.000000        0.092811         4
         8         9        11        12     9        0.000000        0.252843         1
         8         9        11        12     9      180.000000        7.723819         2
         8         9        11        12     9        0.000000        0.224070         3
         8         9        11        12     9      180.000000       -0.379378         4
         9        11        12        13     9        0.000000        0.029110         1
         9        11        12        13     9      180.000000        3.826332         2
         9        11        12        13     9        0.000000        0.172497         3
         9        11        12        13     9      180.000000       -0.298181         4
         9        11        12        17     9        0.000000        0.029110         1
         9        11        12        17     9      180.000000        3.826332         2
         9        11        12        17     9        0.000000        0.172497         3
         9        11        12        17     9      180.000000       -0.298181         4
        10         8         9        11     9        0.000000       -0.505172         1
        10         8         9        11     9      180.000000        9.476613         2
        10         8         9        11     9        0.000000       -0.291637         3
        10         8         9        11     9      180.000000       -0.432807         4
        10         8         9        26     9        0.000000        0.212445         1
        10         8         9        26     9      180.000000       10.146326         2
        10         8         9        26     9        0.000000       -0.559727         3
        10         8         9        26     9      180.000000        0.228231         4
        11        12        13        14     9        0.000000        0.041950         1
        11        12        13        14     9      180.000000       14.930177         2
        11        12        13        14     9        0.000000       -0.375580         3
        11        12        13        14     9      180.000000       -0.175390         4
        11        12        13        27     9        0.000000       -0.025079         1
        11        12        13        27     9      180.000000       12.376770         2
        11        12        13        27     9        0.000000       -0.353906         3
        11        12        13        27     9      180.000000        0.168111         4
        11        12        17        16     9        0.000000        0.041950         1
        11        12        17        16     9      180.000000       14.930177         2
        11        12        17        16     9        0.000000       -0.375580         3
        11        12        17        16     9      180.000000       -0.175390         4
        11        12        17        30     9        0.000000       -0.025079         1
        11        12        17        30     9      180.000000       12.376770         2
        11        12        17        30     9        0.000000       -0.353906         3
        11        12        17        30     9      180.000000        0.168111         4
        12        11         9        26     9        0.000000       -0.515979         1
        12        11         9        26     9      180.000000        6.259580         2
        12        11         9        26     9        0.000000       -0.150258         3
        12        11         9        26     9      180.000000       -0.138245         4
        12        13        14        15     9        0.000000       -0.029852         1
        12        13        14        15     9      180.000000       19.279119         2
        12        13        14        15     9        0.000000       -1.746203         3
        12        13        14        15     9      180.000000       -0.394485         4
        12        13        14        28     9        0.000000       -0.089815         1
        12        13        14        28     9      180.000000       15.139981         2
        12        13        14        28     9        0.000000       -0.484184         3
        12        13        14        28     9      180.000000        0.126791         4
        12        17        16        15     9        0.000000       -0.029852         1
        12        17        16        15     9      180.000000       19.279119         2
        12        17        16        15     9        0.000000       -1.746203         3
        12        17        16        15     9      180.000000       -0.394485         4
        12        17        16        29     9        0.000000       -0.089815         1
        12        17        16        29     9      180.000000       15.139981         2
        12        17        16        29     9        0.000000       -0.484184         3
        12        17        16        29     9      180.000000        0.126791         4
        13        12        17        16     9        0.000000       -0.120070         1
        13        12        17        16     9      180.000000       18.086734         2
        13        12        17        16     9        0.000000       -1.494844         3
        13        12        17        16     9      180.000000       -0.364611         4
        13        12        17        30     9        0.000000       -0.074437         1
        13        12        17        30     9      180.000000       13.866631         2
        13        12        17        30     9        0.000000       -0.616164         3
        13        12        17        30     9      180.000000        0.084716         4
        13        14        15        16     9        0.000000       -0.044566         1
        13        14        15        16     9      180.000000       18.663695         2
        13        14        15        16     9        0.000000       -1.272081         3
        13        14        15        16     9      180.000000       -0.423270         4
        13        14        15        18     9        0.000000        0.101251         1
        13        14        15        18     9      180.000000       14.310310         2
        13        14        15        18     9        0.000000       -0.089938         3
        13        14        15        18     9      180.000000       -0.134185         4
        14        13        12        17     9        0.000000       -0.120070         1
        14        13        12        17     9      180.000000       18.086734         2
        14        13        12        17     9        0.000000       -1.494844         3
        14        13        12        17     9      180.000000       -0.364611         4
        14        15        16        17     9        0.000000       -0.044566         1
        14        15        16        17     9      180.000000       18.663695         2
        14        15        16        17     9        0.000000       -1.272081         3
        14        15        16        17     9      180.000000       -0.423270         4
        14        15        16        29     9        0.000000       -0.032102         1
        14        15        16        29     9      180.000000       14.870907         2
        14        15        16        29     9        0.000000       -0.644491         3
        14        15        16        29     9      180.000000        0.032834         4
        14        15        18        19     9        0.000000        0.073774         1
        14        15        18        19     9      180.000000        0.989723         2
        14        15        18        19     9        0.000000        0.067884         3
        14        15        18        19     9      180.000000        0.132387         4
        14        15        18        20     9        0.000000        0.038083         1
        14        15        18        20     9      180.000000        0.245517         2
        14        15        18        20     9        0.000000        0.051921         3
        14        15        18        20     9      180.000000        0.164156         4
        14        15        18        21     9        0.000000        0.038083         1
        14        15        18        21     9      180.000000        0.245516         2
        14        15        18        21     9        0.000000        0.051921         3
        14        15        18        21     9      180.000000        0.164157         4
        15        14        13        27     9        0.000000        0.014394         1
        15        14        13        27     9      180.000000       15.258784         2
        15        14        13        27     9        0.000000       -0.668963         3
        15        14        13        27     9      180.000000        0.129899         4
        15        16        17        30     9        0.000000        0.014394         1
        15        16        17        30     9      180.000000       15.258784         2
        15        16        17        30     9        0.000000       -0.668963         3
        15        16        17        30     9      180.000000        0.129899         4
        15        18        19        31     9        0.000000        2.043549         1
        15        18        19        31     9      180.000000       -0.635021         2
        15        18        19        31     9        0.000000        0.964895         3
        15        18        19        31     9      180.000000        0.005137         4
        15        18        20        32     9        0.000000       -0.061558         1
        15        18        20        32     9      180.000000        0.025199         2
        15        18        20        32     9        0.000000        0.622302         3
        15        18        20        32     9      180.000000        0.008501         4
        15        18        20        33     9        0.000000       -0.061558         1
        15        18        20        33     9      180.000000        0.025199         2
        15        18        20        33     9        0.000000        0.622302         3
        15        18        20        33     9      180.000000        0.008501         4
        15        18        20        34     9        0.000000       -0.061558         1
        15        18        20        34     9      180.000000        0.025199         2
        15        18        20        34     9        0.000000        0.622302         3
        15        18        20        34     9      180.000000        0.008501         4
        15        18        21        35     9        0.000000       -0.061558         1
        15        18        21        35     9      180.000000        0.025199         2
        15        18        21        35     9        0.000000        0.622302         3
        15        18        21        35     9      180.000000        0.008500         4
        15        18        21        36     9        0.000000       -0.061558         1
        15        18        21        36     9      180.000000        0.025199         2
        15        18        21        36     9        0.000000        0.622302         3
        15        18        21        36     9      180.000000        0.008500         4
        15        18        21        37     9        0.000000       -0.061558         1
        15        18        21        37     9      180.000000        0.025199         2
        15        18        21        37     9        0.000000        0.622302         3
        15        18        21        37     9      180.000000        0.008500         4
        16        15        14        28     9        0.000000       -0.032102         1
        16        15        14        28     9      180.000000       14.870907         2
        16        15        14        28     9        0.000000       -0.644491         3
        16        15        14        28     9      180.000000        0.032834         4
        16        15        18        19     9        0.000000        0.073774         1
        16        15        18        19     9      180.000000        0.989723         2
        16        15        18        19     9        0.000000        0.067884         3
        16        15        18        19     9      180.000000        0.132387         4
        16        15        18        20     9        0.000000        0.038083         1
        16        15        18        20     9      180.000000        0.245517         2
        16        15        18        20     9        0.000000        0.051921         3
        16        15        18        20     9      180.000000        0.164156         4
        16        15        18        21     9        0.000000        0.038083         1
        16        15        18        21     9      180.000000        0.245516         2
        16        15        18        21     9        0.000000        0.051921         3
        16        15        18        21     9      180.000000        0.164157         4
        17        12        13        27     9        0.000000       -0.074437         1
        17        12        13        27     9      180.000000       13.866631         2
        17        12        13        27     9        0.000000       -0.616164         3
        17        12        13        27     9      180.000000        0.084716         4
        17        16        15        18     9        0.000000        0.101251         1
        17        16        15        18     9      180.000000       14.310310         2
        17        16        15        18     9        0.000000       -0.089938         3
        17        16        15        18     9      180.000000       -0.134185         4
        18        15        14        28     9        0.000000       -0.107353         1
        18        15        14        28     9      180.000000       12.665265         2
        18        15        14        28     9        0.000000       -0.279679         3
        18        15        14        28     9      180.000000        0.197103         4
        18        15        16        29     9        0.000000       -0.107353         1
        18        15        16        29     9      180.000000       12.665265         2
        18        15        16        29     9        0.000000       -0.279679         3
        18        15        16        29     9      180.000000        0.197103         4
        19        18        20        32     9        0.000000        0.066220         1
        19        18        20        32     9      180.000000       -0.005018         2
        19        18        20        32     9        0.000000        0.478904         3
        19        18        20        32     9      180.000000        0.036037         4
        19        18        20        33     9        0.000000        0.066220         1
        19        18        20        33     9      180.000000       -0.005018         2
        19        18        20        33     9        0.000000        0.478904         3
        19        18        20        33     9      180.000000        0.036037         4
        19        18        20        34     9        0.000000        0.066220         1
        19        18        20        34     9      180.000000       -0.005018         2
        19        18        20        34     9        0.000000        0.478904         3
        19        18        20        34     9      180.000000        0.036037         4
        19        18        21        35     9        0.000000        0.066220         1
        19        18        21        35     9      180.000000       -0.005018         2
        19        18        21        35     9        0.000000        0.478904         3
        19        18        21        35     9      180.000000        0.036037         4
        19        18        21        36     9        0.000000        0.066220         1
        19        18        21        36     9      180.000000       -0.005018         2
        19        18        21        36     9        0.000000        0.478904         3
        19        18        21        36     9      180.000000        0.036037         4
        19        18        21        37     9        0.000000        0.066220         1
        19        18        21        37     9      180.000000       -0.005018         2
        19        18        21        37     9        0.000000        0.478904         3
        19        18        21        37     9      180.000000        0.036037         4
        20        18        19        31     9        0.000000       -0.807152         1
        20        18        19        31     9      180.000000        0.393124         2
        20        18        19        31     9        0.000000        0.885734         3
        20        18        19        31     9      180.000000        0.022606         4
        20        18        21        35     9        0.000000       -0.100193         1
        20        18        21        35     9      180.000000        0.026287         2
        20        18        21        35     9        0.000000        0.529878         3
        20        18        21        35     9      180.000000        0.062463         4
        20        18        21        36     9        0.000000       -0.100193         1
        20        18        21        36     9      180.000000        0.026287         2
        20        18        21        36     9        0.000000        0.529878         3
        20        18        21        36     9      180.000000        0.062463         4
        20        18        21        37     9        0.000000       -0.100193         1
        20        18        21        37     9      180.000000        0.026287         2
        20        18        21        37     9        0.000000        0.529878         3
        20        18        21        37     9      180.000000        0.062463         4
        21        18        19        31     9        0.000000       -0.807150         1
        21        18        19        31     9      180.000000        0.393125         2
        21        18        19        31     9        0.000000        0.885734         3
        21        18        19        31     9      180.000000        0.022606         4
        21        18        20        32     9        0.000000       -0.100193         1
        21        18        20        32     9      180.000000        0.026287         2
        21        18        20        32     9        0.000000        0.529878         3
        21        18        20        32     9      180.000000        0.062463         4
        21        18        20        33     9        0.000000       -0.100193         1
        21        18        20        33     9      180.000000        0.026287         2
        21        18        20        33     9        0.000000        0.529878         3
        21        18        20        33     9      180.000000        0.062463         4
        21        18        20        34     9        0.000000       -0.100193         1
        21        18        20        34     9      180.000000        0.026287         2
        21        18        20        34     9        0.000000        0.529878         3
        21        18        20        34     9      180.000000        0.062463         4
        22         1         3        23     9        0.000000       -0.224963         1
        22         1         3        23     9      180.000000       14.282575         2
        22         1         3        23     9        0.000000       -0.439023         3
        22         1         3        23     9      180.000000        0.222161         4
        23         3         6        24     9        0.000000       -0.285999         1
        23         3         6        24     9      180.000000       10.500916         2
        23         3         6        24     9        0.000000       -0.520116         3
        23         3         6        24     9      180.000000        0.192182         4
        24         6         7        25     9        0.000000       -0.068556         1
        24         6         7        25     9      180.000000       12.132786         2
        24         6         7        25     9        0.000000       -0.634826         3
        24         6         7        25     9      180.000000        0.375294         4
        27        13        14        28     9        0.000000       -0.224986         1
        27        13        14        28     9      180.000000       12.329039         2
        27        13        14        28     9        0.000000       -0.815557         3
        27        13        14        28     9      180.000000        0.376642         4
        29        16        17        30     9        0.000000       -0.224986         1
        29        16        17        30     9      180.000000       12.329039         2
        29        16        17        30     9        0.000000       -0.815557         3
        29        16        17        30     9      180.000000        0.376642         4

[ dihedrals ] ; impropers
;       ai        aj        ak        al funct           phase               k        pn
         2         1         4         5     4      180.000000       12.485075         2
         2         4         5         1     4      180.000000       12.485075         2
         2         5         1         4     4      180.000000       12.485075         2
         3         1         6        23     4      180.000000        0.184892         2
         3         6        23         1     4      180.000000        0.184892         2
         3        23         1         6     4      180.000000        0.184892         2
         8         4         9        10     4      180.000000       27.893333         2
         8         9        10         4     4      180.000000       27.893333         2
         8        10         4         9     4      180.000000       27.893333         2
        11         5         9        12     4      180.000000        9.428819         2
        11         9        12         5     4      180.000000        9.428819         2
        11        12         5         9     4      180.000000        9.428819         2

[ pairs ]
;       ai        aj funct
         1         7     1
         1         8     1
         1        11     1
         1        24     1
         2         6     1
         2         9     1
         2        10     1
         2        12     1
         2        23     1
         2        25     1
         2        38     1
         2        39     1
         2        40     1
         3         4     1
         3         5     1
         3        25     1
         3        38     1
         3        39     1
         3        40     1
         4        11     1
         4        22     1
         4        24     1
         4        26     1
         5         7     1
         5         8     1
         5        13     1
         5        17     1
         5        22     1
         5        26     1
         6         8     1
         6        22     1
         7         9     1
         7        10     1
         7        23     1
         8        12     1
         8        25     1
         9        13     1
         9        17     1
        10        11     1
        10        26     1
        11        14     1
        11        16     1
        11        27     1
        11        30     1
        12        15     1
        12        26     1
        12        28     1
        12        29     1
        13        16     1
        13        18     1
        13        30     1
        14        17     1
        14        19     1
        14        20     1
        14        21     1
        14        29     1
        15        27     1
        15        30     1
        15        31     1
        15        32     1
        15        33     1
        15        34     1
        15        35     1
        15        36     1
        15        37     1
        16        19     1
        16        20     1
        16        21     1
        16        28     1
        17        18     1
        17        27     1
        18        28     1
        18        29     1
        19        32     1
        19        33     1
        19        34     1
        19        35     1
        19        36     1
        19        37     1
        20        31     1
        20        35     1
        20        36     1
        20        37     1
        21        31     1
        21        32     1
        21        33     1
        21        34     1
        22        23     1
        23        24     1
        24        25     1
        27        28     1
        29        30     1
