; ITP file created by ByteFF-ML, 2026-02-21 07:51:47.841035

[ atomtypes ]
;name           bonded.type        at.num        mass        charge   ptype           sigma         epsilon
 c0bf                                   6      0.0000       0.00000       A     3.31398e-01     4.13425e-01
 c1bf                                   6      0.0000       0.00000       A     3.31407e-01     4.12008e-01
 c2bf                                   6      0.0000       0.00000       A     3.31488e-01     4.12563e-01
 c3bf                                   6      0.0000       0.00000       A     3.31520e-01     4.14132e-01
 n4bf                                   7      0.0000       0.00000       A     3.38344e-01     3.92443e-01
 c5bf                                   6      0.0000       0.00000       A     3.31621e-01     4.12528e-01
 c6bf                                   6      0.0000       0.00000       A     3.31554e-01     4.13160e-01
 c7bf                                   6      0.0000       0.00000       A     3.31429e-01     4.12479e-01
 n8bf                                   7      0.0000       0.00000       A     3.26643e-01     5.00976e-01
 o9bf                                   8      0.0000       0.00000       A     3.04723e-01     6.12705e-01
 c10bf                                  6      0.0000       0.00000       A     3.31680e-01     4.10852e-01
 c11bf                                  6      0.0000       0.00000       A     3.31390e-01     4.12402e-01
 c12bf                                  6      0.0000       0.00000       A     3.31454e-01     4.13104e-01
 c13bf                                  6      0.0000       0.00000       A     3.31511e-01     4.13146e-01
 c14bf                                  6      0.0000       0.00000       A     3.31413e-01     4.11794e-01
 c15bf                                  6      0.0000       0.00000       A     3.31511e-01     4.13146e-01
 c16bf                                  6      0.0000       0.00000       A     3.31454e-01     4.13104e-01
 c17bf                                  6      0.0000       0.00000       A     3.39703e-01     4.51565e-01
 o18bf                                  8      0.0000       0.00000       A     3.24486e-01     3.89155e-01
 f19bf                                  9      0.0000       0.00000       A     3.03297e-01     3.47884e-01
 f20bf                                  9      0.0000       0.00000       A     3.03306e-01     3.51389e-01
 c21bf                                  6      0.0000       0.00000       A     3.39812e-01     4.51155e-01
 c22bf                                  6      0.0000       0.00000       A     3.39812e-01     4.51155e-01
 h23bf                                  1      0.0000       0.00000       A     2.62502e-01     6.68785e-02
 h24bf                                  1      0.0000       0.00000       A     2.62513e-01     6.73797e-02
 h25bf                                  1      0.0000       0.00000       A     1.10472e-01     4.18202e-02
 h26bf                                  1      0.0000       0.00000       A     2.62492e-01     6.72312e-02
 h27bf                                  1      0.0000       0.00000       A     2.62543e-01     6.73669e-02
 h28bf                                  1      0.0000       0.00000       A     2.62543e-01     6.73669e-02
 h29bf                                  1      0.0000       0.00000       A     2.62492e-01     6.72312e-02
 h30bf                                  1      0.0000       0.00000       A     5.37114e-02     1.97753e-02
 h31bf                                  1      0.0000       0.00000       A     2.60029e-01     8.77503e-02
 h32bf                                  1      0.0000       0.00000       A     2.60029e-01     8.77503e-02
 h33bf                                  1      0.0000       0.00000       A     2.60029e-01     8.77503e-02
 h34bf                                  1      0.0000       0.00000       A     2.60029e-01     8.77503e-02
 h35bf                                  1      0.0000       0.00000       A     2.60029e-01     8.77503e-02
 h36bf                                  1      0.0000       0.00000       A     2.60029e-01     8.77503e-02

[ moleculetype ]
;name             nrexcl
 5j                    3

[ atoms ]
;       nr            type      resi   res      atom      cgnr      charge          mass ; qtot
         1            c0bf         1   UNL        c0         1    -0.09561       12.0110 ; qtot   -0.096
         2            c1bf         1   UNL        c1         2     0.20966       12.0110 ; qtot    0.114
         3            c2bf         1   UNL        c2         3    -0.08427       12.0110 ; qtot    0.030
         4            c3bf         1   UNL        c3         4    -0.23471       12.0110 ; qtot   -0.205
         5            n4bf         1   UNL        n4         5    -0.62716       14.0070 ; qtot   -0.832
         6            c5bf         1   UNL        c5         6     0.09394       12.0110 ; qtot   -0.738
         7            c6bf         1   UNL        c6         7     0.21352       12.0110 ; qtot   -0.525
         8            c7bf         1   UNL        c7         8     0.58403       12.0110 ; qtot    0.059
         9            n8bf         1   UNL        n8         9    -0.42785       14.0070 ; qtot   -0.368
        10            o9bf         1   UNL        o9        10    -0.51702       15.9990 ; qtot   -0.885
        11           c10bf         1   UNL       c10        11     0.56923       12.0110 ; qtot   -0.316
        12           c11bf         1   UNL       c11        12    -0.15847       12.0110 ; qtot   -0.475
        13           c12bf         1   UNL       c12        13    -0.06622       12.0110 ; qtot   -0.541
        14           c13bf         1   UNL       c13        14    -0.10147       12.0110 ; qtot   -0.642
        15           c14bf         1   UNL       c14        15    -0.09419       12.0110 ; qtot   -0.737
        16           c15bf         1   UNL       c15        16    -0.10147       12.0110 ; qtot   -0.838
        17           c16bf         1   UNL       c16        17    -0.06622       12.0110 ; qtot   -0.904
        18           c17bf         1   UNL       c17        18     0.22590       12.0110 ; qtot   -0.678
        19           o18bf         1   UNL       o18        19    -0.66653       15.9990 ; qtot   -1.345
        20           f19bf         1   UNL       f19        20    -0.15352       18.9980 ; qtot   -1.498
        21           f20bf         1   UNL       f20        21    -0.12664       18.9980 ; qtot   -1.625
        22           c21bf         1   UNL       c21        22    -0.10406       12.0110 ; qtot   -1.729
        23           c22bf         1   UNL       c22        23    -0.10406       12.0110 ; qtot   -1.833
        24           h23bf         1   UNL       h23        24     0.14475        1.0080 ; qtot   -1.688
        25           h24bf         1   UNL       h24        25     0.14057        1.0080 ; qtot   -1.548
        26           h25bf         1   UNL       h25        26     0.33435        1.0080 ; qtot   -1.214
        27           h26bf         1   UNL       h26        27     0.12685        1.0080 ; qtot   -1.087
        28           h27bf         1   UNL       h27        28     0.12301        1.0080 ; qtot   -0.964
        29           h28bf         1   UNL       h28        29     0.12301        1.0080 ; qtot   -0.841
        30           h29bf         1   UNL       h29        30     0.12685        1.0080 ; qtot   -0.714
        31           h30bf         1   UNL       h30        31     0.44306        1.0080 ; qtot   -0.271
        32           h31bf         1   UNL       h31        32     0.04512        1.0080 ; qtot   -0.226
        33           h32bf         1   UNL       h32        33     0.04512        1.0080 ; qtot   -0.180
        34           h33bf         1   UNL       h33        34     0.04512        1.0080 ; qtot   -0.135
        35           h34bf         1   UNL       h34        35     0.04512        1.0080 ; qtot   -0.090
        36           h35bf         1   UNL       h35        36     0.04512        1.0080 ; qtot   -0.045
        37           h36bf         1   UNL       h36        37     0.04514        1.0080 ; qtot    0.000

[ bonds ]
;       ai        aj funct               r               k
         1         2     1        0.141030   284297.232910
         1         3     1        0.138670   339201.200879
         1        24     1        0.108456   326205.876660
         2         4     1        0.142269   254951.187061
         2         5     1        0.138581   254504.262109
         3         6     1        0.140125   290867.471484
         3        25     1        0.108476   325660.659375
         4         7     1        0.140838   271563.204395
         4         8     1        0.147075   193992.140625
         5        11     1        0.130037   424684.989062
         6         7     1        0.138883   296037.050684
         6        20     1        0.134779   309419.006738
         7        21     1        0.133713   326106.435156
         8         9     1        0.140910   196127.821851
         8        10     1        0.122602   617656.156055
         9        11     1        0.137656   260398.482324
         9        26     1        0.101484   412659.819629
        11        12     1        0.148032   204065.381104
        12        13     1        0.140471   289559.026611
        12        17     1        0.140471   289559.026611
        13        14     1        0.139386   326214.584814
        13        27     1        0.108506   321458.476953
        14        15     1        0.140255   285418.312012
        14        28     1        0.108556   319655.914551
        15        16     1        0.140255   285418.312012
        15        18     1        0.153061   167064.459033
        16        17     1        0.139386   326214.584814
        16        29     1        0.108556   319655.914551
        17        30     1        0.108506   321458.502490
        18        19     1        0.144382   176998.969165
        18        22     1        0.153644   175656.419482
        18        23     1        0.153644   175656.419482
        19        31     1        0.097079   466958.149512
        22        32     1        0.109340   302095.806494
        22        33     1        0.109340   302095.806494
        22        34     1        0.109340   302095.806494
        23        35     1        0.109340   302095.806494
        23        36     1        0.109340   302095.806494
        23        37     1        0.109340   302095.806494

[ angles ]
;       ai        aj        ak funct           theta             cth
         1         2         4     1      119.357033      597.781977
         1         2         5     1      117.686218      430.672720
         1         3         6     1      119.789650      701.317846
         1         3        25     1      121.678696      426.733078
         2         1         3     1      120.481339      686.334585
         2         1        24     1      118.142136      457.263841
         2         4         7     1      118.330185      798.086636
         2         4         8     1      119.059753      906.248871
         2         5        11     1      118.262924      319.493658
         3         1        24     1      121.254013      427.096982
         3         6         7     1      121.094604      593.628239
         3         6        20     1      119.430809      593.000984
         4         2         5     1      123.169960      720.918280
         4         7         6     1      120.425049      526.874331
         4         7        21     1      121.665672      544.070094
         4         8         9     1      112.524307      653.409399
         4         8        10     1      127.766190      486.730250
         5        11         9     1      122.561447      518.593508
         5        11        12     1      120.128113      399.645100
         6         3        25     1      118.501816      461.624973
         6         7        21     1      117.821999      452.908807
         7         4         8     1      122.011292      847.714944
         7         6        20     1      119.299118      386.689646
         8         9        11     1      125.465652      692.949144
         8         9        26     1      114.205688      522.504676
         9         8        10     1      119.409019      786.349525
         9        11        12     1      117.597794      654.346866
        11         9        26     1      120.356529      427.608650
        11        12        13     1      120.681503      548.326428
        11        12        17     1      120.681503      548.326428
        12        13        14     1      120.499977      679.153103
        12        13        27     1      119.853783      419.505789
        12        17        16     1      120.499977      679.153103
        12        17        30     1      119.853783      419.505789
        13        12        17     1      118.451012      558.728842
        13        14        15     1      120.933960      722.975294
        13        14        28     1      119.310745      430.952351
        14        13        27     1      119.619583      424.105278
        14        15        16     1      118.030006      644.246429
        14        15        18     1      120.914795      498.155808
        15        14        28     1      119.809998      401.303639
        15        16        17     1      120.933960      722.975294
        15        16        29     1      119.809998      401.303671
        15        18        19     1      108.993263      692.794836
        15        18        22     1      110.967125      628.055391
        15        18        23     1      110.967125      628.055391
        16        15        18     1      120.914795      498.155808
        16        17        30     1      119.619583      424.105214
        17        16        29     1      119.310730      430.952351
        18        19        31     1      107.614967      572.046955
        18        22        32     1      110.548935      458.224962
        18        22        33     1      110.548935      458.224962
        18        22        34     1      110.548935      458.224962
        18        23        35     1      110.548935      458.224962
        18        23        36     1      110.548935      458.224962
        18        23        37     1      110.548935      458.224962
        19        18        22     1      107.278610      609.475994
        19        18        23     1      107.278610      609.475994
        22        18        23     1      110.435745      551.993621
        32        22        33     1      108.447632      360.423356
        32        22        34     1      108.447632      360.423356
        33        22        34     1      108.447632      360.423356
        35        23        36     1      108.447632      360.423356
        35        23        37     1      108.447632      360.423356
        36        23        37     1      108.447632      360.423356

[ dihedrals ] ; propers for gromacs 4.5 or higher, use funct 9
;       ai        aj        ak        al funct           phase               k        pn
         1         2         4         7     9        0.000000        0.177266         1
         1         2         4         7     9      180.000000       12.552166         2
         1         2         4         7     9        0.000000       -0.736664         3
         1         2         4         7     9      180.000000       -0.128421         4
         1         2         4         8     9        0.000000        0.403460         1
         1         2         4         8     9      180.000000       10.319378         2
         1         2         4         8     9        0.000000       -0.166613         3
         1         2         4         8     9      180.000000       -0.131963         4
         1         2         5        11     9        0.000000        0.012743         1
         1         2         5        11     9      180.000000        6.906793         2
         1         2         5        11     9        0.000000        1.108342         3
         1         2         5        11     9      180.000000       -0.171203         4
         1         3         6         7     9        0.000000       -0.102838         1
         1         3         6         7     9      180.000000       15.701183         2
         1         3         6         7     9        0.000000       -1.278356         3
         1         3         6         7     9      180.000000       -0.284898         4
         1         3         6        20     9        0.000000        0.578576         1
         1         3         6        20     9      180.000000       20.940950         2
         1         3         6        20     9        0.000000        0.576694         3
         1         3         6        20     9      180.000000       -0.466904         4
         2         1         3         6     9        0.000000       -0.190980         1
         2         1         3         6     9      180.000000       20.124617         2
         2         1         3         6     9        0.000000       -1.511479         3
         2         1         3         6     9      180.000000       -0.526154         4
         2         1         3        25     9        0.000000        0.099068         1
         2         1         3        25     9      180.000000       15.043887         2
         2         1         3        25     9        0.000000       -0.419763         3
         2         1         3        25     9      180.000000        0.058907         4
         2         4         7         6     9        0.000000       -0.143991         1
         2         4         7         6     9      180.000000       13.963208         2
         2         4         7         6     9        0.000000       -0.922978         3
         2         4         7         6     9      180.000000       -0.172531         4
         2         4         7        21     9        0.000000        0.921906         1
         2         4         7        21     9      180.000000       17.069130         2
         2         4         7        21     9        0.000000        0.808289         3
         2         4         7        21     9      180.000000       -0.552753         4
         2         4         8         9     9        0.000000        0.554737         1
         2         4         8         9     9      180.000000        2.285251         2
         2         4         8         9     9        0.000000        0.191348         3
         2         4         8         9     9      180.000000        0.091687         4
         2         4         8        10     9        0.000000        0.135494         1
         2         4         8        10     9      180.000000        6.857489         2
         2         4         8        10     9        0.000000        0.081080         3
         2         4         8        10     9      180.000000       -0.471953         4
         2         5        11         9     9        0.000000       -0.315764         1
         2         5        11         9     9      180.000000       35.892483         2
         2         5        11         9     9        0.000000       -0.370667         3
         2         5        11         9     9      180.000000       -1.025488         4
         2         5        11        12     9        0.000000        0.717227         1
         2         5        11        12     9      180.000000       30.025524         2
         2         5        11        12     9        0.000000        1.434182         3
         2         5        11        12     9      180.000000       -1.188974         4
         3         1         2         4     9        0.000000        0.014496         1
         3         1         2         4     9      180.000000       16.571078         2
         3         1         2         4     9        0.000000       -1.053680         3
         3         1         2         4     9      180.000000       -0.363329         4
         3         1         2         5     9        0.000000        0.608843         1
         3         1         2         5     9      180.000000       17.076238         2
         3         1         2         5     9        0.000000        0.330785         3
         3         1         2         5     9      180.000000       -0.446883         4
         3         6         7         4     9        0.000000        0.024628         1
         3         6         7         4     9      180.000000       14.997065         2
         3         6         7         4     9        0.000000       -0.773601         3
         3         6         7         4     9      180.000000       -0.284678         4
         3         6         7        21     9        0.000000        0.508109         1
         3         6         7        21     9      180.000000       19.566034         2
         3         6         7        21     9        0.000000        0.645919         3
         3         6         7        21     9      180.000000       -0.538950         4
         4         2         1        24     9        0.000000       -0.041086         1
         4         2         1        24     9      180.000000       12.504992         2
         4         2         1        24     9        0.000000       -0.252479         3
         4         2         1        24     9      180.000000       -0.023746         4
         4         2         5        11     9        0.000000        0.739835         1
         4         2         5        11     9      180.000000        6.637760         2
         4         2         5        11     9        0.000000        1.077310         3
         4         2         5        11     9      180.000000       -0.136940         4
         4         7         6        20     9        0.000000        0.163821         1
         4         7         6        20     9      180.000000       18.880267         2
         4         7         6        20     9        0.000000        0.363630         3
         4         7         6        20     9      180.000000       -0.522789         4
         4         8         9        11     9        0.000000       -0.572065         1
         4         8         9        11     9      180.000000        2.330313         2
         4         8         9        11     9        0.000000        0.073295         3
         4         8         9        11     9      180.000000        0.167830         4
         4         8         9        26     9        0.000000       -0.801967         1
         4         8         9        26     9      180.000000        6.832906         2
         4         8         9        26     9        0.000000        0.022800         3
         4         8         9        26     9      180.000000       -0.235592         4
         5         2         1        24     9        0.000000        0.235791         1
         5         2         1        24     9      180.000000       14.307727         2
         5         2         1        24     9        0.000000       -0.206765         3
         5         2         1        24     9      180.000000       -0.006067         4
         5         2         4         7     9        0.000000        0.347621         1
         5         2         4         7     9      180.000000       13.109808         2
         5         2         4         7     9        0.000000        0.256428         3
         5         2         4         7     9      180.000000       -0.409439         4
         5         2         4         8     9        0.000000        0.913420         1
         5         2         4         8     9      180.000000       10.157085         2
         5         2         4         8     9        0.000000        0.691177         3
         5         2         4         8     9      180.000000       -0.372450         4
         5        11         9         8     9        0.000000       -0.027430         1
         5        11         9         8     9      180.000000        7.356669         2
         5        11         9         8     9        0.000000        0.204321         3
         5        11         9         8     9      180.000000       -0.241589         4
         5        11         9        26     9        0.000000        1.448956         1
         5        11         9        26     9      180.000000        7.014741         2
         5        11         9        26     9        0.000000       -0.326683         3
         5        11         9        26     9      180.000000       -0.117950         4
         5        11        12        13     9        0.000000        0.023594         1
         5        11        12        13     9      180.000000        3.748413         2
         5        11        12        13     9        0.000000       -0.047204         3
         5        11        12        13     9      180.000000       -0.055851         4
         5        11        12        17     9        0.000000        0.023594         1
         5        11        12        17     9      180.000000        3.748413         2
         5        11        12        17     9        0.000000       -0.047204         3
         5        11        12        17     9      180.000000       -0.055851         4
         6         3         1        24     9        0.000000        0.088255         1
         6         3         1        24     9      180.000000       15.615339         2
         6         3         1        24     9        0.000000       -0.600243         3
         6         3         1        24     9      180.000000        0.111619         4
         6         7         4         8     9        0.000000       -0.017890         1
         6         7         4         8     9      180.000000       10.646753         2
         6         7         4         8     9        0.000000       -0.002303         3
         6         7         4         8     9      180.000000       -0.234120         4
         7         4         8         9     9        0.000000       -0.889476         1
         7         4         8         9     9      180.000000        2.870252         2
         7         4         8         9     9        0.000000        0.237001         3
         7         4         8         9     9      180.000000        0.033384         4
         7         4         8        10     9        0.000000       -1.786693         1
         7         4         8        10     9      180.000000        5.872348         2
         7         4         8        10     9        0.000000       -0.093338         3
         7         4         8        10     9      180.000000       -0.321726         4
         7         6         3        25     9        0.000000        0.102772         1
         7         6         3        25     9      180.000000       11.942215         2
         7         6         3        25     9        0.000000       -0.489237         3
         7         6         3        25     9      180.000000        0.115802         4
         8         4         7        21     9        0.000000        0.371117         1
         8         4         7        21     9      180.000000       13.005817         2
         8         4         7        21     9        0.000000        0.587174         3
         8         4         7        21     9      180.000000       -0.265029         4
         8         9        11        12     9        0.000000        0.251875         1
         8         9        11        12     9      180.000000        7.739764         2
         8         9        11        12     9        0.000000        0.196831         3
         8         9        11        12     9      180.000000       -0.357880         4
         9        11        12        13     9        0.000000        0.025559         1
         9        11        12        13     9      180.000000        3.837186         2
         9        11        12        13     9        0.000000        0.178803         3
         9        11        12        13     9      180.000000       -0.320307         4
         9        11        12        17     9        0.000000        0.025559         1
         9        11        12        17     9      180.000000        3.837186         2
         9        11        12        17     9        0.000000        0.178803         3
         9        11        12        17     9      180.000000       -0.320307         4
        10         8         9        11     9        0.000000       -0.051767         1
        10         8         9        11     9      180.000000        9.242987         2
        10         8         9        11     9        0.000000       -0.353584         3
        10         8         9        11     9      180.000000       -0.408460         4
        10         8         9        26     9        0.000000        0.259115         1
        10         8         9        26     9      180.000000       10.289023         2
        10         8         9        26     9        0.000000       -0.674367         3
        10         8         9        26     9      180.000000        0.213445         4
        11        12        13        14     9        0.000000        0.049032         1
        11        12        13        14     9      180.000000       14.913803         2
        11        12        13        14     9        0.000000       -0.374008         3
        11        12        13        14     9      180.000000       -0.175342         4
        11        12        13        27     9        0.000000       -0.022072         1
        11        12        13        27     9      180.000000       12.369898         2
        11        12        13        27     9        0.000000       -0.344720         3
        11        12        13        27     9      180.000000        0.164104         4
        11        12        17        16     9        0.000000        0.049032         1
        11        12        17        16     9      180.000000       14.913803         2
        11        12        17        16     9        0.000000       -0.374008         3
        11        12        17        16     9      180.000000       -0.175342         4
        11        12        17        30     9        0.000000       -0.022072         1
        11        12        17        30     9      180.000000       12.369899         2
        11        12        17        30     9        0.000000       -0.344721         3
        11        12        17        30     9      180.000000        0.164104         4
        12        11         9        26     9        0.000000       -0.479194         1
        12        11         9        26     9      180.000000        6.395546         2
        12        11         9        26     9        0.000000       -0.138074         3
        12        11         9        26     9      180.000000       -0.143805         4
        12        13        14        15     9        0.000000       -0.029852         1
        12        13        14        15     9      180.000000       19.279119         2
        12        13        14        15     9        0.000000       -1.746203         3
        12        13        14        15     9      180.000000       -0.394485         4
        12        13        14        28     9        0.000000       -0.089815         1
        12        13        14        28     9      180.000000       15.139981         2
        12        13        14        28     9        0.000000       -0.484184         3
        12        13        14        28     9      180.000000        0.126791         4
        12        17        16        15     9        0.000000       -0.029852         1
        12        17        16        15     9      180.000000       19.279119         2
        12        17        16        15     9        0.000000       -1.746203         3
        12        17        16        15     9      180.000000       -0.394485         4
        12        17        16        29     9        0.000000       -0.089816         1
        12        17        16        29     9      180.000000       15.139981         2
        12        17        16        29     9        0.000000       -0.484184         3
        12        17        16        29     9      180.000000        0.126791         4
        13        12        17        16     9        0.000000       -0.120070         1
        13        12        17        16     9      180.000000       18.086734         2
        13        12        17        16     9        0.000000       -1.494844         3
        13        12        17        16     9      180.000000       -0.364611         4
        13        12        17        30     9        0.000000       -0.074437         1
        13        12        17        30     9      180.000000       13.866631         2
        13        12        17        30     9        0.000000       -0.616165         3
        13        12        17        30     9      180.000000        0.084716         4
        13        14        15        16     9        0.000000       -0.044566         1
        13        14        15        16     9      180.000000       18.663695         2
        13        14        15        16     9        0.000000       -1.272081         3
        13        14        15        16     9      180.000000       -0.423270         4
        13        14        15        18     9        0.000000        0.101251         1
        13        14        15        18     9      180.000000       14.310310         2
        13        14        15        18     9        0.000000       -0.089938         3
        13        14        15        18     9      180.000000       -0.134185         4
        14        13        12        17     9        0.000000       -0.120070         1
        14        13        12        17     9      180.000000       18.086734         2
        14        13        12        17     9        0.000000       -1.494844         3
        14        13        12        17     9      180.000000       -0.364611         4
        14        15        16        17     9        0.000000       -0.044566         1
        14        15        16        17     9      180.000000       18.663695         2
        14        15        16        17     9        0.000000       -1.272081         3
        14        15        16        17     9      180.000000       -0.423270         4
        14        15        16        29     9        0.000000       -0.032101         1
        14        15        16        29     9      180.000000       14.870907         2
        14        15        16        29     9        0.000000       -0.644491         3
        14        15        16        29     9      180.000000        0.032834         4
        14        15        18        19     9        0.000000        0.073774         1
        14        15        18        19     9      180.000000        0.989723         2
        14        15        18        19     9        0.000000        0.067884         3
        14        15        18        19     9      180.000000        0.132387         4
        14        15        18        22     9        0.000000        0.038083         1
        14        15        18        22     9      180.000000        0.245516         2
        14        15        18        22     9        0.000000        0.051921         3
        14        15        18        22     9      180.000000        0.164157         4
        14        15        18        23     9        0.000000        0.038083         1
        14        15        18        23     9      180.000000        0.245516         2
        14        15        18        23     9        0.000000        0.051921         3
        14        15        18        23     9      180.000000        0.164157         4
        15        14        13        27     9        0.000000        0.014394         1
        15        14        13        27     9      180.000000       15.258784         2
        15        14        13        27     9        0.000000       -0.668963         3
        15        14        13        27     9      180.000000        0.129899         4
        15        16        17        30     9        0.000000        0.014395         1
        15        16        17        30     9      180.000000       15.258780         2
        15        16        17        30     9        0.000000       -0.668963         3
        15        16        17        30     9      180.000000        0.129900         4
        15        18        19        31     9        0.000000        2.043549         1
        15        18        19        31     9      180.000000       -0.635021         2
        15        18        19        31     9        0.000000        0.964895         3
        15        18        19        31     9      180.000000        0.005137         4
        15        18        22        32     9        0.000000       -0.061558         1
        15        18        22        32     9      180.000000        0.025199         2
        15        18        22        32     9        0.000000        0.622302         3
        15        18        22        32     9      180.000000        0.008500         4
        15        18        22        33     9        0.000000       -0.061558         1
        15        18        22        33     9      180.000000        0.025199         2
        15        18        22        33     9        0.000000        0.622302         3
        15        18        22        33     9      180.000000        0.008500         4
        15        18        22        34     9        0.000000       -0.061558         1
        15        18        22        34     9      180.000000        0.025199         2
        15        18        22        34     9        0.000000        0.622302         3
        15        18        22        34     9      180.000000        0.008500         4
        15        18        23        35     9        0.000000       -0.061558         1
        15        18        23        35     9      180.000000        0.025199         2
        15        18        23        35     9        0.000000        0.622302         3
        15        18        23        35     9      180.000000        0.008500         4
        15        18        23        36     9        0.000000       -0.061558         1
        15        18        23        36     9      180.000000        0.025199         2
        15        18        23        36     9        0.000000        0.622302         3
        15        18        23        36     9      180.000000        0.008500         4
        15        18        23        37     9        0.000000       -0.061558         1
        15        18        23        37     9      180.000000        0.025199         2
        15        18        23        37     9        0.000000        0.622302         3
        15        18        23        37     9      180.000000        0.008500         4
        16        15        14        28     9        0.000000       -0.032102         1
        16        15        14        28     9      180.000000       14.870907         2
        16        15        14        28     9        0.000000       -0.644491         3
        16        15        14        28     9      180.000000        0.032834         4
        16        15        18        19     9        0.000000        0.073774         1
        16        15        18        19     9      180.000000        0.989723         2
        16        15        18        19     9        0.000000        0.067884         3
        16        15        18        19     9      180.000000        0.132387         4
        16        15        18        22     9        0.000000        0.038083         1
        16        15        18        22     9      180.000000        0.245516         2
        16        15        18        22     9        0.000000        0.051921         3
        16        15        18        22     9      180.000000        0.164157         4
        16        15        18        23     9        0.000000        0.038083         1
        16        15        18        23     9      180.000000        0.245516         2
        16        15        18        23     9        0.000000        0.051921         3
        16        15        18        23     9      180.000000        0.164157         4
        17        12        13        27     9        0.000000       -0.074437         1
        17        12        13        27     9      180.000000       13.866631         2
        17        12        13        27     9        0.000000       -0.616164         3
        17        12        13        27     9      180.000000        0.084716         4
        17        16        15        18     9        0.000000        0.101251         1
        17        16        15        18     9      180.000000       14.310310         2
        17        16        15        18     9        0.000000       -0.089938         3
        17        16        15        18     9      180.000000       -0.134185         4
        18        15        14        28     9        0.000000       -0.107353         1
        18        15        14        28     9      180.000000       12.665265         2
        18        15        14        28     9        0.000000       -0.279679         3
        18        15        14        28     9      180.000000        0.197103         4
        18        15        16        29     9        0.000000       -0.107353         1
        18        15        16        29     9      180.000000       12.665268         2
        18        15        16        29     9        0.000000       -0.279679         3
        18        15        16        29     9      180.000000        0.197103         4
        19        18        22        32     9        0.000000        0.066220         1
        19        18        22        32     9      180.000000       -0.005018         2
        19        18        22        32     9        0.000000        0.478904         3
        19        18        22        32     9      180.000000        0.036037         4
        19        18        22        33     9        0.000000        0.066220         1
        19        18        22        33     9      180.000000       -0.005018         2
        19        18        22        33     9        0.000000        0.478904         3
        19        18        22        33     9      180.000000        0.036037         4
        19        18        22        34     9        0.000000        0.066220         1
        19        18        22        34     9      180.000000       -0.005018         2
        19        18        22        34     9        0.000000        0.478904         3
        19        18        22        34     9      180.000000        0.036037         4
        19        18        23        35     9        0.000000        0.066220         1
        19        18        23        35     9      180.000000       -0.005018         2
        19        18        23        35     9        0.000000        0.478904         3
        19        18        23        35     9      180.000000        0.036037         4
        19        18        23        36     9        0.000000        0.066220         1
        19        18        23        36     9      180.000000       -0.005018         2
        19        18        23        36     9        0.000000        0.478904         3
        19        18        23        36     9      180.000000        0.036037         4
        19        18        23        37     9        0.000000        0.066220         1
        19        18        23        37     9      180.000000       -0.005018         2
        19        18        23        37     9        0.000000        0.478904         3
        19        18        23        37     9      180.000000        0.036037         4
        20         6         3        25     9        0.000000        0.292041         1
        20         6         3        25     9      180.000000       14.615101         2
        20         6         3        25     9        0.000000        0.155780         3
        20         6         3        25     9      180.000000        0.302301         4
        20         6         7        21     9        0.000000        0.016796         1
        20         6         7        21     9      180.000000       25.468474         2
        20         6         7        21     9        0.000000        0.960682         3
        20         6         7        21     9      180.000000       -1.278583         4
        22        18        19        31     9        0.000000       -0.807150         1
        22        18        19        31     9      180.000000        0.393125         2
        22        18        19        31     9        0.000000        0.885734         3
        22        18        19        31     9      180.000000        0.022606         4
        22        18        23        35     9        0.000000       -0.100193         1
        22        18        23        35     9      180.000000        0.026286         2
        22        18        23        35     9        0.000000        0.529878         3
        22        18        23        35     9      180.000000        0.062463         4
        22        18        23        36     9        0.000000       -0.100193         1
        22        18        23        36     9      180.000000        0.026286         2
        22        18        23        36     9        0.000000        0.529878         3
        22        18        23        36     9      180.000000        0.062463         4
        22        18        23        37     9        0.000000       -0.100193         1
        22        18        23        37     9      180.000000        0.026286         2
        22        18        23        37     9        0.000000        0.529878         3
        22        18        23        37     9      180.000000        0.062463         4
        23        18        19        31     9        0.000000       -0.807150         1
        23        18        19        31     9      180.000000        0.393125         2
        23        18        19        31     9        0.000000        0.885734         3
        23        18        19        31     9      180.000000        0.022606         4
        23        18        22        32     9        0.000000       -0.100193         1
        23        18        22        32     9      180.000000        0.026286         2
        23        18        22        32     9        0.000000        0.529878         3
        23        18        22        32     9      180.000000        0.062463         4
        23        18        22        33     9        0.000000       -0.100193         1
        23        18        22        33     9      180.000000        0.026286         2
        23        18        22        33     9        0.000000        0.529878         3
        23        18        22        33     9      180.000000        0.062463         4
        23        18        22        34     9        0.000000       -0.100193         1
        23        18        22        34     9      180.000000        0.026286         2
        23        18        22        34     9        0.000000        0.529878         3
        23        18        22        34     9      180.000000        0.062463         4
        24         1         3        25     9        0.000000       -0.041426         1
        24         1         3        25     9      180.000000       12.463422         2
        24         1         3        25     9        0.000000       -0.811727         3
        24         1         3        25     9      180.000000        0.349505         4
        27        13        14        28     9        0.000000       -0.224986         1
        27        13        14        28     9      180.000000       12.329039         2
        27        13        14        28     9        0.000000       -0.815557         3
        27        13        14        28     9      180.000000        0.376642         4
        29        16        17        30     9        0.000000       -0.224987         1
        29        16        17        30     9      180.000000       12.329039         2
        29        16        17        30     9        0.000000       -0.815557         3
        29        16        17        30     9      180.000000        0.376642         4

[ dihedrals ] ; impropers
;       ai        aj        ak        al funct           phase               k        pn
         2         1         4         5     4      180.000000       15.452003         2
         2         4         5         1     4      180.000000       15.452003         2
         2         5         1         4     4      180.000000       15.452003         2
         8         4         9        10     4      180.000000       27.893333         2
         8         9        10         4     4      180.000000       27.893333         2
         8        10         4         9     4      180.000000       27.893333         2
        11         5         9        12     4      180.000000        9.732701         2
        11         9        12         5     4      180.000000        9.732701         2
        11        12         5         9     4      180.000000        9.732701         2

[ pairs ]
;       ai        aj funct
         1         7     1
         1         8     1
         1        11     1
         1        20     1
         2         6     1
         2         9     1
         2        10     1
         2        12     1
         2        21     1
         2        25     1
         3         4     1
         3         5     1
         3        21     1
         4        11     1
         4        20     1
         4        24     1
         4        26     1
         5         7     1
         5         8     1
         5        13     1
         5        17     1
         5        24     1
         5        26     1
         6         8     1
         6        24     1
         7         9     1
         7        10     1
         7        25     1
         8        12     1
         8        21     1
         9        13     1
         9        17     1
        10        11     1
        10        26     1
        11        14     1
        11        16     1
        11        27     1
        11        30     1
        12        15     1
        12        26     1
        12        28     1
        12        29     1
        13        16     1
        13        18     1
        13        30     1
        14        17     1
        14        19     1
        14        22     1
        14        23     1
        14        29     1
        15        27     1
        15        30     1
        15        31     1
        15        32     1
        15        33     1
        15        34     1
        15        35     1
        15        36     1
        15        37     1
        16        19     1
        16        22     1
        16        23     1
        16        28     1
        17        18     1
        17        27     1
        18        28     1
        18        29     1
        19        32     1
        19        33     1
        19        34     1
        19        35     1
        19        36     1
        19        37     1
        20        21     1
        20        25     1
        22        31     1
        22        35     1
        22        36     1
        22        37     1
        23        31     1
        23        32     1
        23        33     1
        23        34     1
        24        25     1
        27        28     1
        29        30     1
