; ITP file created by ByteFF-ML, 2026-02-21 07:51:52.838938

[ atomtypes ]
;name           bonded.type        at.num        mass        charge   ptype           sigma         epsilon
 c0bf                                   6      0.0000       0.00000       A     3.31469e-01     4.13543e-01
 c1bf                                   6      0.0000       0.00000       A     3.31449e-01     4.11368e-01
 c2bf                                   6      0.0000       0.00000       A     3.31519e-01     4.12388e-01
 c3bf                                   6      0.0000       0.00000       A     3.31577e-01     4.13395e-01
 n4bf                                   7      0.0000       0.00000       A     3.38346e-01     3.92604e-01
 c5bf                                   6      0.0000       0.00000       A     3.31516e-01     4.13861e-01
 c6bf                                   6      0.0000       0.00000       A     3.31376e-01     4.12268e-01
 c7bf                                   6      0.0000       0.00000       A     3.31457e-01     4.13299e-01
 n8bf                                   7      0.0000       0.00000       A     3.26530e-01     5.01306e-01
 o9bf                                   8      0.0000       0.00000       A     3.04637e-01     6.12097e-01
 c10bf                                  6      0.0000       0.00000       A     3.31679e-01     4.10311e-01
 c11bf                                  6      0.0000       0.00000       A     3.31390e-01     4.12402e-01
 c12bf                                  6      0.0000       0.00000       A     3.31454e-01     4.13104e-01
 c13bf                                  6      0.0000       0.00000       A     3.31511e-01     4.13146e-01
 c14bf                                  6      0.0000       0.00000       A     3.31413e-01     4.11794e-01
 c15bf                                  6      0.0000       0.00000       A     3.31511e-01     4.13146e-01
 c16bf                                  6      0.0000       0.00000       A     3.31454e-01     4.13104e-01
 c17bf                                  6      0.0000       0.00000       A     3.39703e-01     4.51565e-01
 o18bf                                  8      0.0000       0.00000       A     3.24486e-01     3.89155e-01
 f19bf                                  9      0.0000       0.00000       A     3.03423e-01     3.48794e-01
 f20bf                                  9      0.0000       0.00000       A     3.03385e-01     3.47313e-01
 c21bf                                  6      0.0000       0.00000       A     3.39812e-01     4.51155e-01
 c22bf                                  6      0.0000       0.00000       A     3.39812e-01     4.51155e-01
 h23bf                                  1      0.0000       0.00000       A     2.62434e-01     6.75074e-02
 h24bf                                  1      0.0000       0.00000       A     2.62554e-01     6.72616e-02
 h25bf                                  1      0.0000       0.00000       A     1.10472e-01     4.18202e-02
 h26bf                                  1      0.0000       0.00000       A     2.62492e-01     6.72312e-02
 h27bf                                  1      0.0000       0.00000       A     2.62543e-01     6.73669e-02
 h28bf                                  1      0.0000       0.00000       A     2.62543e-01     6.73669e-02
 h29bf                                  1      0.0000       0.00000       A     2.62492e-01     6.72312e-02
 h30bf                                  1      0.0000       0.00000       A     5.37114e-02     1.97753e-02
 h31bf                                  1      0.0000       0.00000       A     2.60029e-01     8.77503e-02
 h32bf                                  1      0.0000       0.00000       A     2.60029e-01     8.77503e-02
 h33bf                                  1      0.0000       0.00000       A     2.60029e-01     8.77503e-02
 h34bf                                  1      0.0000       0.00000       A     2.60029e-01     8.77503e-02
 h35bf                                  1      0.0000       0.00000       A     2.60029e-01     8.77503e-02
 h36bf                                  1      0.0000       0.00000       A     2.60029e-01     8.77503e-02

[ moleculetype ]
;name             nrexcl
 5k                    3

[ atoms ]
;       nr            type      resi   res      atom      cgnr      charge          mass ; qtot
         1            c0bf         1   UNL        c0         1     0.20556       12.0110 ; qtot    0.206
         2            c1bf         1   UNL        c1         2     0.14694       12.0110 ; qtot    0.352
         3            c2bf         1   UNL        c2         3    -0.16166       12.0110 ; qtot    0.191
         4            c3bf         1   UNL        c3         4    -0.16282       12.0110 ; qtot    0.028
         5            n4bf         1   UNL        n4         5    -0.60878       14.0070 ; qtot   -0.581
         6            c5bf         1   UNL        c5         6     0.17413       12.0110 ; qtot   -0.407
         7            c6bf         1   UNL        c6         7    -0.09019       12.0110 ; qtot   -0.497
         8            c7bf         1   UNL        c7         8     0.57130       12.0110 ; qtot    0.074
         9            n8bf         1   UNL        n8         9    -0.42566       14.0070 ; qtot   -0.351
        10            o9bf         1   UNL        o9        10    -0.52382       15.9990 ; qtot   -0.875
        11           c10bf         1   UNL       c10        11     0.56567       12.0110 ; qtot   -0.309
        12           c11bf         1   UNL       c11        12    -0.15977       12.0110 ; qtot   -0.469
        13           c12bf         1   UNL       c12        13    -0.06622       12.0110 ; qtot   -0.535
        14           c13bf         1   UNL       c13        14    -0.10147       12.0110 ; qtot   -0.637
        15           c14bf         1   UNL       c14        15    -0.09419       12.0110 ; qtot   -0.731
        16           c15bf         1   UNL       c15        16    -0.10147       12.0110 ; qtot   -0.832
        17           c16bf         1   UNL       c16        17    -0.06622       12.0110 ; qtot   -0.899
        18           c17bf         1   UNL       c17        18     0.22590       12.0110 ; qtot   -0.673
        19           o18bf         1   UNL       o18        19    -0.66653       15.9990 ; qtot   -1.339
        20           f19bf         1   UNL       f19        20    -0.15051       18.9980 ; qtot   -1.490
        21           f20bf         1   UNL       f20        21    -0.16753       18.9980 ; qtot   -1.657
        22           c21bf         1   UNL       c21        22    -0.10406       12.0110 ; qtot   -1.761
        23           c22bf         1   UNL       c22        23    -0.10406       12.0110 ; qtot   -1.865
        24           h23bf         1   UNL       h23        24     0.15456        1.0080 ; qtot   -1.711
        25           h24bf         1   UNL       h24        25     0.16278        1.0080 ; qtot   -1.548
        26           h25bf         1   UNL       h25        26     0.33464        1.0080 ; qtot   -1.213
        27           h26bf         1   UNL       h26        27     0.12685        1.0080 ; qtot   -1.087
        28           h27bf         1   UNL       h27        28     0.12301        1.0080 ; qtot   -0.964
        29           h28bf         1   UNL       h28        29     0.12301        1.0080 ; qtot   -0.841
        30           h29bf         1   UNL       h29        30     0.12685        1.0080 ; qtot   -0.714
        31           h30bf         1   UNL       h30        31     0.44306        1.0080 ; qtot   -0.271
        32           h31bf         1   UNL       h31        32     0.04512        1.0080 ; qtot   -0.226
        33           h32bf         1   UNL       h32        33     0.04512        1.0080 ; qtot   -0.180
        34           h33bf         1   UNL       h33        34     0.04512        1.0080 ; qtot   -0.135
        35           h34bf         1   UNL       h34        35     0.04512        1.0080 ; qtot   -0.090
        36           h35bf         1   UNL       h35        36     0.04512        1.0080 ; qtot   -0.045
        37           h36bf         1   UNL       h36        37     0.04510        1.0080 ; qtot    0.000

[ bonds ]
;       ai        aj funct               r               k
         1         2     1        0.141516   257342.813965
         1         3     1        0.138015   338884.106592
         1        20     1        0.134510   310854.703027
         2         4     1        0.141588   266885.469922
         2         5     1        0.138040   262400.693848
         3         6     1        0.140396   288670.897021
         3        24     1        0.108391   328794.164844
         4         7     1        0.140396   296950.359863
         4         8     1        0.147042   199224.413428
         5        11     1        0.130068   422115.700488
         6         7     1        0.138116   323625.709277
         6        21     1        0.135309   296829.186279
         7        25     1        0.108362   329547.330811
         8         9     1        0.140079   211686.216357
         8        10     1        0.122716   614989.775391
         9        11     1        0.137808   256097.190381
         9        26     1        0.101480   412787.019971
        11        12     1        0.147962   204054.719360
        12        13     1        0.140471   289559.026611
        12        17     1        0.140471   289559.026611
        13        14     1        0.139386   326214.584814
        13        27     1        0.108506   321458.476953
        14        15     1        0.140255   285418.312012
        14        28     1        0.108556   319655.914551
        15        16     1        0.140255   285418.312012
        15        18     1        0.153061   167064.459033
        16        17     1        0.139386   326214.584814
        16        29     1        0.108556   319655.914551
        17        30     1        0.108506   321458.502490
        18        19     1        0.144382   176998.969165
        18        22     1        0.153644   175656.419482
        18        23     1        0.153644   175656.419482
        19        31     1        0.097079   466958.149512
        22        32     1        0.109340   302095.806494
        22        33     1        0.109340   302095.806494
        22        34     1        0.109340   302095.806494
        23        35     1        0.109340   302095.806494
        23        36     1        0.109340   302095.806494
        23        37     1        0.109340   302095.806494

[ angles ]
;       ai        aj        ak funct           theta             cth
         1         2         4     1      116.998856      597.928943
         1         2         5     1      119.256699      334.423450
         1         3         6     1      118.180176      726.949443
         1         3        24     1      120.853226      437.755692
         2         1         3     1      122.340820      639.348730
         2         1        20     1      118.626038      476.800624
         2         4         7     1      121.620316      706.739885
         2         4         8     1      118.537537      831.491154
         2         5        11     1      117.943092      314.437917
         3         1        20     1      118.845848      562.713716
         3         6         7     1      122.801292      604.334544
         3         6        21     1      117.518127      609.787100
         4         2         5     1      123.606468      729.868015
         4         7         6     1      117.939575      588.090134
         4         7        25     1      120.118553      419.798380
         4         8         9     1      112.884109      614.140922
         4         8        10     1      126.182739      459.112632
         5        11         9     1      122.630020      508.093159
         5        11        12     1      120.018456      392.911220
         6         3        24     1      120.872719      449.330100
         6         7        25     1      121.834068      425.412682
         7         4         8     1      119.677589      485.287052
         7         6        21     1      119.547897      496.812014
         8         9        11     1      125.008095      722.080537
         8         9        26     1      114.872902      510.195693
         9         8        10     1      120.697655      782.724149
         9        11        12     1      117.566299      651.938908
        11         9        26     1      120.287392      426.436337
        11        12        13     1      120.648026      548.419192
        11        12        17     1      120.648026      548.419192
        12        13        14     1      120.499977      679.153103
        12        13        27     1      119.853783      419.505789
        12        17        16     1      120.499977      679.153103
        12        17        30     1      119.853783      419.505789
        13        12        17     1      118.451012      558.728842
        13        14        15     1      120.933960      722.975294
        13        14        28     1      119.310745      430.952351
        14        13        27     1      119.619583      424.105278
        14        15        16     1      118.030006      644.246429
        14        15        18     1      120.914795      498.155808
        15        14        28     1      119.809998      401.303639
        15        16        17     1      120.933960      722.975294
        15        16        29     1      119.809998      401.303671
        15        18        19     1      108.993263      692.794836
        15        18        22     1      110.967125      628.055391
        15        18        23     1      110.967125      628.055391
        16        15        18     1      120.914795      498.155808
        16        17        30     1      119.619583      424.105214
        17        16        29     1      119.310730      430.952351
        18        19        31     1      107.614967      572.046955
        18        22        32     1      110.548935      458.224962
        18        22        33     1      110.548935      458.224962
        18        22        34     1      110.548935      458.224962
        18        23        35     1      110.548935      458.224962
        18        23        36     1      110.548935      458.224962
        18        23        37     1      110.548935      458.224962
        19        18        22     1      107.278610      609.475994
        19        18        23     1      107.278610      609.475994
        22        18        23     1      110.435745      551.993621
        32        22        33     1      108.447632      360.423356
        32        22        34     1      108.447632      360.423356
        33        22        34     1      108.447632      360.423356
        35        23        36     1      108.447632      360.423356
        35        23        37     1      108.447632      360.423356
        36        23        37     1      108.447632      360.423356

[ dihedrals ] ; propers for gromacs 4.5 or higher, use funct 9
;       ai        aj        ak        al funct           phase               k        pn
         1         2         4         7     9        0.000000       -0.068050         1
         1         2         4         7     9      180.000000       12.841169         2
         1         2         4         7     9        0.000000       -1.342913         3
         1         2         4         7     9      180.000000       -0.100268         4
         1         2         4         8     9        0.000000        0.451537         1
         1         2         4         8     9      180.000000       11.194029         2
         1         2         4         8     9        0.000000       -0.232623         3
         1         2         4         8     9      180.000000       -0.176488         4
         1         2         5        11     9        0.000000        1.370628         1
         1         2         5        11     9      180.000000        6.572996         2
         1         2         5        11     9        0.000000        1.128560         3
         1         2         5        11     9      180.000000       -0.314879         4
         1         3         6         7     9        0.000000       -0.080901         1
         1         3         6         7     9      180.000000       15.477959         2
         1         3         6         7     9        0.000000       -1.154677         3
         1         3         6         7     9      180.000000       -0.291169         4
         1         3         6        21     9        0.000000        0.266037         1
         1         3         6        21     9      180.000000       21.340951         2
         1         3         6        21     9        0.000000        0.509455         3
         1         3         6        21     9      180.000000       -0.728358         4
         2         1         3         6     9        0.000000       -0.191814         1
         2         1         3         6     9      180.000000       18.498326         2
         2         1         3         6     9        0.000000       -1.125692         3
         2         1         3         6     9      180.000000       -0.483757         4
         2         1         3        24     9        0.000000        0.318368         1
         2         1         3        24     9      180.000000       12.888935         2
         2         1         3        24     9        0.000000       -0.446930         3
         2         1         3        24     9      180.000000        0.173508         4
         2         4         7         6     9        0.000000       -0.176486         1
         2         4         7         6     9      180.000000       17.564115         2
         2         4         7         6     9        0.000000       -1.320364         3
         2         4         7         6     9      180.000000       -0.300191         4
         2         4         7        25     9        0.000000        0.198699         1
         2         4         7        25     9      180.000000       12.188015         2
         2         4         7        25     9        0.000000       -0.404744         3
         2         4         7        25     9      180.000000        0.064611         4
         2         4         8         9     9        0.000000        0.092060         1
         2         4         8         9     9      180.000000        4.263972         2
         2         4         8         9     9        0.000000        0.117532         3
         2         4         8         9     9      180.000000        0.063161         4
         2         4         8        10     9        0.000000       -0.572819         1
         2         4         8        10     9      180.000000        8.041957         2
         2         4         8        10     9        0.000000        0.130331         3
         2         4         8        10     9      180.000000       -0.474173         4
         2         5        11         9     9        0.000000       -0.221677         1
         2         5        11         9     9      180.000000       36.314388         2
         2         5        11         9     9        0.000000       -0.478930         3
         2         5        11         9     9      180.000000       -1.116168         4
         2         5        11        12     9        0.000000        0.573918         1
         2         5        11        12     9      180.000000       31.284846         2
         2         5        11        12     9        0.000000        1.341759         3
         2         5        11        12     9      180.000000       -1.418660         4
         3         1         2         4     9        0.000000       -0.155509         1
         3         1         2         4     9      180.000000       12.926970         2
         3         1         2         4     9        0.000000       -0.657216         3
         3         1         2         4     9      180.000000       -0.149085         4
         3         1         2         5     9        0.000000        0.249099         1
         3         1         2         5     9      180.000000       12.246127         2
         3         1         2         5     9        0.000000       -0.100682         3
         3         1         2         5     9      180.000000       -0.063551         4
         3         6         7         4     9        0.000000        0.014640         1
         3         6         7         4     9      180.000000       18.232995         2
         3         6         7         4     9        0.000000       -1.154104         3
         3         6         7         4     9      180.000000       -0.466027         4
         3         6         7        25     9        0.000000        0.108494         1
         3         6         7        25     9      180.000000       13.797086         2
         3         6         7        25     9        0.000000       -0.396524         3
         3         6         7        25     9      180.000000        0.129282         4
         4         2         1        20     9        0.000000        0.413115         1
         4         2         1        20     9      180.000000       18.432388         2
         4         2         1        20     9        0.000000        0.570681         3
         4         2         1        20     9      180.000000       -0.583435         4
         4         2         5        11     9        0.000000        0.169731         1
         4         2         5        11     9      180.000000        5.989577         2
         4         2         5        11     9        0.000000        0.898037         3
         4         2         5        11     9      180.000000       -0.230208         4
         4         7         6        21     9        0.000000        0.287424         1
         4         7         6        21     9      180.000000       23.166480         2
         4         7         6        21     9        0.000000        0.584852         3
         4         7         6        21     9      180.000000       -0.783474         4
         4         8         9        11     9        0.000000       -0.372629         1
         4         8         9        11     9      180.000000        3.156633         2
         4         8         9        11     9        0.000000        0.195160         3
         4         8         9        11     9      180.000000        0.103147         4
         4         8         9        26     9        0.000000       -0.869836         1
         4         8         9        26     9      180.000000        6.959391         2
         4         8         9        26     9        0.000000        0.072155         3
         4         8         9        26     9      180.000000       -0.064628         4
         5         2         1        20     9        0.000000       -0.378002         1
         5         2         1        20     9      180.000000       20.403739         2
         5         2         1        20     9        0.000000        0.531460         3
         5         2         1        20     9      180.000000       -1.205266         4
         5         2         4         7     9        0.000000        0.180453         1
         5         2         4         7     9      180.000000       13.642927         2
         5         2         4         7     9        0.000000       -0.103332         3
         5         2         4         7     9      180.000000       -0.159452         4
         5         2         4         8     9        0.000000        0.531794         1
         5         2         4         8     9      180.000000       12.532993         2
         5         2         4         8     9        0.000000        0.438956         3
         5         2         4         8     9      180.000000       -0.460909         4
         5        11         9         8     9        0.000000       -0.073413         1
         5        11         9         8     9      180.000000        7.441708         2
         5        11         9         8     9        0.000000        0.158792         3
         5        11         9         8     9      180.000000       -0.231811         4
         5        11         9        26     9        0.000000        1.722155         1
         5        11         9        26     9      180.000000        6.896207         2
         5        11         9        26     9        0.000000       -0.253035         3
         5        11         9        26     9      180.000000       -0.129323         4
         5        11        12        13     9        0.000000       -0.159245         1
         5        11        12        13     9      180.000000        3.744774         2
         5        11        12        13     9        0.000000       -0.099812         3
         5        11        12        13     9      180.000000       -0.054980         4
         5        11        12        17     9        0.000000       -0.159245         1
         5        11        12        17     9      180.000000        3.744774         2
         5        11        12        17     9        0.000000       -0.099812         3
         5        11        12        17     9      180.000000       -0.054980         4
         6         3         1        20     9        0.000000        0.429147         1
         6         3         1        20     9      180.000000       24.311611         2
         6         3         1        20     9        0.000000        0.510284         3
         6         3         1        20     9      180.000000       -0.773536         4
         6         7         4         8     9        0.000000        0.136320         1
         6         7         4         8     9      180.000000       14.241003         2
         6         7         4         8     9        0.000000       -0.271618         3
         6         7         4         8     9      180.000000       -0.263053         4
         7         4         8         9     9        0.000000       -0.130493         1
         7         4         8         9     9      180.000000        4.591644         2
         7         4         8         9     9        0.000000        0.284813         3
         7         4         8         9     9      180.000000        0.097161         4
         7         4         8        10     9        0.000000       -1.022891         1
         7         4         8        10     9      180.000000        6.387392         2
         7         4         8        10     9        0.000000       -0.069060         3
         7         4         8        10     9      180.000000       -0.065228         4
         7         6         3        24     9        0.000000        0.006922         1
         7         6         3        24     9      180.000000       12.064686         2
         7         6         3        24     9        0.000000       -0.488782         3
         7         6         3        24     9      180.000000        0.145209         4
         8         4         7        25     9        0.000000        0.022268         1
         8         4         7        25     9      180.000000       10.637904         2
         8         4         7        25     9        0.000000       -0.392591         3
         8         4         7        25     9      180.000000        0.076081         4
         8         9        11        12     9        0.000000        0.344350         1
         8         9        11        12     9      180.000000        7.696049         2
         8         9        11        12     9        0.000000        0.232616         3
         8         9        11        12     9      180.000000       -0.348448         4
         9        11        12        13     9        0.000000       -0.008496         1
         9        11        12        13     9      180.000000        3.869729         2
         9        11        12        13     9        0.000000        0.186503         3
         9        11        12        13     9      180.000000       -0.306207         4
         9        11        12        17     9        0.000000       -0.008496         1
         9        11        12        17     9      180.000000        3.869729         2
         9        11        12        17     9        0.000000        0.186503         3
         9        11        12        17     9      180.000000       -0.306207         4
        10         8         9        11     9        0.000000       -0.481963         1
        10         8         9        11     9      180.000000        9.453114         2
        10         8         9        11     9        0.000000       -0.292875         3
        10         8         9        11     9      180.000000       -0.413274         4
        10         8         9        26     9        0.000000        0.203648         1
        10         8         9        26     9      180.000000       10.140765         2
        10         8         9        26     9        0.000000       -0.579893         3
        10         8         9        26     9      180.000000        0.238454         4
        11        12        13        14     9        0.000000        0.039380         1
        11        12        13        14     9      180.000000       14.896317         2
        11        12        13        14     9        0.000000       -0.390720         3
        11        12        13        14     9      180.000000       -0.164008         4
        11        12        13        27     9        0.000000       -0.029240         1
        11        12        13        27     9      180.000000       12.336158         2
        11        12        13        27     9        0.000000       -0.354791         3
        11        12        13        27     9      180.000000        0.172211         4
        11        12        17        16     9        0.000000        0.039380         1
        11        12        17        16     9      180.000000       14.896317         2
        11        12        17        16     9        0.000000       -0.390720         3
        11        12        17        16     9      180.000000       -0.164008         4
        11        12        17        30     9        0.000000       -0.029240         1
        11        12        17        30     9      180.000000       12.336158         2
        11        12        17        30     9        0.000000       -0.354791         3
        11        12        17        30     9      180.000000        0.172210         4
        12        11         9        26     9        0.000000       -0.470033         1
        12        11         9        26     9      180.000000        6.378521         2
        12        11         9        26     9        0.000000       -0.143657         3
        12        11         9        26     9      180.000000       -0.143122         4
        12        13        14        15     9        0.000000       -0.029852         1
        12        13        14        15     9      180.000000       19.279119         2
        12        13        14        15     9        0.000000       -1.746203         3
        12        13        14        15     9      180.000000       -0.394485         4
        12        13        14        28     9        0.000000       -0.089815         1
        12        13        14        28     9      180.000000       15.139981         2
        12        13        14        28     9        0.000000       -0.484184         3
        12        13        14        28     9      180.000000        0.126791         4
        12        17        16        15     9        0.000000       -0.029852         1
        12        17        16        15     9      180.000000       19.279119         2
        12        17        16        15     9        0.000000       -1.746203         3
        12        17        16        15     9      180.000000       -0.394485         4
        12        17        16        29     9        0.000000       -0.089816         1
        12        17        16        29     9      180.000000       15.139981         2
        12        17        16        29     9        0.000000       -0.484184         3
        12        17        16        29     9      180.000000        0.126791         4
        13        12        17        16     9        0.000000       -0.120070         1
        13        12        17        16     9      180.000000       18.086734         2
        13        12        17        16     9        0.000000       -1.494844         3
        13        12        17        16     9      180.000000       -0.364611         4
        13        12        17        30     9        0.000000       -0.074437         1
        13        12        17        30     9      180.000000       13.866631         2
        13        12        17        30     9        0.000000       -0.616165         3
        13        12        17        30     9      180.000000        0.084716         4
        13        14        15        16     9        0.000000       -0.044566         1
        13        14        15        16     9      180.000000       18.663695         2
        13        14        15        16     9        0.000000       -1.272081         3
        13        14        15        16     9      180.000000       -0.423270         4
        13        14        15        18     9        0.000000        0.101251         1
        13        14        15        18     9      180.000000       14.310310         2
        13        14        15        18     9        0.000000       -0.089938         3
        13        14        15        18     9      180.000000       -0.134185         4
        14        13        12        17     9        0.000000       -0.120070         1
        14        13        12        17     9      180.000000       18.086734         2
        14        13        12        17     9        0.000000       -1.494844         3
        14        13        12        17     9      180.000000       -0.364611         4
        14        15        16        17     9        0.000000       -0.044566         1
        14        15        16        17     9      180.000000       18.663695         2
        14        15        16        17     9        0.000000       -1.272081         3
        14        15        16        17     9      180.000000       -0.423270         4
        14        15        16        29     9        0.000000       -0.032101         1
        14        15        16        29     9      180.000000       14.870907         2
        14        15        16        29     9        0.000000       -0.644491         3
        14        15        16        29     9      180.000000        0.032834         4
        14        15        18        19     9        0.000000        0.073774         1
        14        15        18        19     9      180.000000        0.989723         2
        14        15        18        19     9        0.000000        0.067884         3
        14        15        18        19     9      180.000000        0.132387         4
        14        15        18        22     9        0.000000        0.038083         1
        14        15        18        22     9      180.000000        0.245516         2
        14        15        18        22     9        0.000000        0.051921         3
        14        15        18        22     9      180.000000        0.164157         4
        14        15        18        23     9        0.000000        0.038083         1
        14        15        18        23     9      180.000000        0.245516         2
        14        15        18        23     9        0.000000        0.051921         3
        14        15        18        23     9      180.000000        0.164157         4
        15        14        13        27     9        0.000000        0.014394         1
        15        14        13        27     9      180.000000       15.258784         2
        15        14        13        27     9        0.000000       -0.668963         3
        15        14        13        27     9      180.000000        0.129899         4
        15        16        17        30     9        0.000000        0.014395         1
        15        16        17        30     9      180.000000       15.258780         2
        15        16        17        30     9        0.000000       -0.668963         3
        15        16        17        30     9      180.000000        0.129900         4
        15        18        19        31     9        0.000000        2.043549         1
        15        18        19        31     9      180.000000       -0.635021         2
        15        18        19        31     9        0.000000        0.964895         3
        15        18        19        31     9      180.000000        0.005137         4
        15        18        22        32     9        0.000000       -0.061558         1
        15        18        22        32     9      180.000000        0.025199         2
        15        18        22        32     9        0.000000        0.622302         3
        15        18        22        32     9      180.000000        0.008500         4
        15        18        22        33     9        0.000000       -0.061558         1
        15        18        22        33     9      180.000000        0.025199         2
        15        18        22        33     9        0.000000        0.622302         3
        15        18        22        33     9      180.000000        0.008500         4
        15        18        22        34     9        0.000000       -0.061558         1
        15        18        22        34     9      180.000000        0.025199         2
        15        18        22        34     9        0.000000        0.622302         3
        15        18        22        34     9      180.000000        0.008500         4
        15        18        23        35     9        0.000000       -0.061558         1
        15        18        23        35     9      180.000000        0.025199         2
        15        18        23        35     9        0.000000        0.622302         3
        15        18        23        35     9      180.000000        0.008500         4
        15        18        23        36     9        0.000000       -0.061558         1
        15        18        23        36     9      180.000000        0.025199         2
        15        18        23        36     9        0.000000        0.622302         3
        15        18        23        36     9      180.000000        0.008500         4
        15        18        23        37     9        0.000000       -0.061558         1
        15        18        23        37     9      180.000000        0.025199         2
        15        18        23        37     9        0.000000        0.622302         3
        15        18        23        37     9      180.000000        0.008500         4
        16        15        14        28     9        0.000000       -0.032102         1
        16        15        14        28     9      180.000000       14.870907         2
        16        15        14        28     9        0.000000       -0.644491         3
        16        15        14        28     9      180.000000        0.032834         4
        16        15        18        19     9        0.000000        0.073774         1
        16        15        18        19     9      180.000000        0.989723         2
        16        15        18        19     9        0.000000        0.067884         3
        16        15        18        19     9      180.000000        0.132387         4
        16        15        18        22     9        0.000000        0.038083         1
        16        15        18        22     9      180.000000        0.245516         2
        16        15        18        22     9        0.000000        0.051921         3
        16        15        18        22     9      180.000000        0.164157         4
        16        15        18        23     9        0.000000        0.038083         1
        16        15        18        23     9      180.000000        0.245516         2
        16        15        18        23     9        0.000000        0.051921         3
        16        15        18        23     9      180.000000        0.164157         4
        17        12        13        27     9        0.000000       -0.074437         1
        17        12        13        27     9      180.000000       13.866631         2
        17        12        13        27     9        0.000000       -0.616164         3
        17        12        13        27     9      180.000000        0.084716         4
        17        16        15        18     9        0.000000        0.101251         1
        17        16        15        18     9      180.000000       14.310310         2
        17        16        15        18     9        0.000000       -0.089938         3
        17        16        15        18     9      180.000000       -0.134185         4
        18        15        14        28     9        0.000000       -0.107353         1
        18        15        14        28     9      180.000000       12.665265         2
        18        15        14        28     9        0.000000       -0.279679         3
        18        15        14        28     9      180.000000        0.197103         4
        18        15        16        29     9        0.000000       -0.107353         1
        18        15        16        29     9      180.000000       12.665268         2
        18        15        16        29     9        0.000000       -0.279679         3
        18        15        16        29     9      180.000000        0.197103         4
        19        18        22        32     9        0.000000        0.066220         1
        19        18        22        32     9      180.000000       -0.005018         2
        19        18        22        32     9        0.000000        0.478904         3
        19        18        22        32     9      180.000000        0.036037         4
        19        18        22        33     9        0.000000        0.066220         1
        19        18        22        33     9      180.000000       -0.005018         2
        19        18        22        33     9        0.000000        0.478904         3
        19        18        22        33     9      180.000000        0.036037         4
        19        18        22        34     9        0.000000        0.066220         1
        19        18        22        34     9      180.000000       -0.005018         2
        19        18        22        34     9        0.000000        0.478904         3
        19        18        22        34     9      180.000000        0.036037         4
        19        18        23        35     9        0.000000        0.066220         1
        19        18        23        35     9      180.000000       -0.005018         2
        19        18        23        35     9        0.000000        0.478904         3
        19        18        23        35     9      180.000000        0.036037         4
        19        18        23        36     9        0.000000        0.066220         1
        19        18        23        36     9      180.000000       -0.005018         2
        19        18        23        36     9        0.000000        0.478904         3
        19        18        23        36     9      180.000000        0.036037         4
        19        18        23        37     9        0.000000        0.066220         1
        19        18        23        37     9      180.000000       -0.005018         2
        19        18        23        37     9        0.000000        0.478904         3
        19        18        23        37     9      180.000000        0.036037         4
        20         1         3        24     9        0.000000        0.326095         1
        20         1         3        24     9      180.000000       17.115573         2
        20         1         3        24     9        0.000000        0.227550         3
        20         1         3        24     9      180.000000        0.168735         4
        21         6         3        24     9        0.000000        0.320919         1
        21         6         3        24     9      180.000000       14.167951         2
        21         6         3        24     9        0.000000        0.188410         3
        21         6         3        24     9      180.000000        0.267270         4
        21         6         7        25     9        0.000000        0.233726         1
        21         6         7        25     9      180.000000       16.135295         2
        21         6         7        25     9        0.000000        0.302844         3
        21         6         7        25     9      180.000000        0.207604         4
        22        18        19        31     9        0.000000       -0.807150         1
        22        18        19        31     9      180.000000        0.393125         2
        22        18        19        31     9        0.000000        0.885734         3
        22        18        19        31     9      180.000000        0.022606         4
        22        18        23        35     9        0.000000       -0.100193         1
        22        18        23        35     9      180.000000        0.026286         2
        22        18        23        35     9        0.000000        0.529878         3
        22        18        23        35     9      180.000000        0.062463         4
        22        18        23        36     9        0.000000       -0.100193         1
        22        18        23        36     9      180.000000        0.026286         2
        22        18        23        36     9        0.000000        0.529878         3
        22        18        23        36     9      180.000000        0.062463         4
        22        18        23        37     9        0.000000       -0.100193         1
        22        18        23        37     9      180.000000        0.026286         2
        22        18        23        37     9        0.000000        0.529878         3
        22        18        23        37     9      180.000000        0.062463         4
        23        18        19        31     9        0.000000       -0.807150         1
        23        18        19        31     9      180.000000        0.393125         2
        23        18        19        31     9        0.000000        0.885734         3
        23        18        19        31     9      180.000000        0.022606         4
        23        18        22        32     9        0.000000       -0.100193         1
        23        18        22        32     9      180.000000        0.026286         2
        23        18        22        32     9        0.000000        0.529878         3
        23        18        22        32     9      180.000000        0.062463         4
        23        18        22        33     9        0.000000       -0.100193         1
        23        18        22        33     9      180.000000        0.026286         2
        23        18        22        33     9        0.000000        0.529878         3
        23        18        22        33     9      180.000000        0.062463         4
        23        18        22        34     9        0.000000       -0.100193         1
        23        18        22        34     9      180.000000        0.026286         2
        23        18        22        34     9        0.000000        0.529878         3
        23        18        22        34     9      180.000000        0.062463         4
        27        13        14        28     9        0.000000       -0.224986         1
        27        13        14        28     9      180.000000       12.329039         2
        27        13        14        28     9        0.000000       -0.815557         3
        27        13        14        28     9      180.000000        0.376642         4
        29        16        17        30     9        0.000000       -0.224987         1
        29        16        17        30     9      180.000000       12.329039         2
        29        16        17        30     9        0.000000       -0.815557         3
        29        16        17        30     9      180.000000        0.376642         4

[ dihedrals ] ; impropers
;       ai        aj        ak        al funct           phase               k        pn
         2         1         4         5     4      180.000000        8.044709         2
         2         4         5         1     4      180.000000        8.044709         2
         2         5         1         4     4      180.000000        8.044709         2
         6         3         7        21     4      180.000000        0.800442         2
         6         7        21         3     4      180.000000        0.800442         2
         6        21         3         7     4      180.000000        0.800442         2
         8         4         9        10     4      180.000000       27.893333         2
         8         9        10         4     4      180.000000       27.893333         2
         8        10         4         9     4      180.000000       27.893333         2
        11         5         9        12     4      180.000000        8.962291         2
        11         9        12         5     4      180.000000        8.962291         2
        11        12         5         9     4      180.000000        8.962291         2

[ pairs ]
;       ai        aj funct
         1         7     1
         1         8     1
         1        11     1
         1        21     1
         2         6     1
         2         9     1
         2        10     1
         2        12     1
         2        24     1
         2        25     1
         3         4     1
         3         5     1
         3        25     1
         4        11     1
         4        20     1
         4        21     1
         4        26     1
         5         7     1
         5         8     1
         5        13     1
         5        17     1
         5        20     1
         5        26     1
         6         8     1
         6        20     1
         7         9     1
         7        10     1
         7        24     1
         8        12     1
         8        25     1
         9        13     1
         9        17     1
        10        11     1
        10        26     1
        11        14     1
        11        16     1
        11        27     1
        11        30     1
        12        15     1
        12        26     1
        12        28     1
        12        29     1
        13        16     1
        13        18     1
        13        30     1
        14        17     1
        14        19     1
        14        22     1
        14        23     1
        14        29     1
        15        27     1
        15        30     1
        15        31     1
        15        32     1
        15        33     1
        15        34     1
        15        35     1
        15        36     1
        15        37     1
        16        19     1
        16        22     1
        16        23     1
        16        28     1
        17        18     1
        17        27     1
        18        28     1
        18        29     1
        19        32     1
        19        33     1
        19        34     1
        19        35     1
        19        36     1
        19        37     1
        20        24     1
        21        24     1
        21        25     1
        22        31     1
        22        35     1
        22        36     1
        22        37     1
        23        31     1
        23        32     1
        23        33     1
        23        34     1
        27        28     1
        29        30     1
