; ITP file created by ByteFF-ML, 2026-02-21 07:52:08.643470

[ atomtypes ]
;name           bonded.type        at.num        mass        charge   ptype           sigma         epsilon
 c0bf                                   6      0.0000       0.00000       A     3.31390e-01     4.12402e-01
 c1bf                                   6      0.0000       0.00000       A     3.31454e-01     4.13104e-01
 c2bf                                   6      0.0000       0.00000       A     3.31454e-01     4.13104e-01
 c3bf                                   6      0.0000       0.00000       A     3.31511e-01     4.13146e-01
 c4bf                                   6      0.0000       0.00000       A     3.31511e-01     4.13146e-01
 n5bf                                   7      0.0000       0.00000       A     3.38418e-01     3.91891e-01
 c6bf                                   6      0.0000       0.00000       A     3.31413e-01     4.11794e-01
 c7bf                                   6      0.0000       0.00000       A     3.39703e-01     4.51565e-01
 c8bf                                   6      0.0000       0.00000       A     3.31431e-01     4.12653e-01
 n9bf                                   7      0.0000       0.00000       A     3.26643e-01     5.00976e-01
 c10bf                                  6      0.0000       0.00000       A     3.31679e-01     4.10314e-01
 o11bf                                  8      0.0000       0.00000       A     3.04723e-01     6.12705e-01
 c12bf                                  6      0.0000       0.00000       A     3.39812e-01     4.51155e-01
 o13bf                                  8      0.0000       0.00000       A     3.24486e-01     3.89155e-01
 c14bf                                  6      0.0000       0.00000       A     3.39812e-01     4.51155e-01
 c15bf                                  6      0.0000       0.00000       A     3.31518e-01     4.10487e-01
 c16bf                                  6      0.0000       0.00000       A     3.31521e-01     4.14134e-01
 c17bf                                  6      0.0000       0.00000       A     3.31500e-01     4.13296e-01
 c18bf                                  6      0.0000       0.00000       A     3.31446e-01     4.13246e-01
 c19bf                                  6      0.0000       0.00000       A     3.31455e-01     4.12450e-01
 c20bf                                  6      0.0000       0.00000       A     3.31412e-01     4.13195e-01
 f21bf                                  9      0.0000       0.00000       A     3.03423e-01     3.48888e-01
 f22bf                                  9      0.0000       0.00000       A     3.03460e-01     3.47734e-01
 h23bf                                  1      0.0000       0.00000       A     2.62492e-01     6.72312e-02
 h24bf                                  1      0.0000       0.00000       A     2.62492e-01     6.72312e-02
 h25bf                                  1      0.0000       0.00000       A     2.62543e-01     6.73669e-02
 h26bf                                  1      0.0000       0.00000       A     2.62543e-01     6.73669e-02
 h27bf                                  1      0.0000       0.00000       A     1.10472e-01     4.18202e-02
 h28bf                                  1      0.0000       0.00000       A     2.60029e-01     8.77503e-02
 h29bf                                  1      0.0000       0.00000       A     2.60029e-01     8.77503e-02
 h30bf                                  1      0.0000       0.00000       A     2.60029e-01     8.77503e-02
 h31bf                                  1      0.0000       0.00000       A     5.37114e-02     1.97753e-02
 h32bf                                  1      0.0000       0.00000       A     2.60029e-01     8.77503e-02
 h33bf                                  1      0.0000       0.00000       A     2.60029e-01     8.77503e-02
 h34bf                                  1      0.0000       0.00000       A     2.60029e-01     8.77503e-02
 h35bf                                  1      0.0000       0.00000       A     2.62531e-01     6.72424e-02
 h36bf                                  1      0.0000       0.00000       A     2.62465e-01     6.73765e-02

[ moleculetype ]
;name             nrexcl
 5l                    3

[ atoms ]
;       nr            type      resi   res      atom      cgnr      charge          mass ; qtot
         1            c0bf         1   UNL        c0         1    -0.15977       12.0110 ; qtot   -0.160
         2            c1bf         1   UNL        c1         2    -0.06622       12.0110 ; qtot   -0.226
         3            c2bf         1   UNL        c2         3    -0.06622       12.0110 ; qtot   -0.292
         4            c3bf         1   UNL        c3         4    -0.10147       12.0110 ; qtot   -0.394
         5            c4bf         1   UNL        c4         5    -0.10147       12.0110 ; qtot   -0.495
         6            n5bf         1   UNL        n5         6    -0.61309       14.0070 ; qtot   -1.108
         7            c6bf         1   UNL        c6         7    -0.09419       12.0110 ; qtot   -1.202
         8            c7bf         1   UNL        c7         8     0.22590       12.0110 ; qtot   -0.977
         9            c8bf         1   UNL        c8         9     0.58794       12.0110 ; qtot   -0.389
        10            n9bf         1   UNL        n9        10    -0.42753       14.0070 ; qtot   -0.816
        11           c10bf         1   UNL       c10        11     0.57132       12.0110 ; qtot   -0.245
        12           o11bf         1   UNL       o11        12    -0.51412       15.9990 ; qtot   -0.759
        13           c12bf         1   UNL       c12        13    -0.10406       12.0110 ; qtot   -0.863
        14           o13bf         1   UNL       o13        14    -0.66653       15.9990 ; qtot   -1.530
        15           c14bf         1   UNL       c14        15    -0.10406       12.0110 ; qtot   -1.634
        16           c15bf         1   UNL       c15        16     0.19089       12.0110 ; qtot   -1.443
        17           c16bf         1   UNL       c16        17    -0.22888       12.0110 ; qtot   -1.672
        18           c17bf         1   UNL       c17        18     0.22670       12.0110 ; qtot   -1.445
        19           c18bf         1   UNL       c18        19    -0.15371       12.0110 ; qtot   -1.599
        20           c19bf         1   UNL       c19        20    -0.09533       12.0110 ; qtot   -1.694
        21           c20bf         1   UNL       c20        21     0.15667       12.0110 ; qtot   -1.537
        22           f21bf         1   UNL       f21        22    -0.15388       18.9980 ; qtot   -1.691
        23           f22bf         1   UNL       f22        23    -0.14348       18.9980 ; qtot   -1.835
        24           h23bf         1   UNL       h23        24     0.12685        1.0080 ; qtot   -1.708
        25           h24bf         1   UNL       h24        25     0.12685        1.0080 ; qtot   -1.581
        26           h25bf         1   UNL       h25        26     0.12301        1.0080 ; qtot   -1.458
        27           h26bf         1   UNL       h26        27     0.12301        1.0080 ; qtot   -1.335
        28           h27bf         1   UNL       h27        28     0.33435        1.0080 ; qtot   -1.001
        29           h28bf         1   UNL       h28        29     0.04512        1.0080 ; qtot   -0.955
        30           h29bf         1   UNL       h29        30     0.04512        1.0080 ; qtot   -0.910
        31           h30bf         1   UNL       h30        31     0.04512        1.0080 ; qtot   -0.865
        32           h31bf         1   UNL       h31        32     0.44306        1.0080 ; qtot   -0.422
        33           h32bf         1   UNL       h32        33     0.04512        1.0080 ; qtot   -0.377
        34           h33bf         1   UNL       h33        34     0.04512        1.0080 ; qtot   -0.332
        35           h34bf         1   UNL       h34        35     0.04512        1.0080 ; qtot   -0.287
        36           h35bf         1   UNL       h35        36     0.14402        1.0080 ; qtot   -0.143
        37           h36bf         1   UNL       h36        37     0.14272        1.0080 ; qtot    0.000

[ bonds ]
;       ai        aj funct               r               k
         1         2     1        0.140471   289559.026611
         1         3     1        0.140471   289559.026611
         1        11     1        0.147962   204054.719360
         2         4     1        0.139386   326214.559277
         2        24     1        0.108506   321458.476953
         3         5     1        0.139386   326214.559277
         3        25     1        0.108506   321458.476953
         4         7     1        0.140255   285418.312012
         4        26     1        0.108556   319655.940088
         5         7     1        0.140255   285418.312012
         5        27     1        0.108556   319655.940088
         6        11     1        0.130090   421147.588672
         6        16     1        0.138016   260339.108545
         7         8     1        0.153061   167064.459033
         8        13     1        0.153644   175656.419482
         8        14     1        0.144382   176998.994702
         8        15     1        0.153644   175656.419482
         9        10     1        0.140887   196688.987061
         9        12     1        0.122550   619856.893066
         9        17     1        0.147151   193119.001318
        10        11     1        0.137555   261517.160937
        10        28     1        0.101484   412659.819629
        13        29     1        0.109340   302095.832031
        13        30     1        0.109340   302095.832031
        13        31     1        0.109340   302095.832031
        14        32     1        0.097079   466958.200586
        15        33     1        0.109340   302095.832031
        15        34     1        0.109340   302095.832031
        15        35     1        0.109340   302095.832031
        16        17     1        0.142204   257419.936035
        16        21     1        0.141244   260759.985645
        17        18     1        0.140883   270332.571094
        18        19     1        0.138466   319317.318018
        18        23     1        0.134279   311781.214893
        19        20     1        0.140646   300871.225488
        19        36     1        0.108417   326980.800244
        20        21     1        0.137916   338879.331152
        20        37     1        0.108456   326190.375635
        21        22     1        0.134862   305125.222705

[ angles ]
;       ai        aj        ak funct           theta             cth
         1         2         4     1      120.499977      679.153040
         1         2        24     1      119.853783      419.505821
         1         3         5     1      120.499977      679.153040
         1         3        25     1      119.853783      419.505821
         1        11         6     1      120.002243      395.347141
         1        11        10     1      117.730492      652.236352
         2         1         3     1      118.451012      558.728778
         2         1        11     1      120.648026      548.419192
         2         4         7     1      120.933960      722.975294
         2         4        26     1      119.310730      430.952351
         3         1        11     1      120.648026      548.419192
         3         5         7     1      120.933960      722.975294
         3         5        27     1      119.310730      430.952351
         4         2        24     1      119.619583      424.105214
         4         7         5     1      118.030006      644.246492
         4         7         8     1      120.914795      498.155872
         5         3        25     1      119.619583      424.105214
         5         7         8     1      120.914795      498.155872
         6        11        10     1      122.533218      516.878340
         6        16        17     1      123.743004      716.487527
         6        16        21     1      118.378372      344.085639
         7         4        26     1      119.809998      401.303608
         7         5        27     1      119.809998      401.303608
         7         8        13     1      110.967117      628.055454
         7         8        14     1      108.993263      692.794836
         7         8        15     1      110.967117      628.055454
         8        13        29     1      110.548935      458.224962
         8        13        30     1      110.548935      458.224962
         8        13        31     1      110.548935      458.224962
         8        14        32     1      107.614967      572.047083
         8        15        33     1      110.548935      458.224962
         8        15        34     1      110.548935      458.224962
         8        15        35     1      110.548935      458.224962
         9        10        11     1      125.513412      694.045579
         9        10        28     1      114.208229      522.547419
         9        17        16     1      118.700645      921.167970
         9        17        18     1      122.583511      848.421300
        10         9        12     1      119.457176      785.231766
        10         9        17     1      112.569031      654.065000
        11         6        16     1      118.068710      312.104240
        11        10        28     1      120.315453      427.695157
        12         9        17     1      127.807861      486.692519
        13         8        14     1      107.278603      609.475994
        13         8        15     1      110.435745      551.993621
        14         8        15     1      107.278603      609.475994
        16        17        18     1      118.228615      796.835956
        16        21        20     1      121.999985      626.206440
        16        21        22     1      118.590103      470.969863
        17        16        21     1      117.949989      578.780900
        17        18        19     1      121.848915      560.461024
        17        18        23     1      120.383804      546.687073
        18        19        20     1      119.411331      690.760486
        18        19        36     1      119.416672      441.040850
        19        18        23     1      117.782410      534.100120
        19        20        21     1      119.761818      721.158392
        19        20        37     1      120.969017      434.477558
        20        19        36     1      121.080589      434.667139
        20        21        22     1      119.280968      552.788847
        21        20        37     1      119.312294      442.355085
        29        13        30     1      108.447632      360.423356
        29        13        31     1      108.447632      360.423356
        30        13        31     1      108.447632      360.423356
        33        15        34     1      108.447632      360.423356
        33        15        35     1      108.447632      360.423356
        34        15        35     1      108.447632      360.423388

[ dihedrals ] ; propers for gromacs 4.5 or higher, use funct 9
;       ai        aj        ak        al funct           phase               k        pn
         1         2         4         7     9        0.000000       -0.029852         1
         1         2         4         7     9      180.000000       19.279117         2
         1         2         4         7     9        0.000000       -1.746203         3
         1         2         4         7     9      180.000000       -0.394485         4
         1         2         4        26     9        0.000000       -0.089815         1
         1         2         4        26     9      180.000000       15.139979         2
         1         2         4        26     9        0.000000       -0.484184         3
         1         2         4        26     9      180.000000        0.126791         4
         1         3         5         7     9        0.000000       -0.029852         1
         1         3         5         7     9      180.000000       19.279117         2
         1         3         5         7     9        0.000000       -1.746203         3
         1         3         5         7     9      180.000000       -0.394485         4
         1         3         5        27     9        0.000000       -0.089815         1
         1         3         5        27     9      180.000000       15.139979         2
         1         3         5        27     9        0.000000       -0.484184         3
         1         3         5        27     9      180.000000        0.126791         4
         1        11         6        16     9        0.000000        0.721863         1
         1        11         6        16     9      180.000000       30.412565         2
         1        11         6        16     9        0.000000        1.367100         3
         1        11         6        16     9      180.000000       -1.408348         4
         1        11        10         9     9        0.000000        0.258216         1
         1        11        10         9     9      180.000000        7.878400         2
         1        11        10         9     9        0.000000        0.199922         3
         1        11        10         9     9      180.000000       -0.353584         4
         1        11        10        28     9        0.000000       -0.461590         1
         1        11        10        28     9      180.000000        6.468877         2
         1        11        10        28     9        0.000000       -0.134385         3
         1        11        10        28     9      180.000000       -0.144742         4
         2         1         3         5     9        0.000000       -0.120070         1
         2         1         3         5     9      180.000000       18.086736         2
         2         1         3         5     9        0.000000       -1.494844         3
         2         1         3         5     9      180.000000       -0.364611         4
         2         1         3        25     9        0.000000       -0.074437         1
         2         1         3        25     9      180.000000       13.866631         2
         2         1         3        25     9        0.000000       -0.616165         3
         2         1         3        25     9      180.000000        0.084717         4
         2         1        11         6     9        0.000000       -0.105462         1
         2         1        11         6     9      180.000000        3.782980         2
         2         1        11         6     9        0.000000       -0.090202         3
         2         1        11         6     9      180.000000       -0.049185         4
         2         1        11        10     9        0.000000       -0.004328         1
         2         1        11        10     9      180.000000        3.871374         2
         2         1        11        10     9        0.000000        0.196017         3
         2         1        11        10     9      180.000000       -0.323676         4
         2         4         7         5     9        0.000000       -0.044566         1
         2         4         7         5     9      180.000000       18.663695         2
         2         4         7         5     9        0.000000       -1.272080         3
         2         4         7         5     9      180.000000       -0.423270         4
         2         4         7         8     9        0.000000        0.101251         1
         2         4         7         8     9      180.000000       14.310312         2
         2         4         7         8     9        0.000000       -0.089937         3
         2         4         7         8     9      180.000000       -0.134185         4
         3         1         2         4     9        0.000000       -0.120070         1
         3         1         2         4     9      180.000000       18.086736         2
         3         1         2         4     9        0.000000       -1.494844         3
         3         1         2         4     9      180.000000       -0.364611         4
         3         1         2        24     9        0.000000       -0.074437         1
         3         1         2        24     9      180.000000       13.866631         2
         3         1         2        24     9        0.000000       -0.616165         3
         3         1         2        24     9      180.000000        0.084717         4
         3         1        11         6     9        0.000000       -0.105462         1
         3         1        11         6     9      180.000000        3.782980         2
         3         1        11         6     9        0.000000       -0.090202         3
         3         1        11         6     9      180.000000       -0.049185         4
         3         1        11        10     9        0.000000       -0.004328         1
         3         1        11        10     9      180.000000        3.871374         2
         3         1        11        10     9        0.000000        0.196017         3
         3         1        11        10     9      180.000000       -0.323676         4
         3         5         7         4     9        0.000000       -0.044566         1
         3         5         7         4     9      180.000000       18.663695         2
         3         5         7         4     9        0.000000       -1.272080         3
         3         5         7         4     9      180.000000       -0.423270         4
         3         5         7         8     9        0.000000        0.101251         1
         3         5         7         8     9      180.000000       14.310312         2
         3         5         7         8     9        0.000000       -0.089937         3
         3         5         7         8     9      180.000000       -0.134185         4
         4         2         1        11     9        0.000000        0.039380         1
         4         2         1        11     9      180.000000       14.896315         2
         4         2         1        11     9        0.000000       -0.390720         3
         4         2         1        11     9      180.000000       -0.164008         4
         4         7         5        27     9        0.000000       -0.032101         1
         4         7         5        27     9      180.000000       14.870907         2
         4         7         5        27     9        0.000000       -0.644491         3
         4         7         5        27     9      180.000000        0.032834         4
         4         7         8        13     9        0.000000        0.038082         1
         4         7         8        13     9      180.000000        0.245517         2
         4         7         8        13     9        0.000000        0.051921         3
         4         7         8        13     9      180.000000        0.164156         4
         4         7         8        14     9        0.000000        0.073774         1
         4         7         8        14     9      180.000000        0.989723         2
         4         7         8        14     9        0.000000        0.067884         3
         4         7         8        14     9      180.000000        0.132387         4
         4         7         8        15     9        0.000000        0.038082         1
         4         7         8        15     9      180.000000        0.245517         2
         4         7         8        15     9        0.000000        0.051921         3
         4         7         8        15     9      180.000000        0.164156         4
         5         3         1        11     9        0.000000        0.039380         1
         5         3         1        11     9      180.000000       14.896315         2
         5         3         1        11     9        0.000000       -0.390720         3
         5         3         1        11     9      180.000000       -0.164008         4
         5         7         4        26     9        0.000000       -0.032101         1
         5         7         4        26     9      180.000000       14.870907         2
         5         7         4        26     9        0.000000       -0.644491         3
         5         7         4        26     9      180.000000        0.032834         4
         5         7         8        13     9        0.000000        0.038082         1
         5         7         8        13     9      180.000000        0.245517         2
         5         7         8        13     9        0.000000        0.051921         3
         5         7         8        13     9      180.000000        0.164156         4
         5         7         8        14     9        0.000000        0.073774         1
         5         7         8        14     9      180.000000        0.989723         2
         5         7         8        14     9        0.000000        0.067884         3
         5         7         8        14     9      180.000000        0.132387         4
         5         7         8        15     9        0.000000        0.038082         1
         5         7         8        15     9      180.000000        0.245517         2
         5         7         8        15     9        0.000000        0.051921         3
         5         7         8        15     9      180.000000        0.164156         4
         6        11        10         9     9        0.000000       -0.205992         1
         6        11        10         9     9      180.000000        7.632793         2
         6        11        10         9     9        0.000000        0.182622         3
         6        11        10         9     9      180.000000       -0.231752         4
         6        11        10        28     9        0.000000        1.792613         1
         6        11        10        28     9      180.000000        7.041366         2
         6        11        10        28     9        0.000000       -0.265962         3
         6        11        10        28     9      180.000000       -0.126028         4
         6        16        17         9     9        0.000000        0.966032         1
         6        16        17         9     9      180.000000       10.686025         2
         6        16        17         9     9        0.000000        0.594915         3
         6        16        17         9     9      180.000000       -0.269462         4
         6        16        17        18     9        0.000000        0.399570         1
         6        16        17        18     9      180.000000       12.286898         2
         6        16        17        18     9        0.000000        0.146493         3
         6        16        17        18     9      180.000000       -0.205072         4
         6        16        21        20     9        0.000000        0.482685         1
         6        16        21        20     9      180.000000       12.462713         2
         6        16        21        20     9        0.000000        0.025787         3
         6        16        21        20     9      180.000000       -0.188197         4
         6        16        21        22     9        0.000000       -0.364540         1
         6        16        21        22     9      180.000000       21.238049         2
         6        16        21        22     9        0.000000        0.651971         3
         6        16        21        22     9      180.000000       -1.325117         4
         7         4         2        24     9        0.000000        0.014394         1
         7         4         2        24     9      180.000000       15.258782         2
         7         4         2        24     9        0.000000       -0.668963         3
         7         4         2        24     9      180.000000        0.129899         4
         7         5         3        25     9        0.000000        0.014394         1
         7         5         3        25     9      180.000000       15.258782         2
         7         5         3        25     9        0.000000       -0.668963         3
         7         5         3        25     9      180.000000        0.129899         4
         7         8        13        29     9        0.000000       -0.061558         1
         7         8        13        29     9      180.000000        0.025199         2
         7         8        13        29     9        0.000000        0.622302         3
         7         8        13        29     9      180.000000        0.008501         4
         7         8        13        30     9        0.000000       -0.061558         1
         7         8        13        30     9      180.000000        0.025199         2
         7         8        13        30     9        0.000000        0.622302         3
         7         8        13        30     9      180.000000        0.008501         4
         7         8        13        31     9        0.000000       -0.061558         1
         7         8        13        31     9      180.000000        0.025199         2
         7         8        13        31     9        0.000000        0.622302         3
         7         8        13        31     9      180.000000        0.008501         4
         7         8        14        32     9        0.000000        2.043548         1
         7         8        14        32     9      180.000000       -0.635020         2
         7         8        14        32     9        0.000000        0.964895         3
         7         8        14        32     9      180.000000        0.005137         4
         7         8        15        33     9        0.000000       -0.061558         1
         7         8        15        33     9      180.000000        0.025199         2
         7         8        15        33     9        0.000000        0.622302         3
         7         8        15        33     9      180.000000        0.008501         4
         7         8        15        34     9        0.000000       -0.061558         1
         7         8        15        34     9      180.000000        0.025199         2
         7         8        15        34     9        0.000000        0.622302         3
         7         8        15        34     9      180.000000        0.008501         4
         7         8        15        35     9        0.000000       -0.061558         1
         7         8        15        35     9      180.000000        0.025199         2
         7         8        15        35     9        0.000000        0.622302         3
         7         8        15        35     9      180.000000        0.008501         4
         8         7         4        26     9        0.000000       -0.107354         1
         8         7         4        26     9      180.000000       12.665269         2
         8         7         4        26     9        0.000000       -0.279679         3
         8         7         4        26     9      180.000000        0.197103         4
         8         7         5        27     9        0.000000       -0.107354         1
         8         7         5        27     9      180.000000       12.665269         2
         8         7         5        27     9        0.000000       -0.279679         3
         8         7         5        27     9      180.000000        0.197103         4
         9        17        16        21     9        0.000000        0.643482         1
         9        17        16        21     9      180.000000        9.531045         2
         9        17        16        21     9        0.000000        0.001638         3
         9        17        16        21     9      180.000000       -0.122482         4
         9        17        18        19     9        0.000000        0.019548         1
         9        17        18        19     9      180.000000        9.866430         2
         9        17        18        19     9        0.000000       -0.190759         3
         9        17        18        19     9      180.000000       -0.058982         4
         9        17        18        23     9        0.000000        0.472097         1
         9        17        18        23     9      180.000000       13.302109         2
         9        17        18        23     9        0.000000        0.629177         3
         9        17        18        23     9      180.000000       -0.288887         4
        10         9        17        16     9        0.000000        0.491428         1
        10         9        17        16     9      180.000000        2.161745         2
        10         9        17        16     9        0.000000        0.155537         3
        10         9        17        16     9      180.000000        0.032639         4
        10         9        17        18     9        0.000000       -0.654040         1
        10         9        17        18     9      180.000000        2.641868         2
        10         9        17        18     9        0.000000        0.198623         3
        10         9        17        18     9      180.000000       -0.006475         4
        10        11         6        16     9        0.000000       -0.142902         1
        10        11         6        16     9      180.000000       35.328676         2
        10        11         6        16     9        0.000000       -0.381756         3
        10        11         6        16     9      180.000000       -1.085836         4
        11         1         2        24     9        0.000000       -0.029241         1
        11         1         2        24     9      180.000000       12.336158         2
        11         1         2        24     9        0.000000       -0.354791         3
        11         1         2        24     9      180.000000        0.172211         4
        11         1         3        25     9        0.000000       -0.029241         1
        11         1         3        25     9      180.000000       12.336158         2
        11         1         3        25     9        0.000000       -0.354791         3
        11         1         3        25     9      180.000000        0.172211         4
        11         6        16        17     9        0.000000        0.433770         1
        11         6        16        17     9      180.000000        6.745954         2
        11         6        16        17     9        0.000000        0.952602         3
        11         6        16        17     9      180.000000       -0.245326         4
        11         6        16        21     9        0.000000        1.030961         1
        11         6        16        21     9      180.000000        6.995291         2
        11         6        16        21     9        0.000000        1.097222         3
        11         6        16        21     9      180.000000       -0.334268         4
        11        10         9        12     9        0.000000        0.034742         1
        11        10         9        12     9      180.000000        9.141445         2
        11        10         9        12     9        0.000000       -0.339690         3
        11        10         9        12     9      180.000000       -0.396622         4
        11        10         9        17     9        0.000000       -0.442769         1
        11        10         9        17     9      180.000000        2.045475         2
        11        10         9        17     9        0.000000        0.141604         3
        11        10         9        17     9      180.000000        0.158335         4
        12         9        10        28     9        0.000000        0.256280         1
        12         9        10        28     9      180.000000       10.253606         2
        12         9        10        28     9        0.000000       -0.683221         3
        12         9        10        28     9      180.000000        0.214127         4
        12         9        17        16     9        0.000000       -0.271953         1
        12         9        17        16     9      180.000000        6.837335         2
        12         9        17        16     9        0.000000        0.112889         3
        12         9        17        16     9      180.000000       -0.482643         4
        12         9        17        18     9        0.000000       -1.552849         1
        12         9        17        18     9      180.000000        5.534234         2
        12         9        17        18     9        0.000000       -0.223858         3
        12         9        17        18     9      180.000000       -0.321797         4
        13         8        14        32     9        0.000000       -0.807151         1
        13         8        14        32     9      180.000000        0.393124         2
        13         8        14        32     9        0.000000        0.885734         3
        13         8        14        32     9      180.000000        0.022606         4
        13         8        15        33     9        0.000000       -0.100194         1
        13         8        15        33     9      180.000000        0.026286         2
        13         8        15        33     9        0.000000        0.529878         3
        13         8        15        33     9      180.000000        0.062463         4
        13         8        15        34     9        0.000000       -0.100194         1
        13         8        15        34     9      180.000000        0.026286         2
        13         8        15        34     9        0.000000        0.529878         3
        13         8        15        34     9      180.000000        0.062463         4
        13         8        15        35     9        0.000000       -0.100194         1
        13         8        15        35     9      180.000000        0.026286         2
        13         8        15        35     9        0.000000        0.529878         3
        13         8        15        35     9      180.000000        0.062463         4
        14         8        13        29     9        0.000000        0.066220         1
        14         8        13        29     9      180.000000       -0.005019         2
        14         8        13        29     9        0.000000        0.478904         3
        14         8        13        29     9      180.000000        0.036037         4
        14         8        13        30     9        0.000000        0.066220         1
        14         8        13        30     9      180.000000       -0.005019         2
        14         8        13        30     9        0.000000        0.478904         3
        14         8        13        30     9      180.000000        0.036037         4
        14         8        13        31     9        0.000000        0.066220         1
        14         8        13        31     9      180.000000       -0.005019         2
        14         8        13        31     9        0.000000        0.478904         3
        14         8        13        31     9      180.000000        0.036037         4
        14         8        15        33     9        0.000000        0.066220         1
        14         8        15        33     9      180.000000       -0.005019         2
        14         8        15        33     9        0.000000        0.478904         3
        14         8        15        33     9      180.000000        0.036037         4
        14         8        15        34     9        0.000000        0.066220         1
        14         8        15        34     9      180.000000       -0.005019         2
        14         8        15        34     9        0.000000        0.478904         3
        14         8        15        34     9      180.000000        0.036037         4
        14         8        15        35     9        0.000000        0.066220         1
        14         8        15        35     9      180.000000       -0.005019         2
        14         8        15        35     9        0.000000        0.478904         3
        14         8        15        35     9      180.000000        0.036037         4
        15         8        13        29     9        0.000000       -0.100194         1
        15         8        13        29     9      180.000000        0.026286         2
        15         8        13        29     9        0.000000        0.529878         3
        15         8        13        29     9      180.000000        0.062463         4
        15         8        13        30     9        0.000000       -0.100194         1
        15         8        13        30     9      180.000000        0.026286         2
        15         8        13        30     9        0.000000        0.529878         3
        15         8        13        30     9      180.000000        0.062463         4
        15         8        13        31     9        0.000000       -0.100194         1
        15         8        13        31     9      180.000000        0.026286         2
        15         8        13        31     9        0.000000        0.529878         3
        15         8        13        31     9      180.000000        0.062463         4
        15         8        14        32     9        0.000000       -0.807151         1
        15         8        14        32     9      180.000000        0.393124         2
        15         8        14        32     9        0.000000        0.885734         3
        15         8        14        32     9      180.000000        0.022606         4
        16        17        18        19     9        0.000000       -0.029430         1
        16        17        18        19     9      180.000000       13.503545         2
        16        17        18        19     9        0.000000       -1.014004         3
        16        17        18        19     9      180.000000       -0.176561         4
        16        17        18        23     9        0.000000        0.794308         1
        16        17        18        23     9      180.000000       18.139214         2
        16        17        18        23     9        0.000000        0.768530         3
        16        17        18        23     9      180.000000       -0.587697         4
        16        21        20        19     9        0.000000        0.069677         1
        16        21        20        19     9      180.000000       18.358205         2
        16        21        20        19     9        0.000000       -1.160547         3
        16        21        20        19     9      180.000000       -0.408477         4
        16        21        20        37     9        0.000000        0.206819         1
        16        21        20        37     9      180.000000       13.033584         2
        16        21        20        37     9        0.000000       -0.395034         3
        16        21        20        37     9      180.000000        0.106565         4
        17         9        10        28     9        0.000000       -1.026930         1
        17         9        10        28     9      180.000000        6.736303         2
        17         9        10        28     9        0.000000        0.011955         3
        17         9        10        28     9      180.000000       -0.224835         4
        17        16        21        20     9        0.000000       -0.150180         1
        17        16        21        20     9      180.000000       12.725526         2
        17        16        21        20     9        0.000000       -0.730838         3
        17        16        21        20     9      180.000000       -0.255225         4
        17        16        21        22     9        0.000000        0.405286         1
        17        16        21        22     9      180.000000       18.825448         2
        17        16        21        22     9        0.000000        0.473041         3
        17        16        21        22     9      180.000000       -0.631971         4
        17        18        19        20     9        0.000000       -0.094530         1
        17        18        19        20     9      180.000000       18.202419         2
        17        18        19        20     9        0.000000       -1.382783         3
        17        18        19        20     9      180.000000       -0.453216         4
        17        18        19        36     9        0.000000       -0.210243         1
        17        18        19        36     9      180.000000       13.462648         2
        17        18        19        36     9        0.000000       -0.600145         3
        17        18        19        36     9      180.000000        0.087965         4
        18        17        16        21     9        0.000000       -0.060297         1
        18        17        16        21     9      180.000000       11.967264         2
        18        17        16        21     9        0.000000       -0.877406         3
        18        17        16        21     9      180.000000       -0.127296         4
        18        19        20        21     9        0.000000       -0.190035         1
        18        19        20        21     9      180.000000       16.868470         2
        18        19        20        21     9        0.000000       -1.577361         3
        18        19        20        21     9      180.000000       -0.385700         4
        18        19        20        37     9        0.000000        0.109587         1
        18        19        20        37     9      180.000000       13.273338         2
        18        19        20        37     9        0.000000       -0.523224         3
        18        19        20        37     9      180.000000        0.134327         4
        19        20        21        22     9        0.000000        0.382780         1
        19        20        21        22     9      180.000000       24.809198         2
        19        20        21        22     9        0.000000        0.676458         3
        19        20        21        22     9      180.000000       -0.849437         4
        20        19        18        23     9        0.000000        0.403893         1
        20        19        18        23     9      180.000000       24.538934         2
        20        19        18        23     9        0.000000        0.543727         3
        20        19        18        23     9      180.000000       -0.718880         4
        21        20        19        36     9        0.000000        0.168793         1
        21        20        19        36     9      180.000000       13.416891         2
        21        20        19        36     9        0.000000       -0.504900         3
        21        20        19        36     9      180.000000        0.126589         4
        22        21        20        37     9        0.000000        0.292890         1
        22        21        20        37     9      180.000000       17.388834         2
        22        21        20        37     9        0.000000        0.238548         3
        22        21        20        37     9      180.000000        0.074680         4
        23        18        19        36     9        0.000000        0.276742         1
        23        18        19        36     9      180.000000       17.725138         2
        23        18        19        36     9        0.000000        0.320270         3
        23        18        19        36     9      180.000000        0.002832         4
        24         2         4        26     9        0.000000       -0.224987         1
        24         2         4        26     9      180.000000       12.329039         2
        24         2         4        26     9        0.000000       -0.815557         3
        24         2         4        26     9      180.000000        0.376643         4
        25         3         5        27     9        0.000000       -0.224987         1
        25         3         5        27     9      180.000000       12.329039         2
        25         3         5        27     9        0.000000       -0.815557         3
        25         3         5        27     9      180.000000        0.376643         4
        36        19        20        37     9        0.000000       -0.113025         1
        36        19        20        37     9      180.000000       11.318995         2
        36        19        20        37     9        0.000000       -0.691803         3
        36        19        20        37     9      180.000000        0.115887         4

[ dihedrals ] ; impropers
;       ai        aj        ak        al funct           phase               k        pn
         9        10        12        17     4      180.000000       27.893333         2
         9        12        17        10     4      180.000000       27.893333         2
         9        17        10        12     4      180.000000       27.893333         2
        11         1         6        10     4      180.000000        9.589806         2
        11         6        10         1     4      180.000000        9.589806         2
        11        10         1         6     4      180.000000        9.589806         2
        16         6        17        21     4      180.000000       12.463208         2
        16        17        21         6     4      180.000000       12.463208         2
        16        21         6        17     4      180.000000       12.463208         2

[ pairs ]
;       ai        aj funct
         1         7     1
         1         9     1
         1        16     1
         1        26     1
         1        27     1
         1        28     1
         2         5     1
         2         6     1
         2         8     1
         2        10     1
         2        25     1
         3         4     1
         3         6     1
         3         8     1
         3        10     1
         3        24     1
         4        11     1
         4        13     1
         4        14     1
         4        15     1
         4        27     1
         5        11     1
         5        13     1
         5        14     1
         5        15     1
         5        26     1
         6         9     1
         6        18     1
         6        20     1
         6        22     1
         6        28     1
         7        24     1
         7        25     1
         7        29     1
         7        30     1
         7        31     1
         7        32     1
         7        33     1
         7        34     1
         7        35     1
         8        26     1
         8        27     1
         9        19     1
         9        21     1
         9        23     1
        10        16     1
        10        18     1
        11        12     1
        11        17     1
        11        21     1
        11        24     1
        11        25     1
        12        16     1
        12        18     1
        12        28     1
        13        32     1
        13        33     1
        13        34     1
        13        35     1
        14        29     1
        14        30     1
        14        31     1
        14        33     1
        14        34     1
        14        35     1
        15        29     1
        15        30     1
        15        31     1
        15        32     1
        16        19     1
        16        23     1
        16        37     1
        17        20     1
        17        22     1
        17        28     1
        17        36     1
        18        21     1
        18        37     1
        19        22     1
        20        23     1
        21        36     1
        22        37     1
        23        36     1
        24        26     1
        25        27     1
        36        37     1
