; ITP file created by ByteFF-ML, 2026-02-21 07:51:11.040528

[ atomtypes ]
;name           bonded.type        at.num        mass        charge   ptype           sigma         epsilon
 c0bf                                   6      0.0000       0.00000       A     3.31390e-01     4.12402e-01
 c1bf                                   6      0.0000       0.00000       A     3.31454e-01     4.13104e-01
 c2bf                                   6      0.0000       0.00000       A     3.31454e-01     4.13104e-01
 c3bf                                   6      0.0000       0.00000       A     3.31505e-01     4.12734e-01
 c4bf                                   6      0.0000       0.00000       A     3.31505e-01     4.12734e-01
 n5bf                                   7      0.0000       0.00000       A     3.38308e-01     3.91379e-01
 c6bf                                   6      0.0000       0.00000       A     3.31509e-01     4.12064e-01
 c7bf                                   6      0.0000       0.00000       A     3.39834e-01     4.48444e-01
 c8bf                                   6      0.0000       0.00000       A     3.31576e-01     4.10891e-01
 c9bf                                   6      0.0000       0.00000       A     3.31456e-01     4.13894e-01
 c10bf                                  6      0.0000       0.00000       A     3.31534e-01     4.13573e-01
 c11bf                                  6      0.0000       0.00000       A     3.31513e-01     4.11807e-01
 c12bf                                  6      0.0000       0.00000       A     3.31406e-01     4.12413e-01
 c13bf                                  6      0.0000       0.00000       A     3.31578e-01     4.12068e-01
 c14bf                                  6      0.0000       0.00000       A     3.31420e-01     4.13088e-01
 n15bf                                  7      0.0000       0.00000       A     3.26530e-01     5.01306e-01
 c16bf                                  6      0.0000       0.00000       A     3.31630e-01     4.10739e-01
 o17bf                                  8      0.0000       0.00000       A     3.04637e-01     6.12097e-01
 c18bf                                  6      0.0000       0.00000       A     3.39858e-01     4.50987e-01
 o19bf                                  8      0.0000       0.00000       A     3.15832e-01     3.05251e-01
 c20bf                                  6      0.0000       0.00000       A     3.39858e-01     4.50987e-01
 c21bf                                  6      0.0000       0.00000       A     3.39811e-01     4.51787e-01
 f22bf                                  9      0.0000       0.00000       A     3.03353e-01     3.47341e-01
 c23bf                                  6      0.0000       0.00000       A     3.39719e-01     4.50914e-01
 c24bf                                  6      0.0000       0.00000       A     3.39708e-01     4.53127e-01
 o25bf                                  8      0.0000       0.00000       A     3.24365e-01     3.87920e-01
 h26bf                                  1      0.0000       0.00000       A     2.62492e-01     6.72312e-02
 h27bf                                  1      0.0000       0.00000       A     2.62492e-01     6.72312e-02
 h28bf                                  1      0.0000       0.00000       A     2.62543e-01     6.73669e-02
 h29bf                                  1      0.0000       0.00000       A     2.62543e-01     6.73669e-02
 h30bf                                  1      0.0000       0.00000       A     2.62463e-01     6.75281e-02
 h31bf                                  1      0.0000       0.00000       A     2.62554e-01     6.72616e-02
 h32bf                                  1      0.0000       0.00000       A     1.10472e-01     4.18202e-02
 h33bf                                  1      0.0000       0.00000       A     2.60040e-01     8.76577e-02
 h34bf                                  1      0.0000       0.00000       A     2.60040e-01     8.76577e-02
 h35bf                                  1      0.0000       0.00000       A     2.60040e-01     8.76577e-02
 h36bf                                  1      0.0000       0.00000       A     2.60040e-01     8.76577e-02
 h37bf                                  1      0.0000       0.00000       A     2.60040e-01     8.76577e-02
 h38bf                                  1      0.0000       0.00000       A     2.60040e-01     8.76577e-02
 h39bf                                  1      0.0000       0.00000       A     2.59974e-01     8.74439e-02
 h40bf                                  1      0.0000       0.00000       A     2.59974e-01     8.74439e-02
 h41bf                                  1      0.0000       0.00000       A     2.59974e-01     8.74439e-02
 h42bf                                  1      0.0000       0.00000       A     2.42023e-01     8.69076e-02
 h43bf                                  1      0.0000       0.00000       A     2.42023e-01     8.69076e-02
 h44bf                                  1      0.0000       0.00000       A     2.42041e-01     8.70496e-02
 h45bf                                  1      0.0000       0.00000       A     2.42041e-01     8.70496e-02
 h46bf                                  1      0.0000       0.00000       A     5.36295e-02     2.02238e-02

[ moleculetype ]
;name             nrexcl
 5o_adjust             3

[ atoms ]
;       nr            type      resi   res      atom      cgnr      charge          mass ; qtot
         1            c0bf         1   UNL        c0         1    -0.15625       12.0110 ; qtot   -0.156
         2            c1bf         1   UNL        c1         2    -0.06685       12.0110 ; qtot   -0.223
         3            c2bf         1   UNL        c2         3    -0.06685       12.0110 ; qtot   -0.290
         4            c3bf         1   UNL        c3         4    -0.10032       12.0110 ; qtot   -0.390
         5            c4bf         1   UNL        c4         5    -0.10032       12.0110 ; qtot   -0.491
         6            n5bf         1   UNL        n5         6    -0.62372       14.0070 ; qtot   -1.114
         7            c6bf         1   UNL        c6         7    -0.08572       12.0110 ; qtot   -1.200
         8            c7bf         1   UNL        c7         8     0.22500       12.0110 ; qtot   -0.975
         9            c8bf         1   UNL        c8         9     0.17422       12.0110 ; qtot   -0.801
        10            c9bf         1   UNL        c9        10    -0.18007       12.0110 ; qtot   -0.981
        11           c10bf         1   UNL       c10        11     0.14957       12.0110 ; qtot   -0.831
        12           c11bf         1   UNL       c11        12    -0.12310       12.0110 ; qtot   -0.954
        13           c12bf         1   UNL       c12        13    -0.07960       12.0110 ; qtot   -1.034
        14           c13bf         1   UNL       c13        14    -0.03332       12.0110 ; qtot   -1.067
        15           c14bf         1   UNL       c14        15     0.57190       12.0110 ; qtot   -0.495
        16           n15bf         1   UNL       n15        16    -0.42497       14.0070 ; qtot   -0.920
        17           c16bf         1   UNL       c16        17     0.55844       12.0110 ; qtot   -0.362
        18           o17bf         1   UNL       o17        18    -0.53399       15.9990 ; qtot   -0.896
        19           c18bf         1   UNL       c18        19    -0.10457       12.0110 ; qtot   -1.001
        20           o19bf         1   UNL       o19        20    -0.46991       15.9990 ; qtot   -1.470
        21           c20bf         1   UNL       c20        21    -0.10457       12.0110 ; qtot   -1.575
        22           c21bf         1   UNL       c21        22    -0.04118       12.0110 ; qtot   -1.616
        23           f22bf         1   UNL       f22        23    -0.17458       18.9980 ; qtot   -1.791
        24           c23bf         1   UNL       c23        24     0.13393       12.0110 ; qtot   -1.657
        25           c24bf         1   UNL       c24        25     0.13838       12.0110 ; qtot   -1.518
        26           o25bf         1   UNL       o25        26    -0.67125       15.9990 ; qtot   -2.190
        27           h26bf         1   UNL       h26        27     0.12685        1.0080 ; qtot   -2.063
        28           h27bf         1   UNL       h27        28     0.12685        1.0080 ; qtot   -1.936
        29           h28bf         1   UNL       h28        29     0.12333        1.0080 ; qtot   -1.813
        30           h29bf         1   UNL       h29        30     0.12333        1.0080 ; qtot   -1.689
        31           h30bf         1   UNL       h30        31     0.13515        1.0080 ; qtot   -1.554
        32           h31bf         1   UNL       h31        32     0.15826        1.0080 ; qtot   -1.396
        33           h32bf         1   UNL       h32        33     0.33464        1.0080 ; qtot   -1.061
        34           h33bf         1   UNL       h33        34     0.04596        1.0080 ; qtot   -1.015
        35           h34bf         1   UNL       h34        35     0.04596        1.0080 ; qtot   -0.969
        36           h35bf         1   UNL       h35        36     0.04596        1.0080 ; qtot   -0.923
        37           h36bf         1   UNL       h36        37     0.04596        1.0080 ; qtot   -0.877
        38           h37bf         1   UNL       h37        38     0.04596        1.0080 ; qtot   -0.831
        39           h38bf         1   UNL       h38        39     0.04596        1.0080 ; qtot   -0.786
        40           h39bf         1   UNL       h39        40     0.05113        1.0080 ; qtot   -0.734
        41           h40bf         1   UNL       h40        41     0.05113        1.0080 ; qtot   -0.683
        42           h41bf         1   UNL       h41        42     0.05113        1.0080 ; qtot   -0.632
        43           h42bf         1   UNL       h42        43     0.04361        1.0080 ; qtot   -0.589
        44           h43bf         1   UNL       h43        44     0.04361        1.0080 ; qtot   -0.545
        45           h44bf         1   UNL       h44        45     0.04538        1.0080 ; qtot   -0.500
        46           h45bf         1   UNL       h45        46     0.04538        1.0080 ; qtot   -0.454
        47           h46bf         1   UNL       h46        47     0.45416        1.0080 ; qtot    0.000

[ bonds ]
;       ai        aj funct               r               k
         1         2     1        0.140471   289559.026611
         1         3     1        0.140471   289559.026611
         1        17     1        0.148027   204114.476196
         2         4     1        0.139379   325984.316699
         2        27     1        0.108506   321458.476953
         3         5     1        0.139379   325984.316699
         3        28     1        0.108506   321458.476953
         4         7     1        0.140232   285635.990332
         4        29     1        0.108539   320132.028418
         5         7     1        0.140232   285635.990332
         5        30     1        0.108539   320132.028418
         6         9     1        0.138766   250342.121875
         6        17     1        0.129930   427087.035107
         7         8     1        0.153209   165969.031958
         8        19     1        0.153807   172777.544531
         8        20     1        0.144617   157178.494946
         8        21     1        0.153807   172777.544531
         9        10     1        0.141523   265643.651367
         9        14     1        0.142400   251259.363770
        10        13     1        0.140469   295577.101807
        10        15     1        0.146868   199614.824756
        11        12     1        0.140455   283775.994971
        11        13     1        0.137896   328254.565723
        11        23     1        0.135662   289307.639307
        12        14     1        0.138955   322790.594727
        12        31     1        0.108579   320833.864795
        13        32     1        0.108397   328107.114453
        14        22     1        0.150669   205954.169556
        15        16     1        0.140082   211226.867603
        15        18     1        0.122889   608180.100879
        16        17     1        0.137831   256540.029395
        16        33     1        0.101480   412787.019971
        19        34     1        0.109295   303129.727441
        19        35     1        0.109295   303129.727441
        19        36     1        0.109295   303129.727441
        20        24     1        0.142457   201865.129297
        21        37     1        0.109295   303129.727441
        21        38     1        0.109295   303129.727441
        21        39     1        0.109295   303129.727441
        22        40     1        0.109339   303349.755176
        22        41     1        0.109339   303349.755176
        22        42     1        0.109339   303349.755176
        24        25     1        0.152572   190121.800171
        24        43     1        0.109787   287101.181982
        24        44     1        0.109787   287101.181982
        25        26     1        0.142817   213636.370483
        25        45     1        0.109638   291724.394727
        25        46     1        0.109638   291724.394727
        26        47     1        0.097070   468199.355176

[ angles ]
;       ai        aj        ak funct           theta             cth
         1         2         4     1      120.493568      681.043424
         1         2        27     1      119.853783      419.505789
         1         3         5     1      120.493568      681.043424
         1         3        28     1      119.853783      419.505789
         1        17         6     1      120.108299      390.931519
         1        17        16     1      117.498795      652.027075
         2         1         3     1      118.451012      558.728778
         2         1        17     1      120.680870      547.433012
         2         4         7     1      120.949051      721.708845
         2         4        29     1      119.367332      428.505194
         3         1        17     1      120.680870      547.433012
         3         5         7     1      120.949051      721.708845
         3         5        30     1      119.367332      428.505194
         4         2        27     1      119.603310      423.201743
         4         7         5     1      118.033859      665.806963
         4         7         8     1      120.930641      490.795566
         5         3        28     1      119.603310      423.201743
         5         7         8     1      120.930641      490.795566
         6         9        10     1      122.659409      746.727040
         6         9        14     1      118.051041      395.548533
         6        17        16     1      122.567589      512.025331
         7         4        29     1      119.760498      399.134390
         7         5        30     1      119.760498      399.134390
         7         8        19     1      110.680870      641.810188
         7         8        20     1      108.395531      585.772449
         7         8        21     1      110.680870      641.810188
         8        19        34     1      110.571609      469.434540
         8        19        35     1      110.571609      469.434540
         8        19        36     1      110.571609      469.434540
         8        20        24     1      117.930771      554.559909
         8        21        37     1      110.571609      469.434477
         8        21        38     1      110.571609      469.434477
         8        21        39     1      110.571609      469.434477
         9         6        17     1      118.567406      322.805342
         9        10        13     1      121.304031      710.765236
         9        10        15     1      119.225082      836.650608
         9        14        12     1      118.612259      696.937274
         9        14        22     1      120.008347      501.239669
        10         9        14     1      119.601418      645.224053
        10        13        11     1      117.690453      583.925414
        10        13        32     1      120.059837      418.959167
        10        15        16     1      112.882851      619.923481
        10        15        18     1      126.330887      458.186306
        11        12        14     1      120.463646      686.304899
        11        12        31     1      118.624718      465.995649
        11        13        32     1      122.023987      423.541993
        12        11        13     1      122.589989      614.567328
        12        11        23     1      117.822205      606.188794
        12        14        22     1      121.412941      506.813750
        13        10        15     1      119.241966      485.848422
        13        11        23     1      119.504929      499.057747
        14        12        31     1      120.741135      404.912576
        14        22        40     1      110.842308      479.543756
        14        22        41     1      110.842308      479.543756
        14        22        42     1      110.842308      479.543756
        15        16        17     1      124.837524      719.933186
        15        16        33     1      114.894203      511.192247
        16        15        18     1      120.519005      784.616513
        17        16        33     1      120.364792      426.611777
        19         8        20     1      108.510880      592.265770
        19         8        21     1      109.902748      563.064788
        20         8        21     1      108.510880      592.265770
        20        24        25     1      109.518127      595.635839
        20        24        43     1      110.003769      460.287084
        20        24        44     1      110.003761      460.287084
        24        25        26     1      110.940140      626.316633
        24        25        45     1      109.571617      489.136357
        24        25        46     1      109.571617      489.136357
        25        24        43     1      109.517921      480.645012
        25        24        44     1      109.517921      480.645012
        25        26        47     1      107.836868      589.753876
        26        25        45     1      109.459793      482.279866
        26        25        46     1      109.459793      482.279866
        34        19        35     1      108.410538      359.572044
        34        19        36     1      108.410538      359.572044
        35        19        36     1      108.410538      359.572044
        37        21        38     1      108.410538      359.572044
        37        21        39     1      108.410538      359.572044
        38        21        39     1      108.410538      359.572044
        40        22        41     1      108.098267      351.402947
        40        22        42     1      108.098267      351.402947
        41        22        42     1      108.098267      351.402947
        43        24        44     1      108.009048      342.022432
        45        25        46     1      108.109474      340.735873

[ dihedrals ] ; propers for gromacs 4.5 or higher, use funct 9
;       ai        aj        ak        al funct           phase               k        pn
         1         2         4         7     9        0.000000       -0.028650         1
         1         2         4         7     9      180.000000       19.184973         2
         1         2         4         7     9        0.000000       -1.670863         3
         1         2         4         7     9      180.000000       -0.397243         4
         1         2         4        29     9        0.000000       -0.090759         1
         1         2         4        29     9      180.000000       15.094996         2
         1         2         4        29     9        0.000000       -0.464483         3
         1         2         4        29     9      180.000000        0.135564         4
         1         3         5         7     9        0.000000       -0.028650         1
         1         3         5         7     9      180.000000       19.184973         2
         1         3         5         7     9        0.000000       -1.670863         3
         1         3         5         7     9      180.000000       -0.397243         4
         1         3         5        30     9        0.000000       -0.090759         1
         1         3         5        30     9      180.000000       15.094996         2
         1         3         5        30     9        0.000000       -0.464483         3
         1         3         5        30     9      180.000000        0.135564         4
         1        17         6         9     9        0.000000        0.580282         1
         1        17         6         9     9      180.000000       30.870359         2
         1        17         6         9     9        0.000000        1.368976         3
         1        17         6         9     9      180.000000       -1.335922         4
         1        17        16        15     9        0.000000        0.271054         1
         1        17        16        15     9      180.000000        7.712904         2
         1        17        16        15     9        0.000000        0.223135         3
         1        17        16        15     9      180.000000       -0.375252         4
         1        17        16        33     9        0.000000       -0.515979         1
         1        17        16        33     9      180.000000        6.259581         2
         1        17        16        33     9        0.000000       -0.150258         3
         1        17        16        33     9      180.000000       -0.138245         4
         2         1         3         5     9        0.000000       -0.124179         1
         2         1         3         5     9      180.000000       18.085704         2
         2         1         3         5     9        0.000000       -1.498503         3
         2         1         3         5     9      180.000000       -0.354613         4
         2         1         3        28     9        0.000000       -0.074436         1
         2         1         3        28     9      180.000000       13.866631         2
         2         1         3        28     9        0.000000       -0.616165         3
         2         1         3        28     9      180.000000        0.084716         4
         2         1        17         6     9        0.000000       -0.095646         1
         2         1        17         6     9      180.000000        3.726283         2
         2         1        17         6     9        0.000000       -0.079551         3
         2         1        17         6     9      180.000000       -0.042771         4
         2         1        17        16     9        0.000000        0.029110         1
         2         1        17        16     9      180.000000        3.826332         2
         2         1        17        16     9        0.000000        0.172497         3
         2         1        17        16     9      180.000000       -0.298181         4
         2         4         7         5     9        0.000000       -0.030511         1
         2         4         7         5     9      180.000000       18.569387         2
         2         4         7         5     9        0.000000       -1.210072         3
         2         4         7         5     9      180.000000       -0.430404         4
         2         4         7         8     9        0.000000        0.021901         1
         2         4         7         8     9      180.000000       14.217580         2
         2         4         7         8     9        0.000000       -0.108174         3
         2         4         7         8     9      180.000000       -0.174099         4
         3         1         2         4     9        0.000000       -0.124179         1
         3         1         2         4     9      180.000000       18.085704         2
         3         1         2         4     9        0.000000       -1.498503         3
         3         1         2         4     9      180.000000       -0.354613         4
         3         1         2        27     9        0.000000       -0.074436         1
         3         1         2        27     9      180.000000       13.866631         2
         3         1         2        27     9        0.000000       -0.616165         3
         3         1         2        27     9      180.000000        0.084716         4
         3         1        17         6     9        0.000000       -0.095646         1
         3         1        17         6     9      180.000000        3.726283         2
         3         1        17         6     9        0.000000       -0.079551         3
         3         1        17         6     9      180.000000       -0.042771         4
         3         1        17        16     9        0.000000        0.029110         1
         3         1        17        16     9      180.000000        3.826332         2
         3         1        17        16     9        0.000000        0.172497         3
         3         1        17        16     9      180.000000       -0.298181         4
         3         5         7         4     9        0.000000       -0.030511         1
         3         5         7         4     9      180.000000       18.569387         2
         3         5         7         4     9        0.000000       -1.210072         3
         3         5         7         4     9      180.000000       -0.430404         4
         3         5         7         8     9        0.000000        0.021901         1
         3         5         7         8     9      180.000000       14.217580         2
         3         5         7         8     9        0.000000       -0.108174         3
         3         5         7         8     9      180.000000       -0.174099         4
         4         2         1        17     9        0.000000        0.029150         1
         4         2         1        17     9      180.000000       14.909062         2
         4         2         1        17     9        0.000000       -0.373129         3
         4         2         1        17     9      180.000000       -0.176868         4
         4         7         5        30     9        0.000000       -0.018664         1
         4         7         5        30     9      180.000000       14.626824         2
         4         7         5        30     9        0.000000       -0.629016         3
         4         7         5        30     9      180.000000        0.050646         4
         4         7         8        19     9        0.000000        0.018692         1
         4         7         8        19     9      180.000000        0.380764         2
         4         7         8        19     9        0.000000        0.150271         3
         4         7         8        19     9      180.000000        0.162205         4
         4         7         8        20     9        0.000000       -0.154555         1
         4         7         8        20     9      180.000000        0.942271         2
         4         7         8        20     9        0.000000        0.084344         3
         4         7         8        20     9      180.000000        0.003341         4
         4         7         8        21     9        0.000000        0.018692         1
         4         7         8        21     9      180.000000        0.380764         2
         4         7         8        21     9        0.000000        0.150271         3
         4         7         8        21     9      180.000000        0.162205         4
         5         3         1        17     9        0.000000        0.029150         1
         5         3         1        17     9      180.000000       14.909062         2
         5         3         1        17     9        0.000000       -0.373129         3
         5         3         1        17     9      180.000000       -0.176868         4
         5         7         4        29     9        0.000000       -0.018664         1
         5         7         4        29     9      180.000000       14.626824         2
         5         7         4        29     9        0.000000       -0.629016         3
         5         7         4        29     9      180.000000        0.050646         4
         5         7         8        19     9        0.000000        0.018692         1
         5         7         8        19     9      180.000000        0.380764         2
         5         7         8        19     9        0.000000        0.150271         3
         5         7         8        19     9      180.000000        0.162205         4
         5         7         8        20     9        0.000000       -0.154555         1
         5         7         8        20     9      180.000000        0.942271         2
         5         7         8        20     9        0.000000        0.084344         3
         5         7         8        20     9      180.000000        0.003341         4
         5         7         8        21     9        0.000000        0.018692         1
         5         7         8        21     9      180.000000        0.380764         2
         5         7         8        21     9        0.000000        0.150271         3
         5         7         8        21     9      180.000000        0.162205         4
         6         9        10        13     9        0.000000        0.076212         1
         6         9        10        13     9      180.000000       14.213792         2
         6         9        10        13     9        0.000000       -0.092438         3
         6         9        10        13     9      180.000000       -0.243572         4
         6         9        10        15     9        0.000000        0.541798         1
         6         9        10        15     9      180.000000       12.666707         2
         6         9        10        15     9        0.000000        0.532490         3
         6         9        10        15     9      180.000000       -0.543829         4
         6         9        14        12     9        0.000000        0.257156         1
         6         9        14        12     9      180.000000       15.479648         2
         6         9        14        12     9        0.000000        0.077962         3
         6         9        14        12     9      180.000000       -0.330047         4
         6         9        14        22     9        0.000000       -0.219271         1
         6         9        14        22     9      180.000000       16.463250         2
         6         9        14        22     9        0.000000       -0.223945         3
         6         9        14        22     9      180.000000       -0.570248         4
         6        17        16        15     9        0.000000       -0.290369         1
         6        17        16        15     9      180.000000        7.317199         2
         6        17        16        15     9        0.000000        0.158564         3
         6        17        16        15     9      180.000000       -0.232558         4
         6        17        16        33     9        0.000000        1.563214         1
         6        17        16        33     9      180.000000        6.825651         2
         6        17        16        33     9        0.000000       -0.238310         3
         6        17        16        33     9      180.000000       -0.161067         4
         7         4         2        27     9        0.000000       -0.001890         1
         7         4         2        27     9      180.000000       15.084688         2
         7         4         2        27     9        0.000000       -0.623161         3
         7         4         2        27     9      180.000000        0.134583         4
         7         5         3        28     9        0.000000       -0.001890         1
         7         5         3        28     9      180.000000       15.084688         2
         7         5         3        28     9        0.000000       -0.623161         3
         7         5         3        28     9      180.000000        0.134583         4
         7         8        19        34     9        0.000000        0.003397         1
         7         8        19        34     9      180.000000       -0.035423         2
         7         8        19        34     9        0.000000        0.601291         3
         7         8        19        34     9      180.000000       -0.007507         4
         7         8        19        35     9        0.000000        0.003397         1
         7         8        19        35     9      180.000000       -0.035423         2
         7         8        19        35     9        0.000000        0.601291         3
         7         8        19        35     9      180.000000       -0.007507         4
         7         8        19        36     9        0.000000        0.003397         1
         7         8        19        36     9      180.000000       -0.035423         2
         7         8        19        36     9        0.000000        0.601291         3
         7         8        19        36     9      180.000000       -0.007507         4
         7         8        20        24     9        0.000000        0.881495         1
         7         8        20        24     9      180.000000       -0.719415         2
         7         8        20        24     9        0.000000        1.336019         3
         7         8        20        24     9      180.000000        0.030651         4
         7         8        21        37     9        0.000000        0.003397         1
         7         8        21        37     9      180.000000       -0.035422         2
         7         8        21        37     9        0.000000        0.601291         3
         7         8        21        37     9      180.000000       -0.007508         4
         7         8        21        38     9        0.000000        0.003397         1
         7         8        21        38     9      180.000000       -0.035422         2
         7         8        21        38     9        0.000000        0.601291         3
         7         8        21        38     9      180.000000       -0.007508         4
         7         8        21        39     9        0.000000        0.003397         1
         7         8        21        39     9      180.000000       -0.035422         2
         7         8        21        39     9        0.000000        0.601291         3
         7         8        21        39     9      180.000000       -0.007508         4
         8         7         4        29     9        0.000000       -0.193521         1
         8         7         4        29     9      180.000000       12.718799         2
         8         7         4        29     9        0.000000       -0.326810         3
         8         7         4        29     9      180.000000        0.160843         4
         8         7         5        30     9        0.000000       -0.193521         1
         8         7         5        30     9      180.000000       12.718799         2
         8         7         5        30     9        0.000000       -0.326810         3
         8         7         5        30     9      180.000000        0.160843         4
         8        20        24        25     9        0.000000       -0.284105         1
         8        20        24        25     9      180.000000       -0.169641         2
         8        20        24        25     9        0.000000        0.567735         3
         8        20        24        25     9      180.000000       -0.036737         4
         8        20        24        43     9        0.000000       -0.032859         1
         8        20        24        43     9      180.000000        0.100065         2
         8        20        24        43     9        0.000000        0.933243         3
         8        20        24        43     9      180.000000        0.044280         4
         8        20        24        44     9        0.000000       -0.032859         1
         8        20        24        44     9      180.000000        0.100065         2
         8        20        24        44     9        0.000000        0.933243         3
         8        20        24        44     9      180.000000        0.044280         4
         9         6        17        16     9        0.000000       -0.275633         1
         9         6        17        16     9      180.000000       36.620937         2
         9         6        17        16     9        0.000000       -0.530597         3
         9         6        17        16     9      180.000000       -1.184037         4
         9        10        13        11     9        0.000000       -0.198428         1
         9        10        13        11     9      180.000000       17.396090         2
         9        10        13        11     9        0.000000       -1.349213         3
         9        10        13        11     9      180.000000       -0.232696         4
         9        10        13        32     9        0.000000        0.159608         1
         9        10        13        32     9      180.000000       12.211649         2
         9        10        13        32     9        0.000000       -0.328026         3
         9        10        13        32     9      180.000000        0.021727         4
         9        10        15        16     9        0.000000        0.282830         1
         9        10        15        16     9      180.000000        3.983357         2
         9        10        15        16     9        0.000000        0.210100         3
         9        10        15        16     9      180.000000        0.116655         4
         9        10        15        18     9        0.000000       -0.154319         1
         9        10        15        18     9      180.000000        8.103704         2
         9        10        15        18     9        0.000000        0.138176         3
         9        10        15        18     9      180.000000       -0.448163         4
         9        14        12        11     9        0.000000       -0.183657         1
         9        14        12        11     9      180.000000       20.253088         2
         9        14        12        11     9        0.000000       -1.284737         3
         9        14        12        11     9      180.000000       -0.449747         4
         9        14        12        31     9        0.000000        0.077719         1
         9        14        12        31     9      180.000000       14.916813         2
         9        14        12        31     9        0.000000       -0.240777         3
         9        14        12        31     9      180.000000        0.044680         4
         9        14        22        40     9        0.000000       -0.012304         1
         9        14        22        40     9      180.000000        0.000739         2
         9        14        22        40     9        0.000000       -0.001704         3
         9        14        22        40     9      180.000000        0.023093         4
         9        14        22        41     9        0.000000       -0.012304         1
         9        14        22        41     9      180.000000        0.000739         2
         9        14        22        41     9        0.000000       -0.001704         3
         9        14        22        41     9      180.000000        0.023093         4
         9        14        22        42     9        0.000000       -0.012304         1
         9        14        22        42     9      180.000000        0.000739         2
         9        14        22        42     9        0.000000       -0.001704         3
         9        14        22        42     9      180.000000        0.023093         4
        10         9         6        17     9        0.000000        0.608845         1
        10         9         6        17     9      180.000000        6.226914         2
        10         9         6        17     9        0.000000        1.012000         3
        10         9         6        17     9      180.000000       -0.250324         4
        10         9        14        12     9        0.000000       -0.119814         1
        10         9        14        12     9      180.000000       15.053470         2
        10         9        14        12     9        0.000000       -0.867706         3
        10         9        14        12     9      180.000000       -0.269144         4
        10         9        14        22     9        0.000000        0.044887         1
        10         9        14        22     9      180.000000       12.592032         2
        10         9        14        22     9        0.000000       -0.109701         3
        10         9        14        22     9      180.000000       -0.203574         4
        10        13        11        12     9        0.000000        0.058873         1
        10        13        11        12     9      180.000000       17.968229         2
        10        13        11        12     9        0.000000       -1.075192         3
        10        13        11        12     9      180.000000       -0.433536         4
        10        13        11        23     9        0.000000        0.293617         1
        10        13        11        23     9      180.000000       23.035835         2
        10        13        11        23     9        0.000000        0.586953         3
        10        13        11        23     9      180.000000       -0.761398         4
        10        15        16        17     9        0.000000       -0.470912         1
        10        15        16        17     9      180.000000        3.666274         2
        10        15        16        17     9        0.000000        0.182133         3
        10        15        16        17     9      180.000000        0.076630         4
        10        15        16        33     9        0.000000       -0.745424         1
        10        15        16        33     9      180.000000        6.950669         2
        10        15        16        33     9        0.000000        0.081100         3
        10        15        16        33     9      180.000000       -0.115089         4
        11        12        14        22     9        0.000000        0.047067         1
        11        12        14        22     9      180.000000       18.382701         2
        11        12        14        22     9        0.000000       -0.270378         3
        11        12        14        22     9      180.000000       -0.333557         4
        11        13        10        15     9        0.000000        0.091717         1
        11        13        10        15     9      180.000000       14.453080         2
        11        13        10        15     9        0.000000       -0.331864         3
        11        13        10        15     9      180.000000       -0.254442         4
        12        11        13        32     9        0.000000        0.148730         1
        12        11        13        32     9      180.000000       13.498402         2
        12        11        13        32     9        0.000000       -0.376940         3
        12        11        13        32     9      180.000000        0.124250         4
        12        14        22        40     9        0.000000        0.003013         1
        12        14        22        40     9      180.000000       -0.007529         2
        12        14        22        40     9        0.000000       -0.068262         3
        12        14        22        40     9      180.000000        0.002522         4
        12        14        22        41     9        0.000000        0.003013         1
        12        14        22        41     9      180.000000       -0.007529         2
        12        14        22        41     9        0.000000       -0.068262         3
        12        14        22        41     9      180.000000        0.002522         4
        12        14        22        42     9        0.000000        0.003013         1
        12        14        22        42     9      180.000000       -0.007529         2
        12        14        22        42     9        0.000000       -0.068262         3
        12        14        22        42     9      180.000000        0.002522         4
        13        10         9        14     9        0.000000       -0.139239         1
        13        10         9        14     9      180.000000       13.261822         2
        13        10         9        14     9        0.000000       -1.030088         3
        13        10         9        14     9      180.000000       -0.179965         4
        13        10        15        16     9        0.000000       -0.226540         1
        13        10        15        16     9      180.000000        4.511827         2
        13        10        15        16     9        0.000000        0.332702         3
        13        10        15        16     9      180.000000        0.109252         4
        13        10        15        18     9        0.000000       -0.970514         1
        13        10        15        18     9      180.000000        6.751229         2
        13        10        15        18     9        0.000000       -0.035888         3
        13        10        15        18     9      180.000000       -0.071924         4
        13        11        12        14     9        0.000000        0.021484         1
        13        11        12        14     9      180.000000       15.443104         2
        13        11        12        14     9        0.000000       -1.279060         3
        13        11        12        14     9      180.000000       -0.275361         4
        13        11        12        31     9        0.000000       -0.030921         1
        13        11        12        31     9      180.000000       12.226307         2
        13        11        12        31     9        0.000000       -0.505235         3
        13        11        12        31     9      180.000000        0.123363         4
        14         9         6        17     9        0.000000        0.080189         1
        14         9         6        17     9      180.000000        6.534664         2
        14         9         6        17     9        0.000000        1.115294         3
        14         9         6        17     9      180.000000       -0.150684         4
        14         9        10        15     9        0.000000        0.300504         1
        14         9        10        15     9      180.000000       11.476323         2
        14         9        10        15     9        0.000000       -0.292222         3
        14         9        10        15     9      180.000000       -0.278775         4
        14        12        11        23     9        0.000000        0.335746         1
        14        12        11        23     9      180.000000       20.996976         2
        14        12        11        23     9        0.000000        0.385021         3
        14        12        11        23     9      180.000000       -0.676378         4
        15        10        13        32     9        0.000000        0.049177         1
        15        10        13        32     9      180.000000       10.879409         2
        15        10        13        32     9        0.000000       -0.411602         3
        15        10        13        32     9      180.000000        0.084922         4
        17         1         2        27     9        0.000000       -0.025078         1
        17         1         2        27     9      180.000000       12.376770         2
        17         1         2        27     9        0.000000       -0.353907         3
        17         1         2        27     9      180.000000        0.168111         4
        17         1         3        28     9        0.000000       -0.025078         1
        17         1         3        28     9      180.000000       12.376770         2
        17         1         3        28     9        0.000000       -0.353907         3
        17         1         3        28     9      180.000000        0.168111         4
        17        16        15        18     9        0.000000       -0.548185         1
        17        16        15        18     9      180.000000        9.486292         2
        17        16        15        18     9        0.000000       -0.289395         3
        17        16        15        18     9      180.000000       -0.422402         4
        18        15        16        33     9        0.000000        0.220218         1
        18        15        16        33     9      180.000000       10.147287         2
        18        15        16        33     9        0.000000       -0.568042         3
        18        15        16        33     9      180.000000        0.229072         4
        19         8        20        24     9        0.000000       -0.316310         1
        19         8        20        24     9      180.000000        0.886135         2
        19         8        20        24     9        0.000000        1.161269         3
        19         8        20        24     9      180.000000        0.080284         4
        19         8        21        37     9        0.000000       -0.060337         1
        19         8        21        37     9      180.000000        0.015436         2
        19         8        21        37     9        0.000000        0.502383         3
        19         8        21        37     9      180.000000        0.058128         4
        19         8        21        38     9        0.000000       -0.060337         1
        19         8        21        38     9      180.000000        0.015436         2
        19         8        21        38     9        0.000000        0.502383         3
        19         8        21        38     9      180.000000        0.058128         4
        19         8        21        39     9        0.000000       -0.060337         1
        19         8        21        39     9      180.000000        0.015436         2
        19         8        21        39     9        0.000000        0.502383         3
        19         8        21        39     9      180.000000        0.058128         4
        20         8        19        34     9        0.000000        0.064080         1
        20         8        19        34     9      180.000000        0.009004         2
        20         8        19        34     9        0.000000        0.462783         3
        20         8        19        34     9      180.000000        0.049187         4
        20         8        19        35     9        0.000000        0.064080         1
        20         8        19        35     9      180.000000        0.009004         2
        20         8        19        35     9        0.000000        0.462783         3
        20         8        19        35     9      180.000000        0.049187         4
        20         8        19        36     9        0.000000        0.064080         1
        20         8        19        36     9      180.000000        0.009004         2
        20         8        19        36     9        0.000000        0.462783         3
        20         8        19        36     9      180.000000        0.049187         4
        20         8        21        37     9        0.000000        0.064079         1
        20         8        21        37     9      180.000000        0.009002         2
        20         8        21        37     9        0.000000        0.462783         3
        20         8        21        37     9      180.000000        0.049188         4
        20         8        21        38     9        0.000000        0.064079         1
        20         8        21        38     9      180.000000        0.009002         2
        20         8        21        38     9        0.000000        0.462783         3
        20         8        21        38     9      180.000000        0.049188         4
        20         8        21        39     9        0.000000        0.064079         1
        20         8        21        39     9      180.000000        0.009002         2
        20         8        21        39     9        0.000000        0.462783         3
        20         8        21        39     9      180.000000        0.049188         4
        20        24        25        26     9        0.000000       -1.340423         1
        20        24        25        26     9      180.000000       -1.824685         2
        20        24        25        26     9        0.000000        0.778713         3
        20        24        25        26     9      180.000000       -0.156636         4
        20        24        25        45     9        0.000000       -0.040847         1
        20        24        25        45     9      180.000000        0.232076         2
        20        24        25        45     9        0.000000        0.648685         3
        20        24        25        45     9      180.000000        0.086860         4
        20        24        25        46     9        0.000000       -0.040847         1
        20        24        25        46     9      180.000000        0.232076         2
        20        24        25        46     9        0.000000        0.648685         3
        20        24        25        46     9      180.000000        0.086860         4
        21         8        19        34     9        0.000000       -0.060337         1
        21         8        19        34     9      180.000000        0.015436         2
        21         8        19        34     9        0.000000        0.502383         3
        21         8        19        34     9      180.000000        0.058128         4
        21         8        19        35     9        0.000000       -0.060337         1
        21         8        19        35     9      180.000000        0.015436         2
        21         8        19        35     9        0.000000        0.502383         3
        21         8        19        35     9      180.000000        0.058128         4
        21         8        19        36     9        0.000000       -0.060337         1
        21         8        19        36     9      180.000000        0.015436         2
        21         8        19        36     9        0.000000        0.502383         3
        21         8        19        36     9      180.000000        0.058128         4
        21         8        20        24     9        0.000000       -0.316310         1
        21         8        20        24     9      180.000000        0.886135         2
        21         8        20        24     9        0.000000        1.161269         3
        21         8        20        24     9      180.000000        0.080284         4
        22        14        12        31     9        0.000000       -0.172573         1
        22        14        12        31     9      180.000000       14.082402         2
        22        14        12        31     9        0.000000       -0.457612         3
        22        14        12        31     9      180.000000        0.219855         4
        23        11        12        31     9        0.000000        0.258365         1
        23        11        12        31     9      180.000000       14.731121         2
        23        11        12        31     9        0.000000        0.177085         3
        23        11        12        31     9      180.000000        0.228558         4
        23        11        13        32     9        0.000000        0.266487         1
        23        11        13        32     9      180.000000       16.016146         2
        23        11        13        32     9        0.000000        0.313985         3
        23        11        13        32     9      180.000000        0.214432         4
        24        25        26        47     9        0.000000        6.741677         1
        24        25        26        47     9      180.000000       -3.267143         2
        24        25        26        47     9        0.000000        1.488680         3
        24        25        26        47     9      180.000000        0.207860         4
        26        25        24        43     9        0.000000        0.347367         1
        26        25        24        43     9      180.000000        0.262516         2
        26        25        24        43     9        0.000000        0.757495         3
        26        25        24        43     9      180.000000        0.066273         4
        26        25        24        44     9        0.000000        0.347367         1
        26        25        24        44     9      180.000000        0.262516         2
        26        25        24        44     9        0.000000        0.757495         3
        26        25        24        44     9      180.000000        0.066273         4
        27         2         4        29     9        0.000000       -0.222583         1
        27         2         4        29     9      180.000000       12.256334         2
        27         2         4        29     9        0.000000       -0.828977         3
        27         2         4        29     9      180.000000        0.373422         4
        28         3         5        30     9        0.000000       -0.222583         1
        28         3         5        30     9      180.000000       12.256334         2
        28         3         5        30     9        0.000000       -0.828977         3
        28         3         5        30     9      180.000000        0.373422         4
        43        24        25        45     9        0.000000       -0.083814         1
        43        24        25        45     9      180.000000        0.013190         2
        43        24        25        45     9        0.000000        0.768517         3
        43        24        25        45     9      180.000000       -0.018383         4
        43        24        25        46     9        0.000000       -0.083814         1
        43        24        25        46     9      180.000000        0.013190         2
        43        24        25        46     9        0.000000        0.768517         3
        43        24        25        46     9      180.000000       -0.018383         4
        44        24        25        45     9        0.000000       -0.083814         1
        44        24        25        45     9      180.000000        0.013190         2
        44        24        25        45     9        0.000000        0.768517         3
        44        24        25        45     9      180.000000       -0.018383         4
        44        24        25        46     9        0.000000       -0.083814         1
        44        24        25        46     9      180.000000        0.013190         2
        44        24        25        46     9        0.000000        0.768517         3
        44        24        25        46     9      180.000000       -0.018383         4
        45        25        26        47     9        0.000000       -0.182123         1
        45        25        26        47     9      180.000000       -0.030586         2
        45        25        26        47     9        0.000000        0.881116         3
        45        25        26        47     9      180.000000        0.113936         4
        46        25        26        47     9        0.000000       -0.182123         1
        46        25        26        47     9      180.000000       -0.030586         2
        46        25        26        47     9        0.000000        0.881116         3
        46        25        26        47     9      180.000000        0.113936         4

[ dihedrals ] ; impropers
;       ai        aj        ak        al funct           phase               k        pn
         9         6        10        14     4      180.000000       11.399174         2
         9        10        14         6     4      180.000000       11.399174         2
         9        14         6        10     4      180.000000       11.399174         2
        11        12        13        23     4      180.000000        0.195333         2
        11        13        23        12     4      180.000000        0.195333         2
        11        23        12        13     4      180.000000        0.195333         2
        15        10        16        18     4      180.000000       27.893333         2
        15        16        18        10     4      180.000000       27.893333         2
        15        18        10        16     4      180.000000       27.893333         2
        17         1         6        16     4      180.000000        9.428824         2
        17         6        16         1     4      180.000000        9.428824         2
        17        16         1         6     4      180.000000        9.428824         2

[ pairs ]
;       ai        aj funct
         1         7     1
         1         9     1
         1        15     1
         1        29     1
         1        30     1
         1        33     1
         2         5     1
         2         6     1
         2         8     1
         2        16     1
         2        28     1
         3         4     1
         3         6     1
         3         8     1
         3        16     1
         3        27     1
         4        17     1
         4        19     1
         4        20     1
         4        21     1
         4        30     1
         5        17     1
         5        19     1
         5        20     1
         5        21     1
         5        29     1
         6        12     1
         6        13     1
         6        15     1
         6        22     1
         6        33     1
         7        24     1
         7        27     1
         7        28     1
         7        34     1
         7        35     1
         7        36     1
         7        37     1
         7        38     1
         7        39     1
         8        25     1
         8        29     1
         8        30     1
         8        43     1
         8        44     1
         9        11     1
         9        16     1
         9        18     1
         9        31     1
         9        32     1
         9        40     1
         9        41     1
         9        42     1
        10        12     1
        10        17     1
        10        22     1
        10        23     1
        10        33     1
        11        15     1
        11        22     1
        12        32     1
        12        40     1
        12        41     1
        12        42     1
        13        14     1
        13        16     1
        13        18     1
        13        31     1
        14        15     1
        14        17     1
        14        23     1
        15        32     1
        17        18     1
        17        27     1
        17        28     1
        18        33     1
        19        24     1
        19        37     1
        19        38     1
        19        39     1
        20        26     1
        20        34     1
        20        35     1
        20        36     1
        20        37     1
        20        38     1
        20        39     1
        20        45     1
        20        46     1
        21        24     1
        21        34     1
        21        35     1
        21        36     1
        22        31     1
        23        31     1
        23        32     1
        24        47     1
        26        43     1
        26        44     1
        27        29     1
        28        30     1
        43        45     1
        43        46     1
        44        45     1
        44        46     1
        45        47     1
        46        47     1
