; ITP file created by ByteFF-ML, 2026-02-21 07:51:42.650224

[ atomtypes ]
;name           bonded.type        at.num        mass        charge   ptype           sigma         epsilon
 c0bf                                   6      0.0000       0.00000       A     3.31455e-01     4.13249e-01
 c1bf                                   6      0.0000       0.00000       A     3.31523e-01     4.11353e-01
 c2bf                                   6      0.0000       0.00000       A     3.31479e-01     4.12720e-01
 c3bf                                   6      0.0000       0.00000       A     3.31511e-01     4.13551e-01
 n4bf                                   7      0.0000       0.00000       A     3.38268e-01     3.93530e-01
 c5bf                                   6      0.0000       0.00000       A     3.31550e-01     4.13468e-01
 c6bf                                   6      0.0000       0.00000       A     3.31389e-01     4.12244e-01
 c7bf                                   6      0.0000       0.00000       A     3.31443e-01     4.12902e-01
 n8bf                                   7      0.0000       0.00000       A     3.26530e-01     5.01306e-01
 o9bf                                   8      0.0000       0.00000       A     3.04637e-01     6.12097e-01
 c10bf                                  6      0.0000       0.00000       A     3.31680e-01     4.10852e-01
 c11bf                                  6      0.0000       0.00000       A     3.31424e-01     4.12499e-01
 c12bf                                  6      0.0000       0.00000       A     3.31532e-01     4.13502e-01
 c13bf                                  6      0.0000       0.00000       A     3.31438e-01     4.12054e-01
 c14bf                                  6      0.0000       0.00000       A     3.31700e-01     4.14622e-01
 c15bf                                  6      0.0000       0.00000       A     3.31438e-01     4.12054e-01
 c16bf                                  6      0.0000       0.00000       A     3.31532e-01     4.13502e-01
 f17bf                                  9      0.0000       0.00000       A     3.03363e-01     3.47616e-01
 n18bf                                  7      0.0000       0.00000       A     3.19701e-01     8.89284e-01
 c19bf                                  6      0.0000       0.00000       A     3.40174e-01     4.52664e-01
 c20bf                                  6      0.0000       0.00000       A     3.39643e-01     4.52111e-01
 n21bf                                  7      0.0000       0.00000       A     2.58628e-01     1.06556e+01
 c22bf                                  6      0.0000       0.00000       A     3.39643e-01     4.52111e-01
 c23bf                                  6      0.0000       0.00000       A     3.40174e-01     4.52664e-01
 c24bf                                  6      0.0000       0.00000       A     3.39758e-01     4.50128e-01
 h25bf                                  1      0.0000       0.00000       A     2.62526e-01     6.75760e-02
 h26bf                                  1      0.0000       0.00000       A     2.62554e-01     6.72616e-02
 h27bf                                  1      0.0000       0.00000       A     1.10472e-01     4.18202e-02
 h28bf                                  1      0.0000       0.00000       A     2.62561e-01     6.76175e-02
 h29bf                                  1      0.0000       0.00000       A     2.62519e-01     6.74738e-02
 h30bf                                  1      0.0000       0.00000       A     2.62519e-01     6.74738e-02
 h31bf                                  1      0.0000       0.00000       A     2.62561e-01     6.76175e-02
 h32bf                                  1      0.0000       0.00000       A     2.41999e-01     8.64974e-02
 h33bf                                  1      0.0000       0.00000       A     2.41999e-01     8.64974e-02
 h34bf                                  1      0.0000       0.00000       A     1.88063e-01     8.70065e-02
 h35bf                                  1      0.0000       0.00000       A     1.88063e-01     8.70065e-02
 h36bf                                  1      0.0000       0.00000       A     1.88063e-01     8.70065e-02
 h37bf                                  1      0.0000       0.00000       A     1.88063e-01     8.70065e-02
 h38bf                                  1      0.0000       0.00000       A     2.41999e-01     8.64974e-02
 h39bf                                  1      0.0000       0.00000       A     2.41999e-01     8.64974e-02
 h40bf                                  1      0.0000       0.00000       A     1.88367e-01     8.68900e-02
 h41bf                                  1      0.0000       0.00000       A     1.88367e-01     8.68900e-02
 h42bf                                  1      0.0000       0.00000       A     1.88367e-01     8.68900e-02
 h43bf                                  1      0.0000       0.00000       A     1.10670e-01     4.12983e-02
 h44bf                                  1      0.0000       0.00000       A     2.62502e-01     6.68785e-02

[ moleculetype ]
;name             nrexcl
 8a                    3

[ atoms ]
;       nr            type      resi   res      atom      cgnr      charge          mass ; qtot
         1            c0bf         1   UNL        c0         1    -0.07992       12.0110 ; qtot   -0.080
         2            c1bf         1   UNL        c1         2     0.17862       12.0110 ; qtot    0.099
         3            c2bf         1   UNL        c2         3    -0.10747       12.0110 ; qtot   -0.009
         4            c3bf         1   UNL        c3         4    -0.18463       12.0110 ; qtot   -0.193
         5            n4bf         1   UNL        n4         5    -0.62404       14.0070 ; qtot   -0.817
         6            c5bf         1   UNL        c5         6     0.14301       12.0110 ; qtot   -0.674
         7            c6bf         1   UNL        c6         7    -0.07487       12.0110 ; qtot   -0.749
         8            c7bf         1   UNL        c7         8     0.57197       12.0110 ; qtot   -0.177
         9            n8bf         1   UNL        n8         9    -0.42614       14.0070 ; qtot   -0.603
        10            o9bf         1   UNL        o9        10    -0.53280       15.9990 ; qtot   -1.136
        11           c10bf         1   UNL       c10        11     0.56425       12.0110 ; qtot   -0.572
        12           c11bf         1   UNL       c11        12    -0.19719       12.0110 ; qtot   -0.769
        13           c12bf         1   UNL       c12        13    -0.02922       12.0110 ; qtot   -0.798
        14           c13bf         1   UNL       c13        14    -0.15519       12.0110 ; qtot   -0.954
        15           c14bf         1   UNL       c14        15     0.25693       12.0110 ; qtot   -0.697
        16           c15bf         1   UNL       c15        16    -0.15519       12.0110 ; qtot   -0.852
        17           c16bf         1   UNL       c16        17    -0.02922       12.0110 ; qtot   -0.881
        18           f17bf         1   UNL       f17        18    -0.17355       18.9980 ; qtot   -1.055
        19           n18bf         1   UNL       n18        19    -0.78802       14.0070 ; qtot   -1.843
        20           c19bf         1   UNL       c19        20     0.17437       12.0110 ; qtot   -1.668
        21           c20bf         1   UNL       c20        21     0.09935       12.0110 ; qtot   -1.569
        22           n21bf         1   UNL       n21        22    -0.68094       14.0070 ; qtot   -2.250
        23           c22bf         1   UNL       c22        23     0.09935       12.0110 ; qtot   -2.151
        24           c23bf         1   UNL       c23        24     0.17437       12.0110 ; qtot   -1.976
        25           c24bf         1   UNL       c24        25     0.08897       12.0110 ; qtot   -1.887
        26           h25bf         1   UNL       h25        26     0.13748        1.0080 ; qtot   -1.750
        27           h26bf         1   UNL       h26        27     0.15769        1.0080 ; qtot   -1.592
        28           h27bf         1   UNL       h27        28     0.33464        1.0080 ; qtot   -1.257
        29           h28bf         1   UNL       h28        29     0.12534        1.0080 ; qtot   -1.132
        30           h29bf         1   UNL       h29        30     0.11969        1.0080 ; qtot   -1.012
        31           h30bf         1   UNL       h30        31     0.11969        1.0080 ; qtot   -0.893
        32           h31bf         1   UNL       h31        32     0.12534        1.0080 ; qtot   -0.767
        33           h32bf         1   UNL       h32        33     0.09373        1.0080 ; qtot   -0.674
        34           h33bf         1   UNL       h33        34     0.09373        1.0080 ; qtot   -0.580
        35           h34bf         1   UNL       h34        35     0.10797        1.0080 ; qtot   -0.472
        36           h35bf         1   UNL       h35        36     0.10797        1.0080 ; qtot   -0.364
        37           h36bf         1   UNL       h36        37     0.10797        1.0080 ; qtot   -0.256
        38           h37bf         1   UNL       h37        38     0.10797        1.0080 ; qtot   -0.148
        39           h38bf         1   UNL       h38        39     0.09373        1.0080 ; qtot   -0.054
        40           h39bf         1   UNL       h39        40     0.09373        1.0080 ; qtot    0.039
        41           h40bf         1   UNL       h40        41     0.10347        1.0080 ; qtot    0.143
        42           h41bf         1   UNL       h41        42     0.10347        1.0080 ; qtot    0.246
        43           h42bf         1   UNL       h42        43     0.10347        1.0080 ; qtot    0.350
        44           h43bf         1   UNL       h43        44     0.50957        1.0080 ; qtot    0.859
        45           h44bf         1   UNL       h44        45     0.14055        1.0080 ; qtot    1.000

[ bonds ]
;       ai        aj funct               r               k
         1         2     1        0.141242   282180.002246
         1         3     1        0.138654   340316.968262
         1        45     1        0.108500   324670.023828
         2         4     1        0.141626   264519.175830
         2         5     1        0.138695   253750.866309
         3         6     1        0.140538   281854.787158
         3        26     1        0.108501   324944.649902
         4         7     1        0.140519   295055.097754
         4         8     1        0.146855   200493.045947
         5        11     1        0.130004   426514.722949
         6         7     1        0.138110   324084.457910
         6        18     1        0.135532   291594.768359
         7        27     1        0.108412   327725.053760
         8         9     1        0.140209   208674.101538
         8        10     1        0.122840   610002.377930
         9        11     1        0.137908   255004.968213
         9        28     1        0.101480   412787.019971
        11        12     1        0.147900   204541.622656
        12        13     1        0.140583   286763.274951
        12        17     1        0.140583   286763.274951
        13        14     1        0.138961   339037.584619
        13        29     1        0.108551   319954.187988
        14        15     1        0.140750   277445.320020
        14        30     1        0.108379   323172.042529
        15        16     1        0.140750   277445.320020
        15        19     1        0.142973   221862.167090
        16        17     1        0.138961   339037.584619
        16        31     1        0.108379   323172.042529
        17        32     1        0.108551   319954.187988
        19        20     1        0.146018   196884.435327
        19        24     1        0.146018   196884.448096
        20        21     1        0.153368   176988.945850
        20        33     1        0.109533   295062.529053
        20        34     1        0.109533   295062.529053
        21        22     1        0.151827   134270.814038
        21        35     1        0.109062   311989.750928
        21        36     1        0.109062   311989.725391
        22        23     1        0.151827   134270.826807
        22        25     1        0.150416   158916.525073
        22        44     1        0.102679   381210.282080
        23        24     1        0.153368   176988.945850
        23        37     1        0.109062   311989.725391
        23        38     1        0.109062   311989.725391
        24        39     1        0.109533   295062.529053
        24        40     1        0.109533   295062.529053
        25        41     1        0.108915   317557.479199
        25        42     1        0.108915   317557.479199
        25        43     1        0.108915   317557.479199

[ angles ]
;       ai        aj        ak funct           theta             cth
         1         2         4     1      118.469994      611.724345
         1         2         5     1      118.535484      425.812657
         1         3         6     1      119.133240      685.589030
         1         3        26     1      121.615135      428.074032
         2         1         3     1      120.620567      694.497331
         2         1        45     1      118.197289      455.692671
         2         4         7     1      120.973595      716.910230
         2         4         8     1      119.041054      848.109683
         2         5        11     1      118.102127      316.933563
         3         1        45     1      121.101906      427.576664
         3         6         7     1      122.498901      617.579174
         3         6        18     1      117.991562      604.150677
         4         2         5     1      122.976463      728.567985
         4         7         6     1      118.185379      594.630379
         4         7        27     1      119.988426      417.862093
         4         8         9     1      112.829361      617.312503
         4         8        10     1      126.287453      458.326057
         5        11         9     1      122.649086      510.787707
         5        11        12     1      120.165771      398.495675
         6         3        26     1      119.244308      457.692354
         6         7        27     1      121.657227      423.525904
         7         4         8     1      119.717651      483.344029
         7         6        18     1      119.387344      492.734024
         8         9        11     1      124.979759      718.020009
         8         9        28     1      114.834351      511.166806
         9         8        10     1      120.490158      783.518034
         9        11        12     1      117.548645      655.391717
        11         9        28     1      120.328003      426.351937
        11        12        13     1      121.074303      547.512688
        11        12        17     1      121.074303      547.512688
        12        13        14     1      121.288467      644.073223
        12        13        29     1      119.803467      416.855548
        12        17        16     1      121.288467      644.073223
        12        17        32     1      119.803467      416.855548
        13        12        17     1      117.634262      518.417781
        13        14        15     1      120.391037      733.999153
        13        14        30     1      118.808350      438.009787
        14        13        29     1      118.953079      417.877160
        14        15        16     1      118.351456      568.690868
        14        15        19     1      120.287659      546.334853
        15        14        30     1      120.588425      431.749428
        15        16        17     1      120.391037      733.999153
        15        16        31     1      120.588425      431.749428
        15        19        20     1      116.871582      558.615138
        15        19        24     1      116.871582      558.615138
        16        15        19     1      120.287659      546.334853
        16        17        32     1      118.953079      417.877160
        17        16        31     1      118.808350      438.009787
        19        20        21     1      110.065170      632.962346
        19        20        33     1      110.714188      432.592408
        19        20        34     1      110.714188      432.592408
        19        24        23     1      110.065170      632.962346
        19        24        39     1      110.714188      432.592440
        19        24        40     1      110.714188      432.592440
        20        19        24     1      112.132645      522.703450
        20        21        22     1      109.975113      717.182009
        20        21        35     1      111.716408      475.215376
        20        21        36     1      111.716408      475.215376
        21        20        33     1      108.973717      486.045951
        21        20        34     1      108.973717      486.045951
        21        22        23     1      110.328247      593.783441
        21        22        25     1      112.476852      607.580885
        21        22        44     1      106.576797      499.684204
        22        21        35     1      107.056313      514.542875
        22        21        36     1      107.056313      514.542875
        22        23        24     1      109.975121      717.181945
        22        23        37     1      107.056313      514.542875
        22        23        38     1      107.056313      514.542875
        22        25        41     1      108.742737      542.321888
        22        25        42     1      108.742737      542.321888
        22        25        43     1      108.742737      542.321888
        23        22        25     1      112.476852      607.580885
        23        22        44     1      106.576782      499.684204
        23        24        39     1      108.973732      486.045951
        23        24        40     1      108.973732      486.045951
        24        23        37     1      111.716393      475.215376
        24        23        38     1      111.716393      475.215376
        25        22        44     1      107.552025      514.579394
        33        20        34     1      107.182266      346.547257
        35        21        36     1      109.137733      341.305510
        37        23        38     1      109.137733      341.305510
        39        24        40     1      107.182266      346.547257
        41        25        42     1      110.232651      347.132376
        41        25        43     1      110.232651      347.132376
        42        25        43     1      110.232651      347.132376

[ dihedrals ] ; propers for gromacs 4.5 or higher, use funct 9
;       ai        aj        ak        al funct           phase               k        pn
         1         2         4         7     9        0.000000        0.014116         1
         1         2         4         7     9      180.000000       13.025916         2
         1         2         4         7     9        0.000000       -1.016227         3
         1         2         4         7     9      180.000000       -0.124746         4
         1         2         4         8     9        0.000000        0.278735         1
         1         2         4         8     9      180.000000       11.507690         2
         1         2         4         8     9        0.000000       -0.310180         3
         1         2         4         8     9      180.000000       -0.170338         4
         1         2         5        11     9        0.000000       -0.243089         1
         1         2         5        11     9      180.000000        7.066778         2
         1         2         5        11     9        0.000000        1.088329         3
         1         2         5        11     9      180.000000       -0.143681         4
         1         3         6         7     9        0.000000       -0.144327         1
         1         3         6         7     9      180.000000       15.664061         2
         1         3         6         7     9        0.000000       -1.119142         3
         1         3         6         7     9      180.000000       -0.231264         4
         1         3         6        18     9        0.000000        0.547841         1
         1         3         6        18     9      180.000000       21.137851         2
         1         3         6        18     9        0.000000        0.508525         3
         1         3         6        18     9      180.000000       -0.557490         4
         2         1         3         6     9        0.000000       -0.153190         1
         2         1         3         6     9      180.000000       20.309492         2
         2         1         3         6     9        0.000000       -1.394836         3
         2         1         3         6     9      180.000000       -0.494587         4
         2         1         3        26     9        0.000000        0.061904         1
         2         1         3        26     9      180.000000       15.252624         2
         2         1         3        26     9        0.000000       -0.382992         3
         2         1         3        26     9      180.000000        0.067840         4
         2         4         7         6     9        0.000000       -0.151816         1
         2         4         7         6     9      180.000000       17.431431         2
         2         4         7         6     9        0.000000       -1.292418         3
         2         4         7         6     9      180.000000       -0.270018         4
         2         4         7        27     9        0.000000        0.148686         1
         2         4         7        27     9      180.000000       12.257432         2
         2         4         7        27     9        0.000000       -0.338211         3
         2         4         7        27     9      180.000000        0.044436         4
         2         4         8         9     9        0.000000        0.173418         1
         2         4         8         9     9      180.000000        4.101547         2
         2         4         8         9     9        0.000000        0.212728         3
         2         4         8         9     9      180.000000        0.078310         4
         2         4         8        10     9        0.000000       -0.052563         1
         2         4         8        10     9      180.000000        7.922623         2
         2         4         8        10     9        0.000000        0.143609         3
         2         4         8        10     9      180.000000       -0.418474         4
         2         5        11         9     9        0.000000       -0.325405         1
         2         5        11         9     9      180.000000       36.740143         2
         2         5        11         9     9        0.000000       -0.417165         3
         2         5        11         9     9      180.000000       -1.076339         4
         2         5        11        12     9        0.000000        0.778502         1
         2         5        11        12     9      180.000000       30.707205         2
         2         5        11        12     9        0.000000        1.279556         3
         2         5        11        12     9      180.000000       -1.278451         4
         3         1         2         4     9        0.000000       -0.120942         1
         3         1         2         4     9      180.000000       16.339837         2
         3         1         2         4     9        0.000000       -1.070513         3
         3         1         2         4     9      180.000000       -0.308968         4
         3         1         2         5     9        0.000000        0.396286         1
         3         1         2         5     9      180.000000       16.611044         2
         3         1         2         5     9        0.000000        0.197530         3
         3         1         2         5     9      180.000000       -0.350107         4
         3         6         7         4     9        0.000000       -0.050637         1
         3         6         7         4     9      180.000000       17.894635         2
         3         6         7         4     9        0.000000       -1.077146         3
         3         6         7         4     9      180.000000       -0.421424         4
         3         6         7        27     9        0.000000        0.125035         1
         3         6         7        27     9      180.000000       13.539666         2
         3         6         7        27     9        0.000000       -0.353982         3
         3         6         7        27     9      180.000000        0.131342         4
         4         2         1        45     9        0.000000       -0.094085         1
         4         2         1        45     9      180.000000       12.498557         2
         4         2         1        45     9        0.000000       -0.299986         3
         4         2         1        45     9      180.000000       -0.003365         4
         4         2         5        11     9        0.000000        0.516837         1
         4         2         5        11     9      180.000000        5.669485         2
         4         2         5        11     9        0.000000        1.056609         3
         4         2         5        11     9      180.000000       -0.170265         4
         4         7         6        18     9        0.000000        0.273527         1
         4         7         6        18     9      180.000000       23.199506         2
         4         7         6        18     9        0.000000        0.571326         3
         4         7         6        18     9      180.000000       -0.779268         4
         4         8         9        11     9        0.000000       -0.318778         1
         4         8         9        11     9      180.000000        3.512049         2
         4         8         9        11     9        0.000000        0.161381         3
         4         8         9        11     9      180.000000        0.116764         4
         4         8         9        28     9        0.000000       -0.739572         1
         4         8         9        28     9      180.000000        6.985507         2
         4         8         9        28     9        0.000000        0.038341         3
         4         8         9        28     9      180.000000       -0.079136         4
         5         2         1        45     9        0.000000        0.216113         1
         5         2         1        45     9      180.000000       13.948926         2
         5         2         1        45     9        0.000000       -0.242494         3
         5         2         1        45     9      180.000000        0.095568         4
         5         2         4         7     9        0.000000        0.215899         1
         5         2         4         7     9      180.000000       13.778960         2
         5         2         4         7     9        0.000000       -0.064091         3
         5         2         4         7     9      180.000000       -0.219651         4
         5         2         4         8     9        0.000000        0.588874         1
         5         2         4         8     9      180.000000       12.206564         2
         5         2         4         8     9        0.000000        0.608649         3
         5         2         4         8     9      180.000000       -0.527140         4
         5        11         9         8     9        0.000000       -0.069284         1
         5        11         9         8     9      180.000000        7.200725         2
         5        11         9         8     9        0.000000        0.180142         3
         5        11         9         8     9      180.000000       -0.226268         4
         5        11         9        28     9        0.000000        1.385951         1
         5        11         9        28     9      180.000000        6.868330         2
         5        11         9        28     9        0.000000       -0.290598         3
         5        11         9        28     9      180.000000       -0.133254         4
         5        11        12        13     9        0.000000        0.049138         1
         5        11        12        13     9      180.000000        4.006801         2
         5        11        12        13     9        0.000000        0.013624         3
         5        11        12        13     9      180.000000       -0.067434         4
         5        11        12        17     9        0.000000        0.049138         1
         5        11        12        17     9      180.000000        4.006801         2
         5        11        12        17     9        0.000000        0.013624         3
         5        11        12        17     9      180.000000       -0.067434         4
         6         3         1        45     9        0.000000        0.051233         1
         6         3         1        45     9      180.000000       15.797575         2
         6         3         1        45     9        0.000000       -0.624662         3
         6         3         1        45     9      180.000000        0.136675         4
         6         7         4         8     9        0.000000        0.133589         1
         6         7         4         8     9      180.000000       14.055276         2
         6         7         4         8     9        0.000000       -0.217773         3
         6         7         4         8     9      180.000000       -0.238045         4
         7         4         8         9     9        0.000000       -0.215600         1
         7         4         8         9     9      180.000000        4.582441         2
         7         4         8         9     9        0.000000        0.346544         3
         7         4         8         9     9      180.000000        0.081039         4
         7         4         8        10     9        0.000000       -1.074103         1
         7         4         8        10     9      180.000000        6.486290         2
         7         4         8        10     9        0.000000       -0.078736         3
         7         4         8        10     9      180.000000       -0.049906         4
         7         6         3        26     9        0.000000       -0.005250         1
         7         6         3        26     9      180.000000       12.331273         2
         7         6         3        26     9        0.000000       -0.492858         3
         7         6         3        26     9      180.000000        0.109146         4
         8         4         7        27     9        0.000000        0.081035         1
         8         4         7        27     9      180.000000       10.990811         2
         8         4         7        27     9        0.000000       -0.361514         3
         8         4         7        27     9      180.000000        0.075766         4
         8         9        11        12     9        0.000000        0.213660         1
         8         9        11        12     9      180.000000        7.493434         2
         8         9        11        12     9        0.000000        0.185690         3
         8         9        11        12     9      180.000000       -0.354360         4
         9        11        12        13     9        0.000000        0.117674         1
         9        11        12        13     9      180.000000        4.149524         2
         9        11        12        13     9        0.000000        0.231764         3
         9        11        12        13     9      180.000000       -0.295496         4
         9        11        12        17     9        0.000000        0.117674         1
         9        11        12        17     9      180.000000        4.149524         2
         9        11        12        17     9        0.000000        0.231764         3
         9        11        12        17     9      180.000000       -0.295496         4
        10         8         9        11     9        0.000000       -0.496913         1
        10         8         9        11     9      180.000000        9.460009         2
        10         8         9        11     9        0.000000       -0.299086         3
        10         8         9        11     9      180.000000       -0.417326         4
        10         8         9        28     9        0.000000        0.204914         1
        10         8         9        28     9      180.000000       10.108021         2
        10         8         9        28     9        0.000000       -0.546979         3
        10         8         9        28     9      180.000000        0.236694         4
        11        12        13        14     9        0.000000        0.022694         1
        11        12        13        14     9      180.000000       14.583240         2
        11        12        13        14     9        0.000000       -0.452299         3
        11        12        13        14     9      180.000000       -0.223085         4
        11        12        13        29     9        0.000000        0.040682         1
        11        12        13        29     9      180.000000       12.142936         2
        11        12        13        29     9        0.000000       -0.341646         3
        11        12        13        29     9      180.000000        0.136723         4
        11        12        17        16     9        0.000000        0.022694         1
        11        12        17        16     9      180.000000       14.583240         2
        11        12        17        16     9        0.000000       -0.452299         3
        11        12        17        16     9      180.000000       -0.223085         4
        11        12        17        32     9        0.000000        0.040682         1
        11        12        17        32     9      180.000000       12.142936         2
        11        12        17        32     9        0.000000       -0.341646         3
        11        12        17        32     9      180.000000        0.136723         4
        12        11         9        28     9        0.000000       -0.544648         1
        12        11         9        28     9      180.000000        6.129727         2
        12        11         9        28     9        0.000000       -0.158413         3
        12        11         9        28     9      180.000000       -0.139057         4
        12        13        14        15     9        0.000000       -0.106895         1
        12        13        14        15     9      180.000000       19.194224         2
        12        13        14        15     9        0.000000       -1.687928         3
        12        13        14        15     9      180.000000       -0.522361         4
        12        13        14        30     9        0.000000       -0.049868         1
        12        13        14        30     9      180.000000       15.047537         2
        12        13        14        30     9        0.000000       -0.572385         3
        12        13        14        30     9      180.000000        0.082000         4
        12        17        16        15     9        0.000000       -0.106895         1
        12        17        16        15     9      180.000000       19.194224         2
        12        17        16        15     9        0.000000       -1.687928         3
        12        17        16        15     9      180.000000       -0.522361         4
        12        17        16        31     9        0.000000       -0.049868         1
        12        17        16        31     9      180.000000       15.047537         2
        12        17        16        31     9        0.000000       -0.572385         3
        12        17        16        31     9      180.000000        0.082000         4
        13        12        17        16     9        0.000000       -0.090906         1
        13        12        17        16     9      180.000000       17.450760         2
        13        12        17        16     9        0.000000       -1.542977         3
        13        12        17        16     9      180.000000       -0.344982         4
        13        12        17        32     9        0.000000       -0.039846         1
        13        12        17        32     9      180.000000       13.702704         2
        13        12        17        32     9        0.000000       -0.634208         3
        13        12        17        32     9      180.000000        0.055935         4
        13        14        15        16     9        0.000000       -0.038413         1
        13        14        15        16     9      180.000000       15.429375         2
        13        14        15        16     9        0.000000       -0.910652         3
        13        14        15        16     9      180.000000       -0.185722         4
        13        14        15        19     9        0.000000        0.305212         1
        13        14        15        19     9      180.000000       17.417761         2
        13        14        15        19     9        0.000000        0.399929         3
        13        14        15        19     9      180.000000       -0.349248         4
        14        13        12        17     9        0.000000       -0.090906         1
        14        13        12        17     9      180.000000       17.450760         2
        14        13        12        17     9        0.000000       -1.542977         3
        14        13        12        17     9      180.000000       -0.344982         4
        14        15        16        17     9        0.000000       -0.038413         1
        14        15        16        17     9      180.000000       15.429375         2
        14        15        16        17     9        0.000000       -0.910652         3
        14        15        16        17     9      180.000000       -0.185722         4
        14        15        16        31     9        0.000000       -0.102958         1
        14        15        16        31     9      180.000000       12.149321         2
        14        15        16        31     9        0.000000       -0.434413         3
        14        15        16        31     9      180.000000        0.190847         4
        14        15        19        20     9        0.000000        1.230682         1
        14        15        19        20     9      180.000000        4.523983         2
        14        15        19        20     9        0.000000        0.417961         3
        14        15        19        20     9      180.000000        0.446422         4
        14        15        19        24     9        0.000000        1.230681         1
        14        15        19        24     9      180.000000        4.523983         2
        14        15        19        24     9        0.000000        0.417961         3
        14        15        19        24     9      180.000000        0.446422         4
        15        14        13        29     9        0.000000        0.080673         1
        15        14        13        29     9      180.000000       15.274998         2
        15        14        13        29     9        0.000000       -0.647284         3
        15        14        13        29     9      180.000000        0.083450         4
        15        16        17        32     9        0.000000        0.080673         1
        15        16        17        32     9      180.000000       15.274998         2
        15        16        17        32     9        0.000000       -0.647284         3
        15        16        17        32     9      180.000000        0.083450         4
        15        19        20        21     9        0.000000        0.231203         1
        15        19        20        21     9      180.000000        0.400052         2
        15        19        20        21     9        0.000000        0.619617         3
        15        19        20        21     9      180.000000        0.025250         4
        15        19        20        33     9        0.000000       -0.204611         1
        15        19        20        33     9      180.000000        0.083232         2
        15        19        20        33     9        0.000000        0.693874         3
        15        19        20        33     9      180.000000        0.035332         4
        15        19        20        34     9        0.000000       -0.204611         1
        15        19        20        34     9      180.000000        0.083232         2
        15        19        20        34     9        0.000000        0.693874         3
        15        19        20        34     9      180.000000        0.035332         4
        15        19        24        23     9        0.000000        0.231203         1
        15        19        24        23     9      180.000000        0.400051         2
        15        19        24        23     9        0.000000        0.619617         3
        15        19        24        23     9      180.000000        0.025250         4
        15        19        24        39     9        0.000000       -0.204611         1
        15        19        24        39     9      180.000000        0.083233         2
        15        19        24        39     9        0.000000        0.693874         3
        15        19        24        39     9      180.000000        0.035331         4
        15        19        24        40     9        0.000000       -0.204611         1
        15        19        24        40     9      180.000000        0.083233         2
        15        19        24        40     9        0.000000        0.693874         3
        15        19        24        40     9      180.000000        0.035331         4
        16        15        14        30     9        0.000000       -0.102958         1
        16        15        14        30     9      180.000000       12.149321         2
        16        15        14        30     9        0.000000       -0.434413         3
        16        15        14        30     9      180.000000        0.190847         4
        16        15        19        20     9        0.000000        1.230682         1
        16        15        19        20     9      180.000000        4.523983         2
        16        15        19        20     9        0.000000        0.417961         3
        16        15        19        20     9      180.000000        0.446422         4
        16        15        19        24     9        0.000000        1.230681         1
        16        15        19        24     9      180.000000        4.523983         2
        16        15        19        24     9        0.000000        0.417961         3
        16        15        19        24     9      180.000000        0.446422         4
        17        12        13        29     9        0.000000       -0.039846         1
        17        12        13        29     9      180.000000       13.702704         2
        17        12        13        29     9        0.000000       -0.634208         3
        17        12        13        29     9      180.000000        0.055935         4
        17        16        15        19     9        0.000000        0.305212         1
        17        16        15        19     9      180.000000       17.417761         2
        17        16        15        19     9        0.000000        0.399929         3
        17        16        15        19     9      180.000000       -0.349248         4
        18         6         3        26     9        0.000000        0.258364         1
        18         6         3        26     9      180.000000       14.685376         2
        18         6         3        26     9        0.000000        0.207204         3
        18         6         3        26     9      180.000000        0.209778         4
        18         6         7        27     9        0.000000        0.241037         1
        18         6         7        27     9      180.000000       16.226538         2
        18         6         7        27     9        0.000000        0.331559         3
        18         6         7        27     9      180.000000        0.192073         4
        19        15        14        30     9        0.000000       -0.062243         1
        19        15        14        30     9      180.000000       13.942588         2
        19        15        14        30     9        0.000000       -0.053248         3
        19        15        14        30     9      180.000000        0.116273         4
        19        15        16        31     9        0.000000       -0.062243         1
        19        15        16        31     9      180.000000       13.942588         2
        19        15        16        31     9        0.000000       -0.053248         3
        19        15        16        31     9      180.000000        0.116273         4
        19        20        21        22     9        0.000000        4.551323         1
        19        20        21        22     9      180.000000       -1.185651         2
        19        20        21        22     9        0.000000        0.664847         3
        19        20        21        22     9      180.000000       -0.230651         4
        19        20        21        35     9        0.000000       -0.233871         1
        19        20        21        35     9      180.000000        0.015709         2
        19        20        21        35     9        0.000000        0.571562         3
        19        20        21        35     9      180.000000        0.013777         4
        19        20        21        36     9        0.000000       -0.233871         1
        19        20        21        36     9      180.000000        0.015709         2
        19        20        21        36     9        0.000000        0.571562         3
        19        20        21        36     9      180.000000        0.013777         4
        19        24        23        22     9        0.000000        4.551324         1
        19        24        23        22     9      180.000000       -1.185652         2
        19        24        23        22     9        0.000000        0.664847         3
        19        24        23        22     9      180.000000       -0.230651         4
        19        24        23        37     9        0.000000       -0.233872         1
        19        24        23        37     9      180.000000        0.015709         2
        19        24        23        37     9        0.000000        0.571562         3
        19        24        23        37     9      180.000000        0.013777         4
        19        24        23        38     9        0.000000       -0.233872         1
        19        24        23        38     9      180.000000        0.015709         2
        19        24        23        38     9        0.000000        0.571562         3
        19        24        23        38     9      180.000000        0.013777         4
        20        19        24        23     9        0.000000        2.909270         1
        20        19        24        23     9      180.000000       -1.469395         2
        20        19        24        23     9        0.000000        0.695520         3
        20        19        24        23     9      180.000000        0.049910         4
        20        19        24        39     9        0.000000       -0.088121         1
        20        19        24        39     9      180.000000        0.120868         2
        20        19        24        39     9        0.000000        0.805229         3
        20        19        24        39     9      180.000000        0.009566         4
        20        19        24        40     9        0.000000       -0.088121         1
        20        19        24        40     9      180.000000        0.120868         2
        20        19        24        40     9        0.000000        0.805229         3
        20        19        24        40     9      180.000000        0.009566         4
        20        21        22        23     9        0.000000        2.018900         1
        20        21        22        23     9      180.000000       -1.675962         2
        20        21        22        23     9        0.000000        0.209584         3
        20        21        22        23     9      180.000000        0.186293         4
        20        21        22        25     9        0.000000       -0.627487         1
        20        21        22        25     9      180.000000        0.178206         2
        20        21        22        25     9        0.000000        0.559814         3
        20        21        22        25     9      180.000000        0.056919         4
        20        21        22        44     9        0.000000        2.375102         1
        20        21        22        44     9      180.000000       -0.890341         2
        20        21        22        44     9        0.000000        0.606057         3
        20        21        22        44     9      180.000000       -0.092674         4
        21        20        19        24     9        0.000000        2.909271         1
        21        20        19        24     9      180.000000       -1.469395         2
        21        20        19        24     9        0.000000        0.695520         3
        21        20        19        24     9      180.000000        0.049910         4
        21        22        23        24     9        0.000000        2.018901         1
        21        22        23        24     9      180.000000       -1.675962         2
        21        22        23        24     9        0.000000        0.209585         3
        21        22        23        24     9      180.000000        0.186292         4
        21        22        23        37     9        0.000000       -0.012851         1
        21        22        23        37     9      180.000000        0.041918         2
        21        22        23        37     9        0.000000        0.437918         3
        21        22        23        37     9      180.000000       -0.043919         4
        21        22        23        38     9        0.000000       -0.012851         1
        21        22        23        38     9      180.000000        0.041918         2
        21        22        23        38     9        0.000000        0.437918         3
        21        22        23        38     9      180.000000       -0.043919         4
        21        22        25        41     9        0.000000       -0.006123         1
        21        22        25        41     9      180.000000        0.060727         2
        21        22        25        41     9        0.000000        0.629307         3
        21        22        25        41     9      180.000000       -0.024681         4
        21        22        25        42     9        0.000000       -0.006123         1
        21        22        25        42     9      180.000000        0.060727         2
        21        22        25        42     9        0.000000        0.629307         3
        21        22        25        42     9      180.000000       -0.024681         4
        21        22        25        43     9        0.000000       -0.006123         1
        21        22        25        43     9      180.000000        0.060727         2
        21        22        25        43     9        0.000000        0.629307         3
        21        22        25        43     9      180.000000       -0.024681         4
        22        21        20        33     9        0.000000       -0.213319         1
        22        21        20        33     9      180.000000        0.070848         2
        22        21        20        33     9        0.000000        0.622640         3
        22        21        20        33     9      180.000000        0.050383         4
        22        21        20        34     9        0.000000       -0.213319         1
        22        21        20        34     9      180.000000        0.070848         2
        22        21        20        34     9        0.000000        0.622640         3
        22        21        20        34     9      180.000000        0.050383         4
        22        23        24        39     9        0.000000       -0.213318         1
        22        23        24        39     9      180.000000        0.070848         2
        22        23        24        39     9        0.000000        0.622640         3
        22        23        24        39     9      180.000000        0.050383         4
        22        23        24        40     9        0.000000       -0.213318         1
        22        23        24        40     9      180.000000        0.070848         2
        22        23        24        40     9        0.000000        0.622640         3
        22        23        24        40     9      180.000000        0.050383         4
        23        22        21        35     9        0.000000       -0.012851         1
        23        22        21        35     9      180.000000        0.041918         2
        23        22        21        35     9        0.000000        0.437918         3
        23        22        21        35     9      180.000000       -0.043919         4
        23        22        21        36     9        0.000000       -0.012851         1
        23        22        21        36     9      180.000000        0.041918         2
        23        22        21        36     9        0.000000        0.437918         3
        23        22        21        36     9      180.000000       -0.043919         4
        23        22        25        41     9        0.000000       -0.006123         1
        23        22        25        41     9      180.000000        0.060727         2
        23        22        25        41     9        0.000000        0.629307         3
        23        22        25        41     9      180.000000       -0.024681         4
        23        22        25        42     9        0.000000       -0.006123         1
        23        22        25        42     9      180.000000        0.060727         2
        23        22        25        42     9        0.000000        0.629307         3
        23        22        25        42     9      180.000000       -0.024681         4
        23        22        25        43     9        0.000000       -0.006123         1
        23        22        25        43     9      180.000000        0.060727         2
        23        22        25        43     9        0.000000        0.629307         3
        23        22        25        43     9      180.000000       -0.024681         4
        24        19        20        33     9        0.000000       -0.088122         1
        24        19        20        33     9      180.000000        0.120869         2
        24        19        20        33     9        0.000000        0.805229         3
        24        19        20        33     9      180.000000        0.009566         4
        24        19        20        34     9        0.000000       -0.088122         1
        24        19        20        34     9      180.000000        0.120869         2
        24        19        20        34     9        0.000000        0.805229         3
        24        19        20        34     9      180.000000        0.009566         4
        24        23        22        25     9        0.000000       -0.627487         1
        24        23        22        25     9      180.000000        0.178205         2
        24        23        22        25     9        0.000000        0.559814         3
        24        23        22        25     9      180.000000        0.056919         4
        24        23        22        44     9        0.000000        2.375102         1
        24        23        22        44     9      180.000000       -0.890341         2
        24        23        22        44     9        0.000000        0.606057         3
        24        23        22        44     9      180.000000       -0.092673         4
        25        22        21        35     9        0.000000       -0.037788         1
        25        22        21        35     9      180.000000       -0.040135         2
        25        22        21        35     9        0.000000        0.606555         3
        25        22        21        35     9      180.000000       -0.017233         4
        25        22        21        36     9        0.000000       -0.037788         1
        25        22        21        36     9      180.000000       -0.040135         2
        25        22        21        36     9        0.000000        0.606555         3
        25        22        21        36     9      180.000000       -0.017233         4
        25        22        23        37     9        0.000000       -0.037788         1
        25        22        23        37     9      180.000000       -0.040135         2
        25        22        23        37     9        0.000000        0.606555         3
        25        22        23        37     9      180.000000       -0.017233         4
        25        22        23        38     9        0.000000       -0.037788         1
        25        22        23        38     9      180.000000       -0.040135         2
        25        22        23        38     9        0.000000        0.606555         3
        25        22        23        38     9      180.000000       -0.017233         4
        26         3         1        45     9        0.000000       -0.076803         1
        26         3         1        45     9      180.000000       12.500209         2
        26         3         1        45     9        0.000000       -0.749261         3
        26         3         1        45     9      180.000000        0.339153         4
        29        13        14        30     9        0.000000       -0.221792         1
        29        13        14        30     9      180.000000       12.229485         2
        29        13        14        30     9        0.000000       -0.799146         3
        29        13        14        30     9      180.000000        0.311698         4
        31        16        17        32     9        0.000000       -0.221792         1
        31        16        17        32     9      180.000000       12.229485         2
        31        16        17        32     9        0.000000       -0.799146         3
        31        16        17        32     9      180.000000        0.311698         4
        33        20        21        35     9        0.000000       -0.032189         1
        33        20        21        35     9      180.000000       -0.004544         2
        33        20        21        35     9        0.000000        0.538502         3
        33        20        21        35     9      180.000000       -0.016416         4
        33        20        21        36     9        0.000000       -0.032189         1
        33        20        21        36     9      180.000000       -0.004544         2
        33        20        21        36     9        0.000000        0.538502         3
        33        20        21        36     9      180.000000       -0.016416         4
        34        20        21        35     9        0.000000       -0.032189         1
        34        20        21        35     9      180.000000       -0.004544         2
        34        20        21        35     9        0.000000        0.538502         3
        34        20        21        35     9      180.000000       -0.016416         4
        34        20        21        36     9        0.000000       -0.032189         1
        34        20        21        36     9      180.000000       -0.004544         2
        34        20        21        36     9        0.000000        0.538502         3
        34        20        21        36     9      180.000000       -0.016416         4
        35        21        22        44     9        0.000000       -0.057744         1
        35        21        22        44     9      180.000000        0.213497         2
        35        21        22        44     9        0.000000        0.435078         3
        35        21        22        44     9      180.000000        0.028072         4
        36        21        22        44     9        0.000000       -0.057744         1
        36        21        22        44     9      180.000000        0.213497         2
        36        21        22        44     9        0.000000        0.435078         3
        36        21        22        44     9      180.000000        0.028072         4
        37        23        22        44     9        0.000000       -0.057744         1
        37        23        22        44     9      180.000000        0.213497         2
        37        23        22        44     9        0.000000        0.435078         3
        37        23        22        44     9      180.000000        0.028072         4
        37        23        24        39     9        0.000000       -0.032189         1
        37        23        24        39     9      180.000000       -0.004543         2
        37        23        24        39     9        0.000000        0.538502         3
        37        23        24        39     9      180.000000       -0.016415         4
        37        23        24        40     9        0.000000       -0.032189         1
        37        23        24        40     9      180.000000       -0.004543         2
        37        23        24        40     9        0.000000        0.538502         3
        37        23        24        40     9      180.000000       -0.016415         4
        38        23        22        44     9        0.000000       -0.057744         1
        38        23        22        44     9      180.000000        0.213497         2
        38        23        22        44     9        0.000000        0.435078         3
        38        23        22        44     9      180.000000        0.028072         4
        38        23        24        39     9        0.000000       -0.032189         1
        38        23        24        39     9      180.000000       -0.004543         2
        38        23        24        39     9        0.000000        0.538502         3
        38        23        24        39     9      180.000000       -0.016415         4
        38        23        24        40     9        0.000000       -0.032189         1
        38        23        24        40     9      180.000000       -0.004543         2
        38        23        24        40     9        0.000000        0.538502         3
        38        23        24        40     9      180.000000       -0.016415         4
        41        25        22        44     9        0.000000       -0.213724         1
        41        25        22        44     9      180.000000        0.149132         2
        41        25        22        44     9        0.000000        0.556116         3
        41        25        22        44     9      180.000000        0.034026         4
        42        25        22        44     9        0.000000       -0.213724         1
        42        25        22        44     9      180.000000        0.149132         2
        42        25        22        44     9        0.000000        0.556116         3
        42        25        22        44     9      180.000000        0.034026         4
        43        25        22        44     9        0.000000       -0.213724         1
        43        25        22        44     9      180.000000        0.149132         2
        43        25        22        44     9        0.000000        0.556116         3
        43        25        22        44     9      180.000000        0.034026         4

[ dihedrals ] ; impropers
;       ai        aj        ak        al funct           phase               k        pn
         2         1         4         5     4      180.000000       12.826807         2
         2         4         5         1     4      180.000000       12.826807         2
         2         5         1         4     4      180.000000       12.826807         2
         8         4         9        10     4      180.000000       27.893333         2
         8         9        10         4     4      180.000000       27.893333         2
         8        10         4         9     4      180.000000       27.893333         2
        11         5         9        12     4      180.000000        9.194723         2
        11         9        12         5     4      180.000000        9.194723         2
        11        12         5         9     4      180.000000        9.194723         2

[ pairs ]
;       ai        aj funct
         1         7     1
         1         8     1
         1        11     1
         1        18     1
         2         6     1
         2         9     1
         2        10     1
         2        12     1
         2        26     1
         2        27     1
         3         4     1
         3         5     1
         3        27     1
         4        11     1
         4        18     1
         4        28     1
         4        45     1
         5         7     1
         5         8     1
         5        13     1
         5        17     1
         5        28     1
         5        45     1
         6         8     1
         6        45     1
         7         9     1
         7        10     1
         7        26     1
         8        12     1
         8        27     1
         9        13     1
         9        17     1
        10        11     1
        10        28     1
        11        14     1
        11        16     1
        11        29     1
        11        32     1
        12        15     1
        12        28     1
        12        30     1
        12        31     1
        13        16     1
        13        19     1
        13        32     1
        14        17     1
        14        20     1
        14        24     1
        14        31     1
        15        21     1
        15        23     1
        15        29     1
        15        32     1
        15        33     1
        15        34     1
        15        39     1
        15        40     1
        16        20     1
        16        24     1
        16        30     1
        17        19     1
        17        29     1
        18        26     1
        18        27     1
        19        22     1
        19        30     1
        19        31     1
        19        35     1
        19        36     1
        19        37     1
        19        38     1
        20        23     1
        20        25     1
        20        39     1
        20        40     1
        20        44     1
        21        24     1
        21        37     1
        21        38     1
        21        41     1
        21        42     1
        21        43     1
        22        33     1
        22        34     1
        22        39     1
        22        40     1
        23        35     1
        23        36     1
        23        41     1
        23        42     1
        23        43     1
        24        25     1
        24        33     1
        24        34     1
        24        44     1
        25        35     1
        25        36     1
        25        37     1
        25        38     1
        26        45     1
        29        30     1
        31        32     1
        33        35     1
        33        36     1
        34        35     1
        34        36     1
        35        44     1
        36        44     1
        37        39     1
        37        40     1
        37        44     1
        38        39     1
        38        40     1
        38        44     1
        41        44     1
        42        44     1
        43        44     1
