; ITP file created by ByteFF-ML, 2026-02-21 07:51:22.039788

[ atomtypes ]
;name           bonded.type        at.num        mass        charge   ptype           sigma         epsilon
 c0bf                                   6      0.0000       0.00000       A     3.31455e-01     4.13249e-01
 c1bf                                   6      0.0000       0.00000       A     3.31523e-01     4.11353e-01
 c2bf                                   6      0.0000       0.00000       A     3.31479e-01     4.12720e-01
 c3bf                                   6      0.0000       0.00000       A     3.31511e-01     4.13551e-01
 n4bf                                   7      0.0000       0.00000       A     3.38268e-01     3.93530e-01
 c5bf                                   6      0.0000       0.00000       A     3.31550e-01     4.13468e-01
 c6bf                                   6      0.0000       0.00000       A     3.31389e-01     4.12244e-01
 c7bf                                   6      0.0000       0.00000       A     3.31443e-01     4.12902e-01
 n8bf                                   7      0.0000       0.00000       A     3.26530e-01     5.01306e-01
 o9bf                                   8      0.0000       0.00000       A     3.04637e-01     6.12097e-01
 c10bf                                  6      0.0000       0.00000       A     3.31680e-01     4.10852e-01
 c11bf                                  6      0.0000       0.00000       A     3.31424e-01     4.12499e-01
 c12bf                                  6      0.0000       0.00000       A     3.31532e-01     4.13502e-01
 c13bf                                  6      0.0000       0.00000       A     3.31438e-01     4.12054e-01
 c14bf                                  6      0.0000       0.00000       A     3.31481e-01     4.13481e-01
 c15bf                                  6      0.0000       0.00000       A     3.31438e-01     4.12054e-01
 c16bf                                  6      0.0000       0.00000       A     3.31532e-01     4.13502e-01
 f17bf                                  9      0.0000       0.00000       A     3.03363e-01     3.47616e-01
 n18bf                                  7      0.0000       0.00000       A     3.18936e-01     9.01768e-01
 c19bf                                  6      0.0000       0.00000       A     3.39767e-01     4.52449e-01
 c20bf                                  6      0.0000       0.00000       A     3.39726e-01     4.51571e-01
 n21bf                                  7      0.0000       0.00000       A     3.36881e-01     3.59277e-01
 c22bf                                  6      0.0000       0.00000       A     3.39726e-01     4.51571e-01
 c23bf                                  6      0.0000       0.00000       A     3.39767e-01     4.52449e-01
 c24bf                                  6      0.0000       0.00000       A     3.39804e-01     4.50650e-01
 h25bf                                  1      0.0000       0.00000       A     2.62526e-01     6.75760e-02
 h26bf                                  1      0.0000       0.00000       A     2.62554e-01     6.72616e-02
 h27bf                                  1      0.0000       0.00000       A     1.10472e-01     4.18202e-02
 h28bf                                  1      0.0000       0.00000       A     2.62561e-01     6.76175e-02
 h29bf                                  1      0.0000       0.00000       A     2.62519e-01     6.74738e-02
 h30bf                                  1      0.0000       0.00000       A     2.62519e-01     6.74738e-02
 h31bf                                  1      0.0000       0.00000       A     2.62561e-01     6.76175e-02
 h32bf                                  1      0.0000       0.00000       A     2.42118e-01     8.75061e-02
 h33bf                                  1      0.0000       0.00000       A     2.42118e-01     8.75045e-02
 h34bf                                  1      0.0000       0.00000       A     2.42183e-01     8.76450e-02
 h35bf                                  1      0.0000       0.00000       A     2.42183e-01     8.76450e-02
 h36bf                                  1      0.0000       0.00000       A     2.42183e-01     8.76450e-02
 h37bf                                  1      0.0000       0.00000       A     2.42183e-01     8.76450e-02
 h38bf                                  1      0.0000       0.00000       A     2.42118e-01     8.75045e-02
 h39bf                                  1      0.0000       0.00000       A     2.42118e-01     8.75045e-02
 h40bf                                  1      0.0000       0.00000       A     2.42032e-01     8.74215e-02
 h41bf                                  1      0.0000       0.00000       A     2.42032e-01     8.74215e-02
 h42bf                                  1      0.0000       0.00000       A     2.42032e-01     8.74215e-02
 h43bf                                  1      0.0000       0.00000       A     2.62502e-01     6.68785e-02

[ moleculetype ]
;name             nrexcl
 8a_neutral            3

[ atoms ]
;       nr            type      resi   res      atom      cgnr      charge          mass ; qtot
         1            c0bf         1   UNL        c0         1    -0.07992       12.0110 ; qtot   -0.080
         2            c1bf         1   UNL        c1         2     0.17862       12.0110 ; qtot    0.099
         3            c2bf         1   UNL        c2         3    -0.10747       12.0110 ; qtot   -0.009
         4            c3bf         1   UNL        c3         4    -0.18463       12.0110 ; qtot   -0.193
         5            n4bf         1   UNL        n4         5    -0.62404       14.0070 ; qtot   -0.817
         6            c5bf         1   UNL        c5         6     0.14301       12.0110 ; qtot   -0.674
         7            c6bf         1   UNL        c6         7    -0.07487       12.0110 ; qtot   -0.749
         8            c7bf         1   UNL        c7         8     0.57197       12.0110 ; qtot   -0.177
         9            n8bf         1   UNL        n8         9    -0.42614       14.0070 ; qtot   -0.603
        10            o9bf         1   UNL        o9        10    -0.53280       15.9990 ; qtot   -1.136
        11           c10bf         1   UNL       c10        11     0.56425       12.0110 ; qtot   -0.572
        12           c11bf         1   UNL       c11        12    -0.19719       12.0110 ; qtot   -0.769
        13           c12bf         1   UNL       c12        13    -0.02922       12.0110 ; qtot   -0.798
        14           c13bf         1   UNL       c13        14    -0.19480       12.0110 ; qtot   -0.993
        15           c14bf         1   UNL       c14        15     0.34286       12.0110 ; qtot   -0.650
        16           c15bf         1   UNL       c15        16    -0.19480       12.0110 ; qtot   -0.845
        17           c16bf         1   UNL       c16        17    -0.02922       12.0110 ; qtot   -0.874
        18           f17bf         1   UNL       f17        18    -0.17355       18.9980 ; qtot   -1.048
        19           n18bf         1   UNL       n18        19    -0.81208       14.0070 ; qtot   -1.860
        20           c19bf         1   UNL       c19        20     0.19085       12.0110 ; qtot   -1.669
        21           c20bf         1   UNL       c20        21     0.14865       12.0110 ; qtot   -1.521
        22           n21bf         1   UNL       n21        22    -0.72137       14.0070 ; qtot   -2.242
        23           c22bf         1   UNL       c22        23     0.14865       12.0110 ; qtot   -2.093
        24           c23bf         1   UNL       c23        24     0.19085       12.0110 ; qtot   -1.902
        25           c24bf         1   UNL       c24        25     0.14955       12.0110 ; qtot   -1.753
        26           h25bf         1   UNL       h25        26     0.13748        1.0080 ; qtot   -1.615
        27           h26bf         1   UNL       h26        27     0.15769        1.0080 ; qtot   -1.458
        28           h27bf         1   UNL       h27        28     0.33464        1.0080 ; qtot   -1.123
        29           h28bf         1   UNL       h28        29     0.12534        1.0080 ; qtot   -0.998
        30           h29bf         1   UNL       h29        30     0.11969        1.0080 ; qtot   -0.878
        31           h30bf         1   UNL       h30        31     0.11969        1.0080 ; qtot   -0.758
        32           h31bf         1   UNL       h31        32     0.12534        1.0080 ; qtot   -0.633
        33           h32bf         1   UNL       h32        33     0.05049        1.0080 ; qtot   -0.582
        34           h33bf         1   UNL       h33        34     0.05049        1.0080 ; qtot   -0.532
        35           h34bf         1   UNL       h34        35     0.04858        1.0080 ; qtot   -0.483
        36           h35bf         1   UNL       h35        36     0.04858        1.0080 ; qtot   -0.435
        37           h36bf         1   UNL       h36        37     0.04858        1.0080 ; qtot   -0.386
        38           h37bf         1   UNL       h37        38     0.04858        1.0080 ; qtot   -0.338
        39           h38bf         1   UNL       h38        39     0.05049        1.0080 ; qtot   -0.287
        40           h39bf         1   UNL       h39        40     0.05049        1.0080 ; qtot   -0.237
        41           h40bf         1   UNL       h40        41     0.03202        1.0080 ; qtot   -0.205
        42           h41bf         1   UNL       h41        42     0.03202        1.0080 ; qtot   -0.173
        43           h42bf         1   UNL       h42        43     0.03202        1.0080 ; qtot   -0.141
        44           h43bf         1   UNL       h43        44     0.14063        1.0080 ; qtot   -0.000

[ bonds ]
;       ai        aj funct               r               k
         1         2     1        0.141242   282180.002246
         1         3     1        0.138654   340316.968262
         1        44     1        0.108500   324670.023828
         2         4     1        0.141626   264519.175830
         2         5     1        0.138695   253750.866309
         3         6     1        0.140538   281854.787158
         3        26     1        0.108501   324944.649902
         4         7     1        0.140519   295055.097754
         4         8     1        0.146855   200493.045947
         5        11     1        0.130004   426514.722949
         6         7     1        0.138110   324084.457910
         6        18     1        0.135532   291594.768359
         7        27     1        0.108412   327725.053760
         8         9     1        0.140209   208674.101538
         8        10     1        0.122840   610002.377930
         9        11     1        0.137908   255004.968213
         9        28     1        0.101480   412787.019971
        11        12     1        0.147900   204541.622656
        12        13     1        0.140583   286763.274951
        12        17     1        0.140583   286763.274951
        13        14     1        0.138961   339037.584619
        13        29     1        0.108551   319954.187988
        14        15     1        0.141616   264903.637012
        14        30     1        0.108379   323172.042529
        15        16     1        0.141616   264903.637012
        15        19     1        0.139051   277338.677051
        16        17     1        0.138961   339037.584619
        16        31     1        0.108379   323172.042529
        17        32     1        0.108551   319954.187988
        19        20     1        0.146497   191681.913257
        19        24     1        0.146497   191681.926025
        20        21     1        0.153040   181937.054468
        20        33     1        0.109618   289568.577490
        20        34     1        0.109618   289568.577490
        21        22     1        0.146846   189829.936548
        21        35     1        0.109855   284032.132178
        21        36     1        0.109855   284032.132178
        22        23     1        0.146846   189829.936548
        22        25     1        0.145855   210962.903271
        23        24     1        0.153040   181937.054468
        23        37     1        0.109855   284032.132178
        23        38     1        0.109855   284032.132178
        24        39     1        0.109618   289568.577490
        24        40     1        0.109618   289568.577490
        25        41     1        0.109819   287391.717676
        25        42     1        0.109819   287391.717676
        25        43     1        0.109819   287391.717676

[ angles ]
;       ai        aj        ak funct           theta             cth
         1         2         4     1      118.469994      611.724345
         1         2         5     1      118.535484      425.812657
         1         3         6     1      119.133240      685.589030
         1         3        26     1      121.615135      428.074032
         2         1         3     1      120.620567      694.497331
         2         1        44     1      118.197289      455.692671
         2         4         7     1      120.973595      716.910230
         2         4         8     1      119.041054      848.109683
         2         5        11     1      118.102127      316.933563
         3         1        44     1      121.101906      427.576664
         3         6         7     1      122.498901      617.579174
         3         6        18     1      117.991562      604.150677
         4         2         5     1      122.976463      728.567985
         4         7         6     1      118.185379      594.630379
         4         7        27     1      119.988426      417.862093
         4         8         9     1      112.829361      617.312503
         4         8        10     1      126.287453      458.326057
         5        11         9     1      122.649086      510.787707
         5        11        12     1      120.165771      398.495675
         6         3        26     1      119.244308      457.692354
         6         7        27     1      121.657227      423.525904
         7         4         8     1      119.717651      483.344029
         7         6        18     1      119.387344      492.734024
         8         9        11     1      124.979759      718.020009
         8         9        28     1      114.834351      511.166806
         9         8        10     1      120.490158      783.518034
         9        11        12     1      117.548645      655.391717
        11         9        28     1      120.328003      426.351937
        11        12        13     1      121.074303      547.512688
        11        12        17     1      121.074303      547.512688
        12        13        14     1      121.288467      644.073223
        12        13        29     1      119.803467      416.855548
        12        17        16     1      121.288467      644.073223
        12        17        32     1      119.803467      416.855548
        13        12        17     1      117.634262      518.417781
        13        14        15     1      120.888405      763.696705
        13        14        30     1      118.808350      438.009787
        14        13        29     1      118.953079      417.877160
        14        15        16     1      117.215919      557.251201
        14        15        19     1      121.280319      576.609671
        15        14        30     1      120.286636      434.141649
        15        16        17     1      120.888405      763.696705
        15        16        31     1      120.286636      434.141585
        15        19        20     1      119.981064      536.985015
        15        19        24     1      119.981064      536.985015
        16        15        19     1      121.280319      576.609671
        16        17        32     1      118.953079      417.877160
        17        16        31     1      118.808350      438.009787
        19        20        21     1      110.315208      663.395302
        19        20        33     1      110.141891      415.487748
        19        20        34     1      110.141891      415.487748
        19        24        23     1      110.315208      663.395366
        19        24        39     1      110.141891      415.487748
        19        24        40     1      110.141891      415.487748
        20        19        24     1      114.243774      455.231503
        20        21        22     1      112.047012      670.546331
        20        21        35     1      108.913353      514.597078
        20        21        36     1      108.913353      514.597078
        21        20        33     1      109.526230      520.420752
        21        20        34     1      109.526230      520.420752
        21        22        23     1      111.247047      550.796441
        21        22        25     1      112.481277      642.407054
        22        21        35     1      109.738205      431.618582
        22        21        36     1      109.738205      431.618582
        22        23        24     1      112.047012      670.546268
        22        23        37     1      109.738197      431.618582
        22        23        38     1      109.738197      431.618582
        22        25        41     1      110.978455      478.857670
        22        25        42     1      110.978455      478.857670
        22        25        43     1      110.978455      478.857670
        23        22        25     1      112.481277      642.407054
        23        24        39     1      109.526230      520.420752
        23        24        40     1      109.526230      520.420752
        24        23        37     1      108.913353      514.597110
        24        23        38     1      108.913353      514.597110
        33        20        34     1      107.371933      347.556420
        35        21        36     1      107.131004      345.529731
        37        23        38     1      107.131004      345.529699
        39        24        40     1      107.371933      347.556420
        41        25        42     1      107.973389      349.240656
        41        25        43     1      107.973389      349.240656
        42        25        43     1      107.973389      349.240656

[ dihedrals ] ; propers for gromacs 4.5 or higher, use funct 9
;       ai        aj        ak        al funct           phase               k        pn
         1         2         4         7     9        0.000000        0.014116         1
         1         2         4         7     9      180.000000       13.025916         2
         1         2         4         7     9        0.000000       -1.016227         3
         1         2         4         7     9      180.000000       -0.124746         4
         1         2         4         8     9        0.000000        0.278735         1
         1         2         4         8     9      180.000000       11.507690         2
         1         2         4         8     9        0.000000       -0.310180         3
         1         2         4         8     9      180.000000       -0.170338         4
         1         2         5        11     9        0.000000       -0.243089         1
         1         2         5        11     9      180.000000        7.066778         2
         1         2         5        11     9        0.000000        1.088329         3
         1         2         5        11     9      180.000000       -0.143681         4
         1         3         6         7     9        0.000000       -0.144327         1
         1         3         6         7     9      180.000000       15.664061         2
         1         3         6         7     9        0.000000       -1.119142         3
         1         3         6         7     9      180.000000       -0.231264         4
         1         3         6        18     9        0.000000        0.547841         1
         1         3         6        18     9      180.000000       21.137851         2
         1         3         6        18     9        0.000000        0.508525         3
         1         3         6        18     9      180.000000       -0.557490         4
         2         1         3         6     9        0.000000       -0.153190         1
         2         1         3         6     9      180.000000       20.309492         2
         2         1         3         6     9        0.000000       -1.394836         3
         2         1         3         6     9      180.000000       -0.494587         4
         2         1         3        26     9        0.000000        0.061904         1
         2         1         3        26     9      180.000000       15.252624         2
         2         1         3        26     9        0.000000       -0.382992         3
         2         1         3        26     9      180.000000        0.067840         4
         2         4         7         6     9        0.000000       -0.151816         1
         2         4         7         6     9      180.000000       17.431431         2
         2         4         7         6     9        0.000000       -1.292418         3
         2         4         7         6     9      180.000000       -0.270018         4
         2         4         7        27     9        0.000000        0.148686         1
         2         4         7        27     9      180.000000       12.257432         2
         2         4         7        27     9        0.000000       -0.338211         3
         2         4         7        27     9      180.000000        0.044436         4
         2         4         8         9     9        0.000000        0.173418         1
         2         4         8         9     9      180.000000        4.101547         2
         2         4         8         9     9        0.000000        0.212728         3
         2         4         8         9     9      180.000000        0.078310         4
         2         4         8        10     9        0.000000       -0.052563         1
         2         4         8        10     9      180.000000        7.922623         2
         2         4         8        10     9        0.000000        0.143609         3
         2         4         8        10     9      180.000000       -0.418474         4
         2         5        11         9     9        0.000000       -0.325405         1
         2         5        11         9     9      180.000000       36.740143         2
         2         5        11         9     9        0.000000       -0.417165         3
         2         5        11         9     9      180.000000       -1.076339         4
         2         5        11        12     9        0.000000        0.778502         1
         2         5        11        12     9      180.000000       30.707205         2
         2         5        11        12     9        0.000000        1.279556         3
         2         5        11        12     9      180.000000       -1.278451         4
         3         1         2         4     9        0.000000       -0.120942         1
         3         1         2         4     9      180.000000       16.339837         2
         3         1         2         4     9        0.000000       -1.070513         3
         3         1         2         4     9      180.000000       -0.308968         4
         3         1         2         5     9        0.000000        0.396286         1
         3         1         2         5     9      180.000000       16.611044         2
         3         1         2         5     9        0.000000        0.197530         3
         3         1         2         5     9      180.000000       -0.350107         4
         3         6         7         4     9        0.000000       -0.050637         1
         3         6         7         4     9      180.000000       17.894635         2
         3         6         7         4     9        0.000000       -1.077146         3
         3         6         7         4     9      180.000000       -0.421424         4
         3         6         7        27     9        0.000000        0.125035         1
         3         6         7        27     9      180.000000       13.539666         2
         3         6         7        27     9        0.000000       -0.353982         3
         3         6         7        27     9      180.000000        0.131342         4
         4         2         1        44     9        0.000000       -0.094085         1
         4         2         1        44     9      180.000000       12.498557         2
         4         2         1        44     9        0.000000       -0.299986         3
         4         2         1        44     9      180.000000       -0.003365         4
         4         2         5        11     9        0.000000        0.516837         1
         4         2         5        11     9      180.000000        5.669485         2
         4         2         5        11     9        0.000000        1.056609         3
         4         2         5        11     9      180.000000       -0.170265         4
         4         7         6        18     9        0.000000        0.273527         1
         4         7         6        18     9      180.000000       23.199506         2
         4         7         6        18     9        0.000000        0.571326         3
         4         7         6        18     9      180.000000       -0.779268         4
         4         8         9        11     9        0.000000       -0.318778         1
         4         8         9        11     9      180.000000        3.512049         2
         4         8         9        11     9        0.000000        0.161381         3
         4         8         9        11     9      180.000000        0.116764         4
         4         8         9        28     9        0.000000       -0.739572         1
         4         8         9        28     9      180.000000        6.985507         2
         4         8         9        28     9        0.000000        0.038341         3
         4         8         9        28     9      180.000000       -0.079136         4
         5         2         1        44     9        0.000000        0.216113         1
         5         2         1        44     9      180.000000       13.948926         2
         5         2         1        44     9        0.000000       -0.242494         3
         5         2         1        44     9      180.000000        0.095568         4
         5         2         4         7     9        0.000000        0.215899         1
         5         2         4         7     9      180.000000       13.778960         2
         5         2         4         7     9        0.000000       -0.064091         3
         5         2         4         7     9      180.000000       -0.219651         4
         5         2         4         8     9        0.000000        0.588874         1
         5         2         4         8     9      180.000000       12.206564         2
         5         2         4         8     9        0.000000        0.608649         3
         5         2         4         8     9      180.000000       -0.527140         4
         5        11         9         8     9        0.000000       -0.069284         1
         5        11         9         8     9      180.000000        7.200725         2
         5        11         9         8     9        0.000000        0.180142         3
         5        11         9         8     9      180.000000       -0.226268         4
         5        11         9        28     9        0.000000        1.385951         1
         5        11         9        28     9      180.000000        6.868330         2
         5        11         9        28     9        0.000000       -0.290598         3
         5        11         9        28     9      180.000000       -0.133254         4
         5        11        12        13     9        0.000000        0.049138         1
         5        11        12        13     9      180.000000        4.006801         2
         5        11        12        13     9        0.000000        0.013624         3
         5        11        12        13     9      180.000000       -0.067434         4
         5        11        12        17     9        0.000000        0.049138         1
         5        11        12        17     9      180.000000        4.006801         2
         5        11        12        17     9        0.000000        0.013624         3
         5        11        12        17     9      180.000000       -0.067434         4
         6         3         1        44     9        0.000000        0.051233         1
         6         3         1        44     9      180.000000       15.797575         2
         6         3         1        44     9        0.000000       -0.624662         3
         6         3         1        44     9      180.000000        0.136675         4
         6         7         4         8     9        0.000000        0.133589         1
         6         7         4         8     9      180.000000       14.055276         2
         6         7         4         8     9        0.000000       -0.217773         3
         6         7         4         8     9      180.000000       -0.238045         4
         7         4         8         9     9        0.000000       -0.215600         1
         7         4         8         9     9      180.000000        4.582441         2
         7         4         8         9     9        0.000000        0.346544         3
         7         4         8         9     9      180.000000        0.081039         4
         7         4         8        10     9        0.000000       -1.074103         1
         7         4         8        10     9      180.000000        6.486290         2
         7         4         8        10     9        0.000000       -0.078736         3
         7         4         8        10     9      180.000000       -0.049906         4
         7         6         3        26     9        0.000000       -0.005250         1
         7         6         3        26     9      180.000000       12.331273         2
         7         6         3        26     9        0.000000       -0.492858         3
         7         6         3        26     9      180.000000        0.109146         4
         8         4         7        27     9        0.000000        0.081035         1
         8         4         7        27     9      180.000000       10.990811         2
         8         4         7        27     9        0.000000       -0.361514         3
         8         4         7        27     9      180.000000        0.075766         4
         8         9        11        12     9        0.000000        0.213660         1
         8         9        11        12     9      180.000000        7.493434         2
         8         9        11        12     9        0.000000        0.185690         3
         8         9        11        12     9      180.000000       -0.354360         4
         9        11        12        13     9        0.000000        0.117674         1
         9        11        12        13     9      180.000000        4.149524         2
         9        11        12        13     9        0.000000        0.231764         3
         9        11        12        13     9      180.000000       -0.295496         4
         9        11        12        17     9        0.000000        0.117674         1
         9        11        12        17     9      180.000000        4.149524         2
         9        11        12        17     9        0.000000        0.231764         3
         9        11        12        17     9      180.000000       -0.295496         4
        10         8         9        11     9        0.000000       -0.496913         1
        10         8         9        11     9      180.000000        9.460009         2
        10         8         9        11     9        0.000000       -0.299086         3
        10         8         9        11     9      180.000000       -0.417326         4
        10         8         9        28     9        0.000000        0.204914         1
        10         8         9        28     9      180.000000       10.108021         2
        10         8         9        28     9        0.000000       -0.546979         3
        10         8         9        28     9      180.000000        0.236694         4
        11        12        13        14     9        0.000000        0.022694         1
        11        12        13        14     9      180.000000       14.583240         2
        11        12        13        14     9        0.000000       -0.452299         3
        11        12        13        14     9      180.000000       -0.223085         4
        11        12        13        29     9        0.000000        0.040682         1
        11        12        13        29     9      180.000000       12.142936         2
        11        12        13        29     9        0.000000       -0.341646         3
        11        12        13        29     9      180.000000        0.136723         4
        11        12        17        16     9        0.000000        0.022694         1
        11        12        17        16     9      180.000000       14.583240         2
        11        12        17        16     9        0.000000       -0.452299         3
        11        12        17        16     9      180.000000       -0.223085         4
        11        12        17        32     9        0.000000        0.040682         1
        11        12        17        32     9      180.000000       12.142936         2
        11        12        17        32     9        0.000000       -0.341646         3
        11        12        17        32     9      180.000000        0.136723         4
        12        11         9        28     9        0.000000       -0.544648         1
        12        11         9        28     9      180.000000        6.129727         2
        12        11         9        28     9        0.000000       -0.158413         3
        12        11         9        28     9      180.000000       -0.139057         4
        12        13        14        15     9        0.000000       -0.054377         1
        12        13        14        15     9      180.000000       18.906658         2
        12        13        14        15     9        0.000000       -1.654592         3
        12        13        14        15     9      180.000000       -0.465241         4
        12        13        14        30     9        0.000000       -0.049868         1
        12        13        14        30     9      180.000000       15.047537         2
        12        13        14        30     9        0.000000       -0.572385         3
        12        13        14        30     9      180.000000        0.082000         4
        12        17        16        15     9        0.000000       -0.054377         1
        12        17        16        15     9      180.000000       18.906658         2
        12        17        16        15     9        0.000000       -1.654592         3
        12        17        16        15     9      180.000000       -0.465241         4
        12        17        16        31     9        0.000000       -0.049868         1
        12        17        16        31     9      180.000000       15.047537         2
        12        17        16        31     9        0.000000       -0.572385         3
        12        17        16        31     9      180.000000        0.082000         4
        13        12        17        16     9        0.000000       -0.090906         1
        13        12        17        16     9      180.000000       17.450760         2
        13        12        17        16     9        0.000000       -1.542977         3
        13        12        17        16     9      180.000000       -0.344982         4
        13        12        17        32     9        0.000000       -0.039846         1
        13        12        17        32     9      180.000000       13.702704         2
        13        12        17        32     9        0.000000       -0.634208         3
        13        12        17        32     9      180.000000        0.055935         4
        13        14        15        16     9        0.000000        0.022525         1
        13        14        15        16     9      180.000000       14.082748         2
        13        14        15        16     9        0.000000       -0.602073         3
        13        14        15        16     9      180.000000       -0.186373         4
        13        14        15        19     9        0.000000        0.279286         1
        13        14        15        19     9      180.000000       15.767374         2
        13        14        15        19     9        0.000000        0.101603         3
        13        14        15        19     9      180.000000       -0.394083         4
        14        13        12        17     9        0.000000       -0.090906         1
        14        13        12        17     9      180.000000       17.450760         2
        14        13        12        17     9        0.000000       -1.542977         3
        14        13        12        17     9      180.000000       -0.344982         4
        14        15        16        17     9        0.000000        0.022525         1
        14        15        16        17     9      180.000000       14.082748         2
        14        15        16        17     9        0.000000       -0.602073         3
        14        15        16        17     9      180.000000       -0.186373         4
        14        15        16        31     9        0.000000       -0.027058         1
        14        15        16        31     9      180.000000       11.704251         2
        14        15        16        31     9        0.000000       -0.405726         3
        14        15        16        31     9      180.000000        0.181529         4
        14        15        19        20     9        0.000000        0.140942         1
        14        15        19        20     9      180.000000        6.627623         2
        14        15        19        20     9        0.000000        0.152326         3
        14        15        19        20     9      180.000000        0.230873         4
        14        15        19        24     9        0.000000        0.140942         1
        14        15        19        24     9      180.000000        6.627622         2
        14        15        19        24     9        0.000000        0.152326         3
        14        15        19        24     9      180.000000        0.230873         4
        15        14        13        29     9        0.000000        0.032778         1
        15        14        13        29     9      180.000000       14.772255         2
        15        14        13        29     9        0.000000       -0.550985         3
        15        14        13        29     9      180.000000        0.113698         4
        15        16        17        32     9        0.000000        0.032778         1
        15        16        17        32     9      180.000000       14.772255         2
        15        16        17        32     9        0.000000       -0.550985         3
        15        16        17        32     9      180.000000        0.113698         4
        15        19        20        21     9        0.000000        1.263260         1
        15        19        20        21     9      180.000000        0.283848         2
        15        19        20        21     9        0.000000        0.408662         3
        15        19        20        21     9      180.000000        0.116569         4
        15        19        20        33     9        0.000000       -0.028087         1
        15        19        20        33     9      180.000000       -0.181531         2
        15        19        20        33     9        0.000000        0.477016         3
        15        19        20        33     9      180.000000       -0.040993         4
        15        19        20        34     9        0.000000       -0.028086         1
        15        19        20        34     9      180.000000       -0.181530         2
        15        19        20        34     9        0.000000        0.477016         3
        15        19        20        34     9      180.000000       -0.040993         4
        15        19        24        23     9        0.000000        1.263260         1
        15        19        24        23     9      180.000000        0.283849         2
        15        19        24        23     9        0.000000        0.408662         3
        15        19        24        23     9      180.000000        0.116570         4
        15        19        24        39     9        0.000000       -0.028087         1
        15        19        24        39     9      180.000000       -0.181531         2
        15        19        24        39     9        0.000000        0.477016         3
        15        19        24        39     9      180.000000       -0.040993         4
        15        19        24        40     9        0.000000       -0.028087         1
        15        19        24        40     9      180.000000       -0.181531         2
        15        19        24        40     9        0.000000        0.477016         3
        15        19        24        40     9      180.000000       -0.040993         4
        16        15        14        30     9        0.000000       -0.027058         1
        16        15        14        30     9      180.000000       11.704251         2
        16        15        14        30     9        0.000000       -0.405726         3
        16        15        14        30     9      180.000000        0.181529         4
        16        15        19        20     9        0.000000        0.140942         1
        16        15        19        20     9      180.000000        6.627623         2
        16        15        19        20     9        0.000000        0.152326         3
        16        15        19        20     9      180.000000        0.230873         4
        16        15        19        24     9        0.000000        0.140942         1
        16        15        19        24     9      180.000000        6.627622         2
        16        15        19        24     9        0.000000        0.152326         3
        16        15        19        24     9      180.000000        0.230873         4
        17        12        13        29     9        0.000000       -0.039846         1
        17        12        13        29     9      180.000000       13.702704         2
        17        12        13        29     9        0.000000       -0.634208         3
        17        12        13        29     9      180.000000        0.055935         4
        17        16        15        19     9        0.000000        0.279286         1
        17        16        15        19     9      180.000000       15.767374         2
        17        16        15        19     9        0.000000        0.101603         3
        17        16        15        19     9      180.000000       -0.394083         4
        18         6         3        26     9        0.000000        0.258364         1
        18         6         3        26     9      180.000000       14.685376         2
        18         6         3        26     9        0.000000        0.207204         3
        18         6         3        26     9      180.000000        0.209778         4
        18         6         7        27     9        0.000000        0.241037         1
        18         6         7        27     9      180.000000       16.226538         2
        18         6         7        27     9        0.000000        0.331559         3
        18         6         7        27     9      180.000000        0.192073         4
        19        15        14        30     9        0.000000       -0.011492         1
        19        15        14        30     9      180.000000       12.855229         2
        19        15        14        30     9        0.000000       -0.130314         3
        19        15        14        30     9      180.000000        0.154743         4
        19        15        16        31     9        0.000000       -0.011492         1
        19        15        16        31     9      180.000000       12.855229         2
        19        15        16        31     9        0.000000       -0.130314         3
        19        15        16        31     9      180.000000        0.154743         4
        19        20        21        22     9        0.000000        2.287906         1
        19        20        21        22     9      180.000000       -1.886596         2
        19        20        21        22     9        0.000000        0.534849         3
        19        20        21        22     9      180.000000       -0.040225         4
        19        20        21        35     9        0.000000       -0.197504         1
        19        20        21        35     9      180.000000        0.129031         2
        19        20        21        35     9        0.000000        0.655199         3
        19        20        21        35     9      180.000000       -0.001514         4
        19        20        21        36     9        0.000000       -0.197504         1
        19        20        21        36     9      180.000000        0.129031         2
        19        20        21        36     9        0.000000        0.655199         3
        19        20        21        36     9      180.000000       -0.001514         4
        19        24        23        22     9        0.000000        2.287906         1
        19        24        23        22     9      180.000000       -1.886597         2
        19        24        23        22     9        0.000000        0.534849         3
        19        24        23        22     9      180.000000       -0.040225         4
        19        24        23        37     9        0.000000       -0.197504         1
        19        24        23        37     9      180.000000        0.129031         2
        19        24        23        37     9        0.000000        0.655200         3
        19        24        23        37     9      180.000000       -0.001514         4
        19        24        23        38     9        0.000000       -0.197504         1
        19        24        23        38     9      180.000000        0.129031         2
        19        24        23        38     9        0.000000        0.655200         3
        19        24        23        38     9      180.000000       -0.001514         4
        20        19        24        23     9        0.000000        5.197575         1
        20        19        24        23     9      180.000000       -5.467057         2
        20        19        24        23     9        0.000000        0.639930         3
        20        19        24        23     9      180.000000        0.754347         4
        20        19        24        39     9        0.000000       -0.052184         1
        20        19        24        39     9      180.000000        0.085309         2
        20        19        24        39     9        0.000000        0.800907         3
        20        19        24        39     9      180.000000       -0.007865         4
        20        19        24        40     9        0.000000       -0.052184         1
        20        19        24        40     9      180.000000        0.085309         2
        20        19        24        40     9        0.000000        0.800907         3
        20        19        24        40     9      180.000000       -0.007865         4
        20        21        22        23     9        0.000000        2.826795         1
        20        21        22        23     9      180.000000       -2.760174         2
        20        21        22        23     9        0.000000        0.765652         3
        20        21        22        23     9      180.000000        0.429433         4
        20        21        22        25     9        0.000000       -0.209579         1
        20        21        22        25     9      180.000000        2.048876         2
        20        21        22        25     9        0.000000        2.073453         3
        20        21        22        25     9      180.000000        0.193096         4
        21        20        19        24     9        0.000000        5.197575         1
        21        20        19        24     9      180.000000       -5.467057         2
        21        20        19        24     9        0.000000        0.639930         3
        21        20        19        24     9      180.000000        0.754348         4
        21        22        23        24     9        0.000000        2.826795         1
        21        22        23        24     9      180.000000       -2.760174         2
        21        22        23        24     9        0.000000        0.765653         3
        21        22        23        24     9      180.000000        0.429433         4
        21        22        23        37     9        0.000000       -0.058920         1
        21        22        23        37     9      180.000000        0.057332         2
        21        22        23        37     9        0.000000        0.687100         3
        21        22        23        37     9      180.000000       -0.022125         4
        21        22        23        38     9        0.000000       -0.058920         1
        21        22        23        38     9      180.000000        0.057332         2
        21        22        23        38     9        0.000000        0.687100         3
        21        22        23        38     9      180.000000       -0.022125         4
        21        22        25        41     9        0.000000       -0.068715         1
        21        22        25        41     9      180.000000        0.033281         2
        21        22        25        41     9        0.000000        0.890858         3
        21        22        25        41     9      180.000000        0.023226         4
        21        22        25        42     9        0.000000       -0.068715         1
        21        22        25        42     9      180.000000        0.033281         2
        21        22        25        42     9        0.000000        0.890858         3
        21        22        25        42     9      180.000000        0.023226         4
        21        22        25        43     9        0.000000       -0.068715         1
        21        22        25        43     9      180.000000        0.033281         2
        21        22        25        43     9        0.000000        0.890858         3
        21        22        25        43     9      180.000000        0.023226         4
        22        21        20        33     9        0.000000       -0.036484         1
        22        21        20        33     9      180.000000        0.065780         2
        22        21        20        33     9        0.000000        0.474577         3
        22        21        20        33     9      180.000000        0.043908         4
        22        21        20        34     9        0.000000       -0.036483         1
        22        21        20        34     9      180.000000        0.065780         2
        22        21        20        34     9        0.000000        0.474577         3
        22        21        20        34     9      180.000000        0.043908         4
        22        23        24        39     9        0.000000       -0.036484         1
        22        23        24        39     9      180.000000        0.065780         2
        22        23        24        39     9        0.000000        0.474577         3
        22        23        24        39     9      180.000000        0.043908         4
        22        23        24        40     9        0.000000       -0.036484         1
        22        23        24        40     9      180.000000        0.065780         2
        22        23        24        40     9        0.000000        0.474577         3
        22        23        24        40     9      180.000000        0.043908         4
        23        22        21        35     9        0.000000       -0.058921         1
        23        22        21        35     9      180.000000        0.057332         2
        23        22        21        35     9        0.000000        0.687100         3
        23        22        21        35     9      180.000000       -0.022125         4
        23        22        21        36     9        0.000000       -0.058921         1
        23        22        21        36     9      180.000000        0.057332         2
        23        22        21        36     9        0.000000        0.687100         3
        23        22        21        36     9      180.000000       -0.022125         4
        23        22        25        41     9        0.000000       -0.068715         1
        23        22        25        41     9      180.000000        0.033282         2
        23        22        25        41     9        0.000000        0.890858         3
        23        22        25        41     9      180.000000        0.023226         4
        23        22        25        42     9        0.000000       -0.068715         1
        23        22        25        42     9      180.000000        0.033282         2
        23        22        25        42     9        0.000000        0.890858         3
        23        22        25        42     9      180.000000        0.023226         4
        23        22        25        43     9        0.000000       -0.068715         1
        23        22        25        43     9      180.000000        0.033282         2
        23        22        25        43     9        0.000000        0.890858         3
        23        22        25        43     9      180.000000        0.023226         4
        24        19        20        33     9        0.000000       -0.052183         1
        24        19        20        33     9      180.000000        0.085309         2
        24        19        20        33     9        0.000000        0.800907         3
        24        19        20        33     9      180.000000       -0.007865         4
        24        19        20        34     9        0.000000       -0.052183         1
        24        19        20        34     9      180.000000        0.085309         2
        24        19        20        34     9        0.000000        0.800907         3
        24        19        20        34     9      180.000000       -0.007865         4
        24        23        22        25     9        0.000000       -0.209578         1
        24        23        22        25     9      180.000000        2.048877         2
        24        23        22        25     9        0.000000        2.073453         3
        24        23        22        25     9      180.000000        0.193095         4
        25        22        21        35     9        0.000000       -0.060675         1
        25        22        21        35     9      180.000000       -0.146748         2
        25        22        21        35     9        0.000000        1.849286         3
        25        22        21        35     9      180.000000        0.007914         4
        25        22        21        36     9        0.000000       -0.060675         1
        25        22        21        36     9      180.000000       -0.146748         2
        25        22        21        36     9        0.000000        1.849286         3
        25        22        21        36     9      180.000000        0.007914         4
        25        22        23        37     9        0.000000       -0.060675         1
        25        22        23        37     9      180.000000       -0.146746         2
        25        22        23        37     9        0.000000        1.849286         3
        25        22        23        37     9      180.000000        0.007915         4
        25        22        23        38     9        0.000000       -0.060675         1
        25        22        23        38     9      180.000000       -0.146746         2
        25        22        23        38     9        0.000000        1.849286         3
        25        22        23        38     9      180.000000        0.007915         4
        26         3         1        44     9        0.000000       -0.076803         1
        26         3         1        44     9      180.000000       12.500209         2
        26         3         1        44     9        0.000000       -0.749261         3
        26         3         1        44     9      180.000000        0.339153         4
        29        13        14        30     9        0.000000       -0.221792         1
        29        13        14        30     9      180.000000       12.229485         2
        29        13        14        30     9        0.000000       -0.799146         3
        29        13        14        30     9      180.000000        0.311698         4
        31        16        17        32     9        0.000000       -0.221792         1
        31        16        17        32     9      180.000000       12.229485         2
        31        16        17        32     9        0.000000       -0.799146         3
        31        16        17        32     9      180.000000        0.311698         4
        33        20        21        35     9        0.000000        0.035191         1
        33        20        21        35     9      180.000000       -0.033032         2
        33        20        21        35     9        0.000000        0.320946         3
        33        20        21        35     9      180.000000        0.006118         4
        33        20        21        36     9        0.000000        0.035191         1
        33        20        21        36     9      180.000000       -0.033032         2
        33        20        21        36     9        0.000000        0.320946         3
        33        20        21        36     9      180.000000        0.006118         4
        34        20        21        35     9        0.000000        0.035192         1
        34        20        21        35     9      180.000000       -0.033031         2
        34        20        21        35     9        0.000000        0.320946         3
        34        20        21        35     9      180.000000        0.006118         4
        34        20        21        36     9        0.000000        0.035192         1
        34        20        21        36     9      180.000000       -0.033031         2
        34        20        21        36     9        0.000000        0.320946         3
        34        20        21        36     9      180.000000        0.006118         4
        37        23        24        39     9        0.000000        0.035192         1
        37        23        24        39     9      180.000000       -0.033031         2
        37        23        24        39     9        0.000000        0.320946         3
        37        23        24        39     9      180.000000        0.006118         4
        37        23        24        40     9        0.000000        0.035192         1
        37        23        24        40     9      180.000000       -0.033031         2
        37        23        24        40     9        0.000000        0.320946         3
        37        23        24        40     9      180.000000        0.006118         4
        38        23        24        39     9        0.000000        0.035192         1
        38        23        24        39     9      180.000000       -0.033031         2
        38        23        24        39     9        0.000000        0.320946         3
        38        23        24        39     9      180.000000        0.006118         4
        38        23        24        40     9        0.000000        0.035192         1
        38        23        24        40     9      180.000000       -0.033031         2
        38        23        24        40     9        0.000000        0.320946         3
        38        23        24        40     9      180.000000        0.006118         4

[ dihedrals ] ; impropers
;       ai        aj        ak        al funct           phase               k        pn
         2         1         4         5     4      180.000000       12.826807         2
         2         4         5         1     4      180.000000       12.826807         2
         2         5         1         4     4      180.000000       12.826807         2
         8         4         9        10     4      180.000000       27.893333         2
         8         9        10         4     4      180.000000       27.893333         2
         8        10         4         9     4      180.000000       27.893333         2
        11         5         9        12     4      180.000000        9.194723         2
        11         9        12         5     4      180.000000        9.194723         2
        11        12         5         9     4      180.000000        9.194723         2

[ pairs ]
;       ai        aj funct
         1         7     1
         1         8     1
         1        11     1
         1        18     1
         2         6     1
         2         9     1
         2        10     1
         2        12     1
         2        26     1
         2        27     1
         3         4     1
         3         5     1
         3        27     1
         4        11     1
         4        18     1
         4        28     1
         4        44     1
         5         7     1
         5         8     1
         5        13     1
         5        17     1
         5        28     1
         5        44     1
         6         8     1
         6        44     1
         7         9     1
         7        10     1
         7        26     1
         8        12     1
         8        27     1
         9        13     1
         9        17     1
        10        11     1
        10        28     1
        11        14     1
        11        16     1
        11        29     1
        11        32     1
        12        15     1
        12        28     1
        12        30     1
        12        31     1
        13        16     1
        13        19     1
        13        32     1
        14        17     1
        14        20     1
        14        24     1
        14        31     1
        15        21     1
        15        23     1
        15        29     1
        15        32     1
        15        33     1
        15        34     1
        15        39     1
        15        40     1
        16        20     1
        16        24     1
        16        30     1
        17        19     1
        17        29     1
        18        26     1
        18        27     1
        19        22     1
        19        30     1
        19        31     1
        19        35     1
        19        36     1
        19        37     1
        19        38     1
        20        23     1
        20        25     1
        20        39     1
        20        40     1
        21        24     1
        21        37     1
        21        38     1
        21        41     1
        21        42     1
        21        43     1
        22        33     1
        22        34     1
        22        39     1
        22        40     1
        23        35     1
        23        36     1
        23        41     1
        23        42     1
        23        43     1
        24        25     1
        24        33     1
        24        34     1
        25        35     1
        25        36     1
        25        37     1
        25        38     1
        26        44     1
        29        30     1
        31        32     1
        33        35     1
        33        36     1
        34        35     1
        34        36     1
        37        39     1
        37        40     1
        38        39     1
        38        40     1
