; ITP file created by ByteFF-ML, 2026-02-21 07:50:54.246673

[ atomtypes ]
;name           bonded.type        at.num        mass        charge   ptype           sigma         epsilon
 c0bf                                   6      0.0000       0.00000       A     3.31469e-01     4.13543e-01
 c1bf                                   6      0.0000       0.00000       A     3.31449e-01     4.11368e-01
 c2bf                                   6      0.0000       0.00000       A     3.31519e-01     4.12388e-01
 c3bf                                   6      0.0000       0.00000       A     3.31577e-01     4.13395e-01
 n4bf                                   7      0.0000       0.00000       A     3.38346e-01     3.92604e-01
 c5bf                                   6      0.0000       0.00000       A     3.31516e-01     4.13861e-01
 c6bf                                   6      0.0000       0.00000       A     3.31376e-01     4.12268e-01
 c7bf                                   6      0.0000       0.00000       A     3.31457e-01     4.13299e-01
 n8bf                                   7      0.0000       0.00000       A     3.26530e-01     5.01306e-01
 o9bf                                   8      0.0000       0.00000       A     3.04637e-01     6.12097e-01
 c10bf                                  6      0.0000       0.00000       A     3.31679e-01     4.10311e-01
 c11bf                                  6      0.0000       0.00000       A     3.31392e-01     4.12437e-01
 c12bf                                  6      0.0000       0.00000       A     3.31466e-01     4.13000e-01
 c13bf                                  6      0.0000       0.00000       A     3.31522e-01     4.13168e-01
 c14bf                                  6      0.0000       0.00000       A     3.31525e-01     4.11422e-01
 c15bf                                  6      0.0000       0.00000       A     3.31522e-01     4.13168e-01
 c16bf                                  6      0.0000       0.00000       A     3.31466e-01     4.13000e-01
 f17bf                                  9      0.0000       0.00000       A     3.03423e-01     3.48794e-01
 f18bf                                  9      0.0000       0.00000       A     3.03385e-01     3.47311e-01
 c19bf                                  6      0.0000       0.00000       A     3.39861e-01     4.50558e-01
 c20bf                                  6      0.0000       0.00000       A     3.39976e-01     4.49207e-01
 c21bf                                  6      0.0000       0.00000       A     3.39692e-01     4.50082e-01
 n22bf                                  7      0.0000       0.00000       A     2.67077e-01     7.08681e+00
 c23bf                                  6      0.0000       0.00000       A     3.39692e-01     4.50082e-01
 c24bf                                  6      0.0000       0.00000       A     3.39976e-01     4.49207e-01
 h25bf                                  1      0.0000       0.00000       A     2.62434e-01     6.75074e-02
 h26bf                                  1      0.0000       0.00000       A     2.62554e-01     6.72616e-02
 h27bf                                  1      0.0000       0.00000       A     1.10472e-01     4.18202e-02
 h28bf                                  1      0.0000       0.00000       A     2.62498e-01     6.71961e-02
 h29bf                                  1      0.0000       0.00000       A     2.62590e-01     6.72871e-02
 h30bf                                  1      0.0000       0.00000       A     2.62590e-01     6.72871e-02
 h31bf                                  1      0.0000       0.00000       A     2.62498e-01     6.71961e-02
 h32bf                                  1      0.0000       0.00000       A     2.59946e-01     8.63793e-02
 h33bf                                  1      0.0000       0.00000       A     2.59819e-01     8.85340e-02
 h34bf                                  1      0.0000       0.00000       A     2.59819e-01     8.85340e-02
 h35bf                                  1      0.0000       0.00000       A     1.87941e-01     8.78461e-02
 h36bf                                  1      0.0000       0.00000       A     1.87941e-01     8.78461e-02
 h37bf                                  1      0.0000       0.00000       A     1.10837e-01     4.15792e-02
 h38bf                                  1      0.0000       0.00000       A     1.87941e-01     8.78461e-02
 h39bf                                  1      0.0000       0.00000       A     1.87941e-01     8.78461e-02
 h40bf                                  1      0.0000       0.00000       A     2.59819e-01     8.85340e-02
 h41bf                                  1      0.0000       0.00000       A     2.59819e-01     8.85340e-02
 h42bf                                  1      0.0000       0.00000       A     1.10837e-01     4.15792e-02

[ moleculetype ]
;name             nrexcl
 8c_adjust             3

[ atoms ]
;       nr            type      resi   res      atom      cgnr      charge          mass ; qtot
         1            c0bf         1   UNL        c0         1     0.20556       12.0110 ; qtot    0.206
         2            c1bf         1   UNL        c1         2     0.14694       12.0110 ; qtot    0.352
         3            c2bf         1   UNL        c2         3    -0.16166       12.0110 ; qtot    0.191
         4            c3bf         1   UNL        c3         4    -0.16282       12.0110 ; qtot    0.028
         5            n4bf         1   UNL        n4         5    -0.60878       14.0070 ; qtot   -0.581
         6            c5bf         1   UNL        c5         6     0.17413       12.0110 ; qtot   -0.407
         7            c6bf         1   UNL        c6         7    -0.09019       12.0110 ; qtot   -0.497
         8            c7bf         1   UNL        c7         8     0.57130       12.0110 ; qtot    0.074
         9            n8bf         1   UNL        n8         9    -0.42566       14.0070 ; qtot   -0.351
        10            o9bf         1   UNL        o9        10    -0.52382       15.9990 ; qtot   -0.875
        11           c10bf         1   UNL       c10        11     0.56516       12.0110 ; qtot   -0.310
        12           c11bf         1   UNL       c11        12    -0.16133       12.0110 ; qtot   -0.471
        13           c12bf         1   UNL       c12        13    -0.06349       12.0110 ; qtot   -0.535
        14           c13bf         1   UNL       c13        14    -0.10766       12.0110 ; qtot   -0.642
        15           c14bf         1   UNL       c14        15    -0.08064       12.0110 ; qtot   -0.723
        16           c15bf         1   UNL       c15        16    -0.10766       12.0110 ; qtot   -0.831
        17           c16bf         1   UNL       c16        17    -0.06349       12.0110 ; qtot   -0.894
        18           f17bf         1   UNL       f17        18    -0.15051       18.9980 ; qtot   -1.045
        19           f18bf         1   UNL       f18        19    -0.16753       18.9980 ; qtot   -1.212
        20           c19bf         1   UNL       c19        20    -0.00610       12.0110 ; qtot   -1.218
        21           c20bf         1   UNL       c20        21    -0.09762       12.0110 ; qtot   -1.316
        22           c21bf         1   UNL       c21        22     0.11969       12.0110 ; qtot   -1.196
        23           n22bf         1   UNL       n22        23    -0.84395       14.0070 ; qtot   -2.040
        24           c23bf         1   UNL       c23        24     0.11969       12.0110 ; qtot   -1.920
        25           c24bf         1   UNL       c24        25    -0.09763       12.0110 ; qtot   -2.018
        26           h25bf         1   UNL       h25        26     0.15456        1.0080 ; qtot   -1.864
        27           h26bf         1   UNL       h26        27     0.16278        1.0080 ; qtot   -1.701
        28           h27bf         1   UNL       h27        28     0.33464        1.0080 ; qtot   -1.366
        29           h28bf         1   UNL       h28        29     0.12637        1.0080 ; qtot   -1.240
        30           h29bf         1   UNL       h29        30     0.11826        1.0080 ; qtot   -1.121
        31           h30bf         1   UNL       h30        31     0.11826        1.0080 ; qtot   -1.003
        32           h31bf         1   UNL       h31        32     0.12637        1.0080 ; qtot   -0.877
        33           h32bf         1   UNL       h32        33     0.07825        1.0080 ; qtot   -0.799
        34           h33bf         1   UNL       h33        34     0.08817        1.0080 ; qtot   -0.710
        35           h34bf         1   UNL       h34        35     0.08817        1.0080 ; qtot   -0.622
        36           h35bf         1   UNL       h35        36     0.10641        1.0080 ; qtot   -0.516
        37           h36bf         1   UNL       h36        37     0.10641        1.0080 ; qtot   -0.409
        38           h37bf         1   UNL       h37        38     0.51014        1.0080 ; qtot    0.101
        39           h38bf         1   UNL       h38        39     0.10641        1.0080 ; qtot    0.207
        40           h39bf         1   UNL       h39        40     0.10641        1.0080 ; qtot    0.314
        41           h40bf         1   UNL       h40        41     0.08817        1.0080 ; qtot    0.402
        42           h41bf         1   UNL       h41        42     0.08817        1.0080 ; qtot    0.490
        43           h42bf         1   UNL       h42        43     0.51012        1.0080 ; qtot    1.000

[ bonds ]
;       ai        aj funct               r               k
         1         2     1        0.141516   257342.813965
         1         3     1        0.138015   338884.106592
         1        18     1        0.134510   310854.703027
         2         4     1        0.141588   266885.469922
         2         5     1        0.138040   262400.693848
         3         6     1        0.140396   288670.897021
         3        26     1        0.108391   328794.164844
         4         7     1        0.140396   296950.359863
         4         8     1        0.147042   199224.413428
         5        11     1        0.130068   422115.700488
         6         7     1        0.138116   323625.709277
         6        19     1        0.135309   296829.211816
         7        27     1        0.108362   329547.330811
         8         9     1        0.140079   211686.216357
         8        10     1        0.122716   614989.775391
         9        11     1        0.137808   256097.190381
         9        28     1        0.101480   412787.019971
        11        12     1        0.147967   203975.554321
        12        13     1        0.140529   288496.887158
        12        17     1        0.140529   288496.887158
        13        14     1        0.139372   327176.516650
        13        29     1        0.108523   320966.606689
        14        15     1        0.140346   285569.083105
        14        30     1        0.108643   316702.624463
        15        16     1        0.140346   285569.083105
        15        20     1        0.151653   188176.523633
        16        17     1        0.139372   327176.516650
        16        31     1        0.108643   316702.650000
        17        32     1        0.108523   320966.606689
        20        21     1        0.154704   165601.182666
        20        25     1        0.154704   165601.182666
        20        33     1        0.109539   299205.695215
        21        22     1        0.152731   189472.008423
        21        34     1        0.109384   302018.045996
        21        35     1        0.109384   302018.045996
        22        23     1        0.152448   131489.886670
        22        36     1        0.109084   311849.220215
        22        37     1        0.109084   311849.220215
        23        24     1        0.152448   131489.873901
        23        38     1        0.102640   384235.995410
        23        43     1        0.102640   384235.995410
        24        25     1        0.152731   189472.033960
        24        39     1        0.109084   311849.220215
        24        40     1        0.109084   311849.220215
        25        41     1        0.109384   302018.045996
        25        42     1        0.109384   302018.045996

[ angles ]
;       ai        aj        ak funct           theta             cth
         1         2         4     1      116.998856      597.928943
         1         2         5     1      119.256699      334.423450
         1         3         6     1      118.180176      726.949443
         1         3        26     1      120.853226      437.755692
         2         1         3     1      122.340820      639.348730
         2         1        18     1      118.626038      476.800560
         2         4         7     1      121.620316      706.739885
         2         4         8     1      118.537537      831.491154
         2         5        11     1      117.943092      314.437917
         3         1        18     1      118.845848      562.713780
         3         6         7     1      122.801292      604.334544
         3         6        19     1      117.518127      609.787100
         4         2         5     1      123.606468      729.867951
         4         7         6     1      117.939575      588.090134
         4         7        27     1      120.118553      419.798380
         4         8         9     1      112.884109      614.140922
         4         8        10     1      126.182739      459.112632
         5        11         9     1      122.630020      508.093159
         5        11        12     1      119.998001      393.059175
         6         3        26     1      120.872719      449.330100
         6         7        27     1      121.834068      425.412682
         7         4         8     1      119.677589      485.287052
         7         6        19     1      119.547897      496.812014
         8         9        11     1      125.008095      722.080537
         8         9        28     1      114.872902      510.195693
         9         8        10     1      120.697655      782.724149
         9        11        12     1      117.585876      652.864118
        11         9        28     1      120.287392      426.436337
        11        12        13     1      120.712769      547.631180
        11        12        17     1      120.712769      547.631180
        12        13        14     1      120.527023      676.175157
        12        13        29     1      119.841263      420.670951
        12        17        16     1      120.527023      676.175157
        12        17        32     1      119.841263      420.670951
        13        12        17     1      118.349464      541.357734
        13        14        15     1      121.051331      708.841589
        13        14        30     1      119.053787      439.591523
        14        13        29     1      119.561729      424.056949
        14        15        16     1      117.980263      601.126509
        14        15        20     1      120.856651      515.503677
        15        14        30     1      119.970291      419.472910
        15        16        17     1      121.051331      708.841589
        15        16        31     1      119.970291      419.472878
        15        20        21     1      112.225662      606.848162
        15        20        25     1      112.225662      606.848162
        15        20        33     1      107.583763      511.300429
        16        15        20     1      120.856651      515.503677
        16        17        32     1      119.561729      424.056949
        17        16        31     1      119.053787      439.591523
        20        21        22     1      111.946983      655.129068
        20        21        34     1      110.248169      463.304645
        20        21        35     1      110.248169      463.304645
        20        25        24     1      111.946983      655.129068
        20        25        41     1      110.248169      463.304708
        20        25        42     1      110.248169      463.304708
        21        20        25     1      109.462196      548.510168
        21        20        33     1      107.304871      483.396029
        21        22        23     1      109.693459      749.194052
        21        22        36     1      112.301559      481.507369
        21        22        37     1      112.301559      481.507369
        22        21        34     1      108.795143      506.308626
        22        21        35     1      108.795143      506.308626
        22        23        24     1      112.774704      620.603024
        22        23        38     1      109.304871      493.900017
        22        23        43     1      109.304855      493.900017
        23        22        36     1      106.573242      534.485666
        23        22        37     1      106.573242      534.485666
        23        24        25     1      109.693466      749.193989
        23        24        39     1      106.573242      534.485730
        23        24        40     1      106.573242      534.485730
        24        23        38     1      109.304855      493.900017
        24        23        43     1      109.304855      493.900017
        24        25        41     1      108.795143      506.308626
        24        25        42     1      108.795143      506.308626
        25        20        33     1      107.304855      483.396029
        25        24        39     1      112.301559      481.507369
        25        24        40     1      112.301559      481.507369
        34        21        35     1      106.518082      360.594263
        36        22        37     1      108.690506      346.222680
        38        23        43     1      106.355591      413.976526
        39        24        40     1      108.690506      346.222648
        41        25        42     1      106.518082      360.594199

[ dihedrals ] ; propers for gromacs 4.5 or higher, use funct 9
;       ai        aj        ak        al funct           phase               k        pn
         1         2         4         7     9        0.000000       -0.068050         1
         1         2         4         7     9      180.000000       12.841169         2
         1         2         4         7     9        0.000000       -1.342913         3
         1         2         4         7     9      180.000000       -0.100268         4
         1         2         4         8     9        0.000000        0.451537         1
         1         2         4         8     9      180.000000       11.194029         2
         1         2         4         8     9        0.000000       -0.232623         3
         1         2         4         8     9      180.000000       -0.176488         4
         1         2         5        11     9        0.000000        1.370628         1
         1         2         5        11     9      180.000000        6.572996         2
         1         2         5        11     9        0.000000        1.128560         3
         1         2         5        11     9      180.000000       -0.314879         4
         1         3         6         7     9        0.000000       -0.080901         1
         1         3         6         7     9      180.000000       15.477959         2
         1         3         6         7     9        0.000000       -1.154677         3
         1         3         6         7     9      180.000000       -0.291169         4
         1         3         6        19     9        0.000000        0.266036         1
         1         3         6        19     9      180.000000       21.340951         2
         1         3         6        19     9        0.000000        0.509455         3
         1         3         6        19     9      180.000000       -0.728357         4
         2         1         3         6     9        0.000000       -0.191814         1
         2         1         3         6     9      180.000000       18.498326         2
         2         1         3         6     9        0.000000       -1.125692         3
         2         1         3         6     9      180.000000       -0.483757         4
         2         1         3        26     9        0.000000        0.318368         1
         2         1         3        26     9      180.000000       12.888935         2
         2         1         3        26     9        0.000000       -0.446930         3
         2         1         3        26     9      180.000000        0.173508         4
         2         4         7         6     9        0.000000       -0.176486         1
         2         4         7         6     9      180.000000       17.564115         2
         2         4         7         6     9        0.000000       -1.320364         3
         2         4         7         6     9      180.000000       -0.300191         4
         2         4         7        27     9        0.000000        0.198699         1
         2         4         7        27     9      180.000000       12.188015         2
         2         4         7        27     9        0.000000       -0.404744         3
         2         4         7        27     9      180.000000        0.064611         4
         2         4         8         9     9        0.000000        0.092060         1
         2         4         8         9     9      180.000000        4.263972         2
         2         4         8         9     9        0.000000        0.117532         3
         2         4         8         9     9      180.000000        0.063161         4
         2         4         8        10     9        0.000000       -0.572819         1
         2         4         8        10     9      180.000000        8.041957         2
         2         4         8        10     9        0.000000        0.130331         3
         2         4         8        10     9      180.000000       -0.474173         4
         2         5        11         9     9        0.000000       -0.221677         1
         2         5        11         9     9      180.000000       36.314388         2
         2         5        11         9     9        0.000000       -0.478930         3
         2         5        11         9     9      180.000000       -1.116168         4
         2         5        11        12     9        0.000000        0.575942         1
         2         5        11        12     9      180.000000       31.284342         2
         2         5        11        12     9        0.000000        1.339249         3
         2         5        11        12     9      180.000000       -1.417088         4
         3         1         2         4     9        0.000000       -0.155509         1
         3         1         2         4     9      180.000000       12.926970         2
         3         1         2         4     9        0.000000       -0.657216         3
         3         1         2         4     9      180.000000       -0.149085         4
         3         1         2         5     9        0.000000        0.249099         1
         3         1         2         5     9      180.000000       12.246127         2
         3         1         2         5     9        0.000000       -0.100682         3
         3         1         2         5     9      180.000000       -0.063551         4
         3         6         7         4     9        0.000000        0.014640         1
         3         6         7         4     9      180.000000       18.232995         2
         3         6         7         4     9        0.000000       -1.154104         3
         3         6         7         4     9      180.000000       -0.466027         4
         3         6         7        27     9        0.000000        0.108494         1
         3         6         7        27     9      180.000000       13.797086         2
         3         6         7        27     9        0.000000       -0.396524         3
         3         6         7        27     9      180.000000        0.129282         4
         4         2         1        18     9        0.000000        0.413114         1
         4         2         1        18     9      180.000000       18.432390         2
         4         2         1        18     9        0.000000        0.570681         3
         4         2         1        18     9      180.000000       -0.583435         4
         4         2         5        11     9        0.000000        0.169731         1
         4         2         5        11     9      180.000000        5.989577         2
         4         2         5        11     9        0.000000        0.898037         3
         4         2         5        11     9      180.000000       -0.230208         4
         4         7         6        19     9        0.000000        0.287424         1
         4         7         6        19     9      180.000000       23.166484         2
         4         7         6        19     9        0.000000        0.584851         3
         4         7         6        19     9      180.000000       -0.783474         4
         4         8         9        11     9        0.000000       -0.372629         1
         4         8         9        11     9      180.000000        3.156633         2
         4         8         9        11     9        0.000000        0.195160         3
         4         8         9        11     9      180.000000        0.103147         4
         4         8         9        28     9        0.000000       -0.869836         1
         4         8         9        28     9      180.000000        6.959391         2
         4         8         9        28     9        0.000000        0.072155         3
         4         8         9        28     9      180.000000       -0.064628         4
         5         2         1        18     9        0.000000       -0.378001         1
         5         2         1        18     9      180.000000       20.403741         2
         5         2         1        18     9        0.000000        0.531460         3
         5         2         1        18     9      180.000000       -1.205267         4
         5         2         4         7     9        0.000000        0.180453         1
         5         2         4         7     9      180.000000       13.642927         2
         5         2         4         7     9        0.000000       -0.103332         3
         5         2         4         7     9      180.000000       -0.159452         4
         5         2         4         8     9        0.000000        0.531794         1
         5         2         4         8     9      180.000000       12.532993         2
         5         2         4         8     9        0.000000        0.438956         3
         5         2         4         8     9      180.000000       -0.460909         4
         5        11         9         8     9        0.000000       -0.073413         1
         5        11         9         8     9      180.000000        7.441708         2
         5        11         9         8     9        0.000000        0.158792         3
         5        11         9         8     9      180.000000       -0.231811         4
         5        11         9        28     9        0.000000        1.722155         1
         5        11         9        28     9      180.000000        6.896207         2
         5        11         9        28     9        0.000000       -0.253035         3
         5        11         9        28     9      180.000000       -0.129323         4
         5        11        12        13     9        0.000000       -0.159612         1
         5        11        12        13     9      180.000000        3.776065         2
         5        11        12        13     9        0.000000       -0.084671         3
         5        11        12        13     9      180.000000       -0.056523         4
         5        11        12        17     9        0.000000       -0.159612         1
         5        11        12        17     9      180.000000        3.776065         2
         5        11        12        17     9        0.000000       -0.084671         3
         5        11        12        17     9      180.000000       -0.056523         4
         6         3         1        18     9        0.000000        0.429147         1
         6         3         1        18     9      180.000000       24.311611         2
         6         3         1        18     9        0.000000        0.510284         3
         6         3         1        18     9      180.000000       -0.773537         4
         6         7         4         8     9        0.000000        0.136320         1
         6         7         4         8     9      180.000000       14.241003         2
         6         7         4         8     9        0.000000       -0.271618         3
         6         7         4         8     9      180.000000       -0.263053         4
         7         4         8         9     9        0.000000       -0.130493         1
         7         4         8         9     9      180.000000        4.591644         2
         7         4         8         9     9        0.000000        0.284813         3
         7         4         8         9     9      180.000000        0.097161         4
         7         4         8        10     9        0.000000       -1.022891         1
         7         4         8        10     9      180.000000        6.387392         2
         7         4         8        10     9        0.000000       -0.069060         3
         7         4         8        10     9      180.000000       -0.065228         4
         7         6         3        26     9        0.000000        0.006922         1
         7         6         3        26     9      180.000000       12.064686         2
         7         6         3        26     9        0.000000       -0.488782         3
         7         6         3        26     9      180.000000        0.145209         4
         8         4         7        27     9        0.000000        0.022268         1
         8         4         7        27     9      180.000000       10.637904         2
         8         4         7        27     9        0.000000       -0.392591         3
         8         4         7        27     9      180.000000        0.076081         4
         8         9        11        12     9        0.000000        0.334854         1
         8         9        11        12     9      180.000000        7.645409         2
         8         9        11        12     9        0.000000        0.236489         3
         8         9        11        12     9      180.000000       -0.346968         4
         9        11        12        13     9        0.000000        0.011290         1
         9        11        12        13     9      180.000000        3.903845         2
         9        11        12        13     9        0.000000        0.201286         3
         9        11        12        13     9      180.000000       -0.307834         4
         9        11        12        17     9        0.000000        0.011290         1
         9        11        12        17     9      180.000000        3.903845         2
         9        11        12        17     9        0.000000        0.201286         3
         9        11        12        17     9      180.000000       -0.307834         4
        10         8         9        11     9        0.000000       -0.481963         1
        10         8         9        11     9      180.000000        9.453114         2
        10         8         9        11     9        0.000000       -0.292875         3
        10         8         9        11     9      180.000000       -0.413274         4
        10         8         9        28     9        0.000000        0.203648         1
        10         8         9        28     9      180.000000       10.140765         2
        10         8         9        28     9        0.000000       -0.579893         3
        10         8         9        28     9      180.000000        0.238454         4
        11        12        13        14     9        0.000000       -0.009249         1
        11        12        13        14     9      180.000000       14.798544         2
        11        12        13        14     9        0.000000       -0.370350         3
        11        12        13        14     9      180.000000       -0.166421         4
        11        12        13        29     9        0.000000       -0.038974         1
        11        12        13        29     9      180.000000       12.281983         2
        11        12        13        29     9        0.000000       -0.355151         3
        11        12        13        29     9      180.000000        0.180122         4
        11        12        17        16     9        0.000000       -0.009249         1
        11        12        17        16     9      180.000000       14.798544         2
        11        12        17        16     9        0.000000       -0.370350         3
        11        12        17        16     9      180.000000       -0.166421         4
        11        12        17        32     9        0.000000       -0.038974         1
        11        12        17        32     9      180.000000       12.281983         2
        11        12        17        32     9        0.000000       -0.355151         3
        11        12        17        32     9      180.000000        0.180122         4
        12        11         9        28     9        0.000000       -0.470908         1
        12        11         9        28     9      180.000000        6.355727         2
        12        11         9        28     9        0.000000       -0.142069         3
        12        11         9        28     9      180.000000       -0.142846         4
        12        13        14        15     9        0.000000       -0.064075         1
        12        13        14        15     9      180.000000       19.342020         2
        12        13        14        15     9        0.000000       -1.608878         3
        12        13        14        15     9      180.000000       -0.384560         4
        12        13        14        30     9        0.000000       -0.043856         1
        12        13        14        30     9      180.000000       15.207769         2
        12        13        14        30     9        0.000000       -0.422550         3
        12        13        14        30     9      180.000000        0.110075         4
        12        17        16        15     9        0.000000       -0.064075         1
        12        17        16        15     9      180.000000       19.342020         2
        12        17        16        15     9        0.000000       -1.608878         3
        12        17        16        15     9      180.000000       -0.384560         4
        12        17        16        31     9        0.000000       -0.043856         1
        12        17        16        31     9      180.000000       15.207769         2
        12        17        16        31     9        0.000000       -0.422550         3
        12        17        16        31     9      180.000000        0.110075         4
        13        12        17        16     9        0.000000       -0.127803         1
        13        12        17        16     9      180.000000       18.008141         2
        13        12        17        16     9        0.000000       -1.474548         3
        13        12        17        16     9      180.000000       -0.362123         4
        13        12        17        32     9        0.000000       -0.072046         1
        13        12        17        32     9      180.000000       13.795444         2
        13        12        17        32     9        0.000000       -0.607069         3
        13        12        17        32     9      180.000000        0.101975         4
        13        14        15        16     9        0.000000       -0.044857         1
        13        14        15        16     9      180.000000       18.714651         2
        13        14        15        16     9        0.000000       -1.412947         3
        13        14        15        16     9      180.000000       -0.331836         4
        13        14        15        20     9        0.000000        0.251811         1
        13        14        15        20     9      180.000000       14.725753         2
        13        14        15        20     9        0.000000       -0.106472         3
        13        14        15        20     9      180.000000       -0.207943         4
        14        13        12        17     9        0.000000       -0.127803         1
        14        13        12        17     9      180.000000       18.008141         2
        14        13        12        17     9        0.000000       -1.474548         3
        14        13        12        17     9      180.000000       -0.362123         4
        14        15        16        17     9        0.000000       -0.044857         1
        14        15        16        17     9      180.000000       18.714651         2
        14        15        16        17     9        0.000000       -1.412947         3
        14        15        16        17     9      180.000000       -0.331836         4
        14        15        16        31     9        0.000000       -0.049169         1
        14        15        16        31     9      180.000000       14.642018         2
        14        15        16        31     9        0.000000       -0.638822         3
        14        15        16        31     9      180.000000        0.026838         4
        14        15        20        21     9        0.000000        0.011328         1
        14        15        20        21     9      180.000000        0.639016         2
        14        15        20        21     9        0.000000        0.283403         3
        14        15        20        21     9      180.000000        0.026242         4
        14        15        20        25     9        0.000000        0.011329         1
        14        15        20        25     9      180.000000        0.639016         2
        14        15        20        25     9        0.000000        0.283403         3
        14        15        20        25     9      180.000000        0.026242         4
        14        15        20        33     9        0.000000        0.059997         1
        14        15        20        33     9      180.000000       -0.097980         2
        14        15        20        33     9        0.000000        0.076929         3
        14        15        20        33     9      180.000000        0.004107         4
        15        14        13        29     9        0.000000        0.031344         1
        15        14        13        29     9      180.000000       15.095161         2
        15        14        13        29     9        0.000000       -0.599815         3
        15        14        13        29     9      180.000000        0.154501         4
        15        16        17        32     9        0.000000        0.031344         1
        15        16        17        32     9      180.000000       15.095161         2
        15        16        17        32     9        0.000000       -0.599815         3
        15        16        17        32     9      180.000000        0.154501         4
        15        20        21        22     9        0.000000        0.000804         1
        15        20        21        22     9      180.000000       -0.394464         2
        15        20        21        22     9        0.000000        0.468538         3
        15        20        21        22     9      180.000000        0.074841         4
        15        20        21        34     9        0.000000        0.026938         1
        15        20        21        34     9      180.000000        0.025110         2
        15        20        21        34     9        0.000000        0.499821         3
        15        20        21        34     9      180.000000       -0.067490         4
        15        20        21        35     9        0.000000        0.026938         1
        15        20        21        35     9      180.000000        0.025110         2
        15        20        21        35     9        0.000000        0.499821         3
        15        20        21        35     9      180.000000       -0.067490         4
        15        20        25        24     9        0.000000        0.000803         1
        15        20        25        24     9      180.000000       -0.394464         2
        15        20        25        24     9        0.000000        0.468537         3
        15        20        25        24     9      180.000000        0.074840         4
        15        20        25        41     9        0.000000        0.026939         1
        15        20        25        41     9      180.000000        0.025110         2
        15        20        25        41     9        0.000000        0.499821         3
        15        20        25        41     9      180.000000       -0.067490         4
        15        20        25        42     9        0.000000        0.026939         1
        15        20        25        42     9      180.000000        0.025110         2
        15        20        25        42     9        0.000000        0.499821         3
        15        20        25        42     9      180.000000       -0.067490         4
        16        15        14        30     9        0.000000       -0.049169         1
        16        15        14        30     9      180.000000       14.642018         2
        16        15        14        30     9        0.000000       -0.638822         3
        16        15        14        30     9      180.000000        0.026838         4
        16        15        20        21     9        0.000000        0.011328         1
        16        15        20        21     9      180.000000        0.639016         2
        16        15        20        21     9        0.000000        0.283403         3
        16        15        20        21     9      180.000000        0.026242         4
        16        15        20        25     9        0.000000        0.011329         1
        16        15        20        25     9      180.000000        0.639016         2
        16        15        20        25     9        0.000000        0.283403         3
        16        15        20        25     9      180.000000        0.026242         4
        16        15        20        33     9        0.000000        0.059997         1
        16        15        20        33     9      180.000000       -0.097980         2
        16        15        20        33     9        0.000000        0.076929         3
        16        15        20        33     9      180.000000        0.004107         4
        17        12        13        29     9        0.000000       -0.072046         1
        17        12        13        29     9      180.000000       13.795444         2
        17        12        13        29     9        0.000000       -0.607069         3
        17        12        13        29     9      180.000000        0.101975         4
        17        16        15        20     9        0.000000        0.251811         1
        17        16        15        20     9      180.000000       14.725753         2
        17        16        15        20     9        0.000000       -0.106472         3
        17        16        15        20     9      180.000000       -0.207943         4
        18         1         3        26     9        0.000000        0.326095         1
        18         1         3        26     9      180.000000       17.115573         2
        18         1         3        26     9        0.000000        0.227549         3
        18         1         3        26     9      180.000000        0.168735         4
        19         6         3        26     9        0.000000        0.320920         1
        19         6         3        26     9      180.000000       14.167953         2
        19         6         3        26     9        0.000000        0.188410         3
        19         6         3        26     9      180.000000        0.267271         4
        19         6         7        27     9        0.000000        0.233725         1
        19         6         7        27     9      180.000000       16.135295         2
        19         6         7        27     9        0.000000        0.302844         3
        19         6         7        27     9      180.000000        0.207605         4
        20        15        14        30     9        0.000000       -0.076126         1
        20        15        14        30     9      180.000000       12.617225         2
        20        15        14        30     9        0.000000       -0.365203         3
        20        15        14        30     9      180.000000        0.193520         4
        20        15        16        31     9        0.000000       -0.076126         1
        20        15        16        31     9      180.000000       12.617225         2
        20        15        16        31     9        0.000000       -0.365203         3
        20        15        16        31     9      180.000000        0.193520         4
        20        21        22        23     9        0.000000        1.554998         1
        20        21        22        23     9      180.000000       -1.097120         2
        20        21        22        23     9        0.000000        0.330440         3
        20        21        22        23     9      180.000000       -0.065860         4
        20        21        22        36     9        0.000000       -0.068164         1
        20        21        22        36     9      180.000000        0.008602         2
        20        21        22        36     9        0.000000        0.350168         3
        20        21        22        36     9      180.000000        0.010872         4
        20        21        22        37     9        0.000000       -0.068164         1
        20        21        22        37     9      180.000000        0.008602         2
        20        21        22        37     9        0.000000        0.350168         3
        20        21        22        37     9      180.000000        0.010872         4
        20        25        24        23     9        0.000000        1.554999         1
        20        25        24        23     9      180.000000       -1.097120         2
        20        25        24        23     9        0.000000        0.330440         3
        20        25        24        23     9      180.000000       -0.065860         4
        20        25        24        39     9        0.000000       -0.068164         1
        20        25        24        39     9      180.000000        0.008602         2
        20        25        24        39     9        0.000000        0.350167         3
        20        25        24        39     9      180.000000        0.010872         4
        20        25        24        40     9        0.000000       -0.068164         1
        20        25        24        40     9      180.000000        0.008602         2
        20        25        24        40     9        0.000000        0.350167         3
        20        25        24        40     9      180.000000        0.010872         4
        21        20        25        24     9        0.000000        1.053260         1
        21        20        25        24     9      180.000000       -1.315941         2
        21        20        25        24     9        0.000000        0.294662         3
        21        20        25        24     9      180.000000       -0.055910         4
        21        20        25        41     9        0.000000       -0.017516         1
        21        20        25        41     9      180.000000        0.025759         2
        21        20        25        41     9        0.000000        0.265779         3
        21        20        25        41     9      180.000000        0.027371         4
        21        20        25        42     9        0.000000       -0.017516         1
        21        20        25        42     9      180.000000        0.025759         2
        21        20        25        42     9        0.000000        0.265779         3
        21        20        25        42     9      180.000000        0.027371         4
        21        22        23        24     9        0.000000        0.059750         1
        21        22        23        24     9      180.000000       -0.494178         2
        21        22        23        24     9        0.000000        0.374240         3
        21        22        23        24     9      180.000000        0.018040         4
        21        22        23        38     9        0.000000        0.093387         1
        21        22        23        38     9      180.000000       -0.146314         2
        21        22        23        38     9        0.000000        0.339710         3
        21        22        23        38     9      180.000000        0.044222         4
        21        22        23        43     9        0.000000        0.093387         1
        21        22        23        43     9      180.000000       -0.146314         2
        21        22        23        43     9        0.000000        0.339710         3
        21        22        23        43     9      180.000000        0.044222         4
        22        21        20        25     9        0.000000        1.053261         1
        22        21        20        25     9      180.000000       -1.315941         2
        22        21        20        25     9        0.000000        0.294662         3
        22        21        20        25     9      180.000000       -0.055909         4
        22        21        20        33     9        0.000000       -0.677183         1
        22        21        20        33     9      180.000000       -0.059527         2
        22        21        20        33     9        0.000000        0.255627         3
        22        21        20        33     9      180.000000        0.070960         4
        22        23        24        25     9        0.000000        0.059749         1
        22        23        24        25     9      180.000000       -0.494178         2
        22        23        24        25     9        0.000000        0.374240         3
        22        23        24        25     9      180.000000        0.018040         4
        22        23        24        39     9        0.000000       -0.041345         1
        22        23        24        39     9      180.000000        0.007633         2
        22        23        24        39     9        0.000000        0.415111         3
        22        23        24        39     9      180.000000       -0.049813         4
        22        23        24        40     9        0.000000       -0.041345         1
        22        23        24        40     9      180.000000        0.007633         2
        22        23        24        40     9        0.000000        0.415111         3
        22        23        24        40     9      180.000000       -0.049813         4
        23        22        21        34     9        0.000000       -0.148682         1
        23        22        21        34     9      180.000000        0.021084         2
        23        22        21        34     9        0.000000        0.272859         3
        23        22        21        34     9      180.000000       -0.022908         4
        23        22        21        35     9        0.000000       -0.148682         1
        23        22        21        35     9      180.000000        0.021084         2
        23        22        21        35     9        0.000000        0.272859         3
        23        22        21        35     9      180.000000       -0.022908         4
        23        24        25        41     9        0.000000       -0.148681         1
        23        24        25        41     9      180.000000        0.021085         2
        23        24        25        41     9        0.000000        0.272859         3
        23        24        25        41     9      180.000000       -0.022908         4
        23        24        25        42     9        0.000000       -0.148681         1
        23        24        25        42     9      180.000000        0.021085         2
        23        24        25        42     9        0.000000        0.272859         3
        23        24        25        42     9      180.000000       -0.022908         4
        24        23        22        36     9        0.000000       -0.041345         1
        24        23        22        36     9      180.000000        0.007632         2
        24        23        22        36     9        0.000000        0.415110         3
        24        23        22        36     9      180.000000       -0.049812         4
        24        23        22        37     9        0.000000       -0.041345         1
        24        23        22        37     9      180.000000        0.007632         2
        24        23        22        37     9        0.000000        0.415110         3
        24        23        22        37     9      180.000000       -0.049812         4
        24        25        20        33     9        0.000000       -0.677183         1
        24        25        20        33     9      180.000000       -0.059526         2
        24        25        20        33     9        0.000000        0.255627         3
        24        25        20        33     9      180.000000        0.070959         4
        25        20        21        34     9        0.000000       -0.017517         1
        25        20        21        34     9      180.000000        0.025759         2
        25        20        21        34     9        0.000000        0.265779         3
        25        20        21        34     9      180.000000        0.027371         4
        25        20        21        35     9        0.000000       -0.017517         1
        25        20        21        35     9      180.000000        0.025759         2
        25        20        21        35     9        0.000000        0.265779         3
        25        20        21        35     9      180.000000        0.027371         4
        25        24        23        38     9        0.000000        0.093387         1
        25        24        23        38     9      180.000000       -0.146315         2
        25        24        23        38     9        0.000000        0.339709         3
        25        24        23        38     9      180.000000        0.044222         4
        25        24        23        43     9        0.000000        0.093387         1
        25        24        23        43     9      180.000000       -0.146315         2
        25        24        23        43     9        0.000000        0.339709         3
        25        24        23        43     9      180.000000        0.044222         4
        29        13        14        30     9        0.000000       -0.219156         1
        29        13        14        30     9      180.000000       12.249174         2
        29        13        14        30     9        0.000000       -0.751301         3
        29        13        14        30     9      180.000000        0.403016         4
        31        16        17        32     9        0.000000       -0.219156         1
        31        16        17        32     9      180.000000       12.249174         2
        31        16        17        32     9        0.000000       -0.751301         3
        31        16        17        32     9      180.000000        0.403016         4
        33        20        21        34     9        0.000000        0.035574         1
        33        20        21        34     9      180.000000        0.007515         2
        33        20        21        34     9        0.000000        0.444604         3
        33        20        21        34     9      180.000000       -0.042720         4
        33        20        21        35     9        0.000000        0.035574         1
        33        20        21        35     9      180.000000        0.007515         2
        33        20        21        35     9        0.000000        0.444604         3
        33        20        21        35     9      180.000000       -0.042720         4
        33        20        25        41     9        0.000000        0.035576         1
        33        20        25        41     9      180.000000        0.007516         2
        33        20        25        41     9        0.000000        0.444604         3
        33        20        25        41     9      180.000000       -0.042721         4
        33        20        25        42     9        0.000000        0.035576         1
        33        20        25        42     9      180.000000        0.007516         2
        33        20        25        42     9        0.000000        0.444604         3
        33        20        25        42     9      180.000000       -0.042721         4
        34        21        22        36     9        0.000000        0.019325         1
        34        21        22        36     9      180.000000        0.012865         2
        34        21        22        36     9        0.000000        0.420286         3
        34        21        22        36     9      180.000000       -0.005975         4
        34        21        22        37     9        0.000000        0.019325         1
        34        21        22        37     9      180.000000        0.012865         2
        34        21        22        37     9        0.000000        0.420286         3
        34        21        22        37     9      180.000000       -0.005975         4
        35        21        22        36     9        0.000000        0.019325         1
        35        21        22        36     9      180.000000        0.012865         2
        35        21        22        36     9        0.000000        0.420286         3
        35        21        22        36     9      180.000000       -0.005975         4
        35        21        22        37     9        0.000000        0.019325         1
        35        21        22        37     9      180.000000        0.012865         2
        35        21        22        37     9        0.000000        0.420286         3
        35        21        22        37     9      180.000000       -0.005975         4
        36        22        23        38     9        0.000000        0.004206         1
        36        22        23        38     9      180.000000        0.061209         2
        36        22        23        38     9        0.000000        0.441926         3
        36        22        23        38     9      180.000000        0.010662         4
        36        22        23        43     9        0.000000        0.004206         1
        36        22        23        43     9      180.000000        0.061209         2
        36        22        23        43     9        0.000000        0.441926         3
        36        22        23        43     9      180.000000        0.010662         4
        37        22        23        38     9        0.000000        0.004206         1
        37        22        23        38     9      180.000000        0.061209         2
        37        22        23        38     9        0.000000        0.441926         3
        37        22        23        38     9      180.000000        0.010662         4
        37        22        23        43     9        0.000000        0.004206         1
        37        22        23        43     9      180.000000        0.061209         2
        37        22        23        43     9        0.000000        0.441926         3
        37        22        23        43     9      180.000000        0.010662         4
        38        23        24        39     9        0.000000        0.004207         1
        38        23        24        39     9      180.000000        0.061208         2
        38        23        24        39     9        0.000000        0.441925         3
        38        23        24        39     9      180.000000        0.010661         4
        38        23        24        40     9        0.000000        0.004207         1
        38        23        24        40     9      180.000000        0.061208         2
        38        23        24        40     9        0.000000        0.441925         3
        38        23        24        40     9      180.000000        0.010661         4
        39        24        23        43     9        0.000000        0.004207         1
        39        24        23        43     9      180.000000        0.061208         2
        39        24        23        43     9        0.000000        0.441925         3
        39        24        23        43     9      180.000000        0.010661         4
        39        24        25        41     9        0.000000        0.019325         1
        39        24        25        41     9      180.000000        0.012865         2
        39        24        25        41     9        0.000000        0.420287         3
        39        24        25        41     9      180.000000       -0.005975         4
        39        24        25        42     9        0.000000        0.019325         1
        39        24        25        42     9      180.000000        0.012865         2
        39        24        25        42     9        0.000000        0.420287         3
        39        24        25        42     9      180.000000       -0.005975         4
        40        24        23        43     9        0.000000        0.004207         1
        40        24        23        43     9      180.000000        0.061208         2
        40        24        23        43     9        0.000000        0.441925         3
        40        24        23        43     9      180.000000        0.010661         4
        40        24        25        41     9        0.000000        0.019325         1
        40        24        25        41     9      180.000000        0.012865         2
        40        24        25        41     9        0.000000        0.420287         3
        40        24        25        41     9      180.000000       -0.005975         4
        40        24        25        42     9        0.000000        0.019325         1
        40        24        25        42     9      180.000000        0.012865         2
        40        24        25        42     9        0.000000        0.420287         3
        40        24        25        42     9      180.000000       -0.005975         4

[ dihedrals ] ; impropers
;       ai        aj        ak        al funct           phase               k        pn
         2         1         4         5     4      180.000000        8.044709         2
         2         4         5         1     4      180.000000        8.044709         2
         2         5         1         4     4      180.000000        8.044709         2
         6         3         7        19     4      180.000000        0.800442         2
         6         7        19         3     4      180.000000        0.800442         2
         6        19         3         7     4      180.000000        0.800442         2
         8         4         9        10     4      180.000000       27.893333         2
         8         9        10         4     4      180.000000       27.893333         2
         8        10         4         9     4      180.000000       27.893333         2
        11         5         9        12     4      180.000000        8.954568         2
        11         9        12         5     4      180.000000        8.954568         2
        11        12         5         9     4      180.000000        8.954568         2

[ pairs ]
;       ai        aj funct
         1         7     1
         1         8     1
         1        11     1
         1        19     1
         2         6     1
         2         9     1
         2        10     1
         2        12     1
         2        26     1
         2        27     1
         3         4     1
         3         5     1
         3        27     1
         4        11     1
         4        18     1
         4        19     1
         4        28     1
         5         7     1
         5         8     1
         5        13     1
         5        17     1
         5        18     1
         5        28     1
         6         8     1
         6        18     1
         7         9     1
         7        10     1
         7        26     1
         8        12     1
         8        27     1
         9        13     1
         9        17     1
        10        11     1
        10        28     1
        11        14     1
        11        16     1
        11        29     1
        11        32     1
        12        15     1
        12        28     1
        12        30     1
        12        31     1
        13        16     1
        13        20     1
        13        32     1
        14        17     1
        14        21     1
        14        25     1
        14        31     1
        14        33     1
        15        22     1
        15        24     1
        15        29     1
        15        32     1
        15        34     1
        15        35     1
        15        41     1
        15        42     1
        16        21     1
        16        25     1
        16        30     1
        16        33     1
        17        20     1
        17        29     1
        18        26     1
        19        26     1
        19        27     1
        20        23     1
        20        30     1
        20        31     1
        20        36     1
        20        37     1
        20        39     1
        20        40     1
        21        24     1
        21        38     1
        21        41     1
        21        42     1
        21        43     1
        22        25     1
        22        33     1
        22        39     1
        22        40     1
        23        34     1
        23        35     1
        23        41     1
        23        42     1
        24        33     1
        24        36     1
        24        37     1
        25        34     1
        25        35     1
        25        38     1
        25        43     1
        29        30     1
        31        32     1
        33        34     1
        33        35     1
        33        41     1
        33        42     1
        34        36     1
        34        37     1
        35        36     1
        35        37     1
        36        38     1
        36        43     1
        37        38     1
        37        43     1
        38        39     1
        38        40     1
        39        41     1
        39        42     1
        39        43     1
        40        41     1
        40        42     1
        40        43     1
