; ITP file created by ByteFF-ML, 2026-02-21 07:51:45.349260

[ atomtypes ]
;name           bonded.type        at.num        mass        charge   ptype           sigma         epsilon
 c0bf                                   6      0.0000       0.00000       A     3.31469e-01     4.13543e-01
 c1bf                                   6      0.0000       0.00000       A     3.31449e-01     4.11368e-01
 c2bf                                   6      0.0000       0.00000       A     3.31519e-01     4.12388e-01
 c3bf                                   6      0.0000       0.00000       A     3.31577e-01     4.13395e-01
 n4bf                                   7      0.0000       0.00000       A     3.38346e-01     3.92604e-01
 c5bf                                   6      0.0000       0.00000       A     3.31516e-01     4.13861e-01
 c6bf                                   6      0.0000       0.00000       A     3.31376e-01     4.12268e-01
 c7bf                                   6      0.0000       0.00000       A     3.31457e-01     4.13299e-01
 n8bf                                   7      0.0000       0.00000       A     3.26530e-01     5.01306e-01
 o9bf                                   8      0.0000       0.00000       A     3.04637e-01     6.12097e-01
 c10bf                                  6      0.0000       0.00000       A     3.31679e-01     4.10311e-01
 c11bf                                  6      0.0000       0.00000       A     3.31392e-01     4.12437e-01
 c12bf                                  6      0.0000       0.00000       A     3.31466e-01     4.13000e-01
 c13bf                                  6      0.0000       0.00000       A     3.31522e-01     4.13168e-01
 c14bf                                  6      0.0000       0.00000       A     3.31447e-01     4.11819e-01
 c15bf                                  6      0.0000       0.00000       A     3.31522e-01     4.13168e-01
 c16bf                                  6      0.0000       0.00000       A     3.31466e-01     4.13000e-01
 f17bf                                  9      0.0000       0.00000       A     3.03423e-01     3.48794e-01
 f18bf                                  9      0.0000       0.00000       A     3.03385e-01     3.47311e-01
 c19bf                                  6      0.0000       0.00000       A     3.39727e-01     4.52095e-01
 c20bf                                  6      0.0000       0.00000       A     3.39812e-01     4.50631e-01
 c21bf                                  6      0.0000       0.00000       A     3.39889e-01     4.50524e-01
 n22bf                                  7      0.0000       0.00000       A     3.50855e-01     2.20674e-01
 c23bf                                  6      0.0000       0.00000       A     3.39889e-01     4.50524e-01
 c24bf                                  6      0.0000       0.00000       A     3.39812e-01     4.50631e-01
 h25bf                                  1      0.0000       0.00000       A     2.62434e-01     6.75074e-02
 h26bf                                  1      0.0000       0.00000       A     2.62554e-01     6.72616e-02
 h27bf                                  1      0.0000       0.00000       A     1.10472e-01     4.18202e-02
 h28bf                                  1      0.0000       0.00000       A     2.62498e-01     6.71961e-02
 h29bf                                  1      0.0000       0.00000       A     2.62590e-01     6.72871e-02
 h30bf                                  1      0.0000       0.00000       A     2.62590e-01     6.72871e-02
 h31bf                                  1      0.0000       0.00000       A     2.62498e-01     6.71961e-02
 h32bf                                  1      0.0000       0.00000       A     2.59875e-01     8.55493e-02
 h33bf                                  1      0.0000       0.00000       A     2.59783e-01     8.76992e-02
 h34bf                                  1      0.0000       0.00000       A     2.59783e-01     8.76992e-02
 h35bf                                  1      0.0000       0.00000       A     2.42202e-01     8.74071e-02
 h36bf                                  1      0.0000       0.00000       A     2.42202e-01     8.74071e-02
 h37bf                                  1      0.0000       0.00000       A     1.10441e-01     4.17675e-02
 h38bf                                  1      0.0000       0.00000       A     2.42202e-01     8.74071e-02
 h39bf                                  1      0.0000       0.00000       A     2.42202e-01     8.74071e-02
 h40bf                                  1      0.0000       0.00000       A     2.59783e-01     8.76992e-02
 h41bf                                  1      0.0000       0.00000       A     2.59783e-01     8.76992e-02

[ moleculetype ]
;name             nrexcl
 8c_neutral_equitorial       3

[ atoms ]
;       nr            type      resi   res      atom      cgnr      charge          mass ; qtot
         1            c0bf         1   UNL        c0         1     0.20556       12.0110 ; qtot    0.206
         2            c1bf         1   UNL        c1         2     0.14694       12.0110 ; qtot    0.352
         3            c2bf         1   UNL        c2         3    -0.16166       12.0110 ; qtot    0.191
         4            c3bf         1   UNL        c3         4    -0.16282       12.0110 ; qtot    0.028
         5            n4bf         1   UNL        n4         5    -0.60878       14.0070 ; qtot   -0.581
         6            c5bf         1   UNL        c5         6     0.17413       12.0110 ; qtot   -0.407
         7            c6bf         1   UNL        c6         7    -0.09019       12.0110 ; qtot   -0.497
         8            c7bf         1   UNL        c7         8     0.57130       12.0110 ; qtot    0.074
         9            n8bf         1   UNL        n8         9    -0.42566       14.0070 ; qtot   -0.351
        10            o9bf         1   UNL        o9        10    -0.52382       15.9990 ; qtot   -0.875
        11           c10bf         1   UNL       c10        11     0.56516       12.0110 ; qtot   -0.310
        12           c11bf         1   UNL       c11        12    -0.16133       12.0110 ; qtot   -0.471
        13           c12bf         1   UNL       c12        13    -0.06349       12.0110 ; qtot   -0.535
        14           c13bf         1   UNL       c13        14    -0.11583       12.0110 ; qtot   -0.650
        15           c14bf         1   UNL       c14        15    -0.05625       12.0110 ; qtot   -0.707
        16           c15bf         1   UNL       c15        16    -0.11583       12.0110 ; qtot   -0.823
        17           c16bf         1   UNL       c16        17    -0.06349       12.0110 ; qtot   -0.886
        18           f17bf         1   UNL       f17        18    -0.15051       18.9980 ; qtot   -1.037
        19           f18bf         1   UNL       f18        19    -0.16753       18.9980 ; qtot   -1.204
        20           c19bf         1   UNL       c19        20    -0.01836       12.0110 ; qtot   -1.222
        21           c20bf         1   UNL       c20        21    -0.08918       12.0110 ; qtot   -1.312
        22           c21bf         1   UNL       c21        22     0.15533       12.0110 ; qtot   -1.156
        23           n22bf         1   UNL       n22        23    -0.86035       14.0070 ; qtot   -2.017
        24           c23bf         1   UNL       c23        24     0.15533       12.0110 ; qtot   -1.861
        25           c24bf         1   UNL       c24        25    -0.08918       12.0110 ; qtot   -1.951
        26           h25bf         1   UNL       h25        26     0.15456        1.0080 ; qtot   -1.796
        27           h26bf         1   UNL       h26        27     0.16278        1.0080 ; qtot   -1.633
        28           h27bf         1   UNL       h27        28     0.33464        1.0080 ; qtot   -1.299
        29           h28bf         1   UNL       h28        29     0.12637        1.0080 ; qtot   -1.172
        30           h29bf         1   UNL       h29        30     0.11826        1.0080 ; qtot   -1.054
        31           h30bf         1   UNL       h30        31     0.11826        1.0080 ; qtot   -0.936
        32           h31bf         1   UNL       h31        32     0.12637        1.0080 ; qtot   -0.809
        33           h32bf         1   UNL       h32        33     0.04974        1.0080 ; qtot   -0.760
        34           h33bf         1   UNL       h33        34     0.04648        1.0080 ; qtot   -0.713
        35           h34bf         1   UNL       h34        35     0.04648        1.0080 ; qtot   -0.667
        36           h35bf         1   UNL       h35        36     0.04199        1.0080 ; qtot   -0.625
        37           h36bf         1   UNL       h36        37     0.04199        1.0080 ; qtot   -0.583
        38           h37bf         1   UNL       h37        38     0.40564        1.0080 ; qtot   -0.177
        39           h38bf         1   UNL       h38        39     0.04199        1.0080 ; qtot   -0.135
        40           h39bf         1   UNL       h39        40     0.04199        1.0080 ; qtot   -0.093
        41           h40bf         1   UNL       h40        41     0.04648        1.0080 ; qtot   -0.046
        42           h41bf         1   UNL       h41        42     0.04649        1.0080 ; qtot    0.000

[ bonds ]
;       ai        aj funct               r               k
         1         2     1        0.141516   257342.813965
         1         3     1        0.138015   338884.106592
         1        18     1        0.134510   310854.703027
         2         4     1        0.141588   266885.469922
         2         5     1        0.138040   262400.693848
         3         6     1        0.140396   288670.897021
         3        26     1        0.108391   328794.164844
         4         7     1        0.140396   296950.359863
         4         8     1        0.147042   199224.413428
         5        11     1        0.130068   422115.700488
         6         7     1        0.138116   323625.709277
         6        19     1        0.135309   296829.211816
         7        27     1        0.108362   329547.330811
         8         9     1        0.140079   211686.216357
         8        10     1        0.122716   614989.775391
         9        11     1        0.137808   256097.190381
         9        28     1        0.101480   412787.019971
        11        12     1        0.147967   203975.554321
        12        13     1        0.140529   288496.887158
        12        17     1        0.140529   288496.887158
        13        14     1        0.139372   327176.516650
        13        29     1        0.108523   320966.606689
        14        15     1        0.140392   284627.989551
        14        30     1        0.108643   316702.650000
        15        16     1        0.140392   284627.989551
        15        20     1        0.151655   188325.379443
        16        17     1        0.139372   327176.516650
        16        31     1        0.108643   316702.650000
        17        32     1        0.108523   320966.606689
        20        21     1        0.154679   165675.827637
        20        25     1        0.154679   165675.840405
        20        33     1        0.109655   295520.741406
        21        22     1        0.153693   178470.545093
        21        34     1        0.109520   295513.539941
        21        35     1        0.109520   295513.488867
        22        23     1        0.147225   195078.221118
        22        36     1        0.109764   286448.581152
        22        37     1        0.109764   286448.581152
        23        24     1        0.147225   195078.221118
        23        38     1        0.101662   401054.710107
        24        25     1        0.153693   178470.557861
        24        39     1        0.109764   286448.581152
        24        40     1        0.109764   286448.581152
        25        41     1        0.109520   295513.539941
        25        42     1        0.109520   295513.539941

[ angles ]
;       ai        aj        ak funct           theta             cth
         1         2         4     1      116.998856      597.928943
         1         2         5     1      119.256699      334.423450
         1         3         6     1      118.180176      726.949443
         1         3        26     1      120.853226      437.755692
         2         1         3     1      122.340820      639.348730
         2         1        18     1      118.626038      476.800560
         2         4         7     1      121.620316      706.739885
         2         4         8     1      118.537537      831.491154
         2         5        11     1      117.943092      314.437917
         3         1        18     1      118.845848      562.713780
         3         6         7     1      122.801292      604.334544
         3         6        19     1      117.518127      609.787100
         4         2         5     1      123.606468      729.867951
         4         7         6     1      117.939575      588.090134
         4         7        27     1      120.118553      419.798380
         4         8         9     1      112.884109      614.140922
         4         8        10     1      126.182739      459.112632
         5        11         9     1      122.630020      508.093159
         5        11        12     1      119.998001      393.059175
         6         3        26     1      120.872719      449.330100
         6         7        27     1      121.834068      425.412682
         7         4         8     1      119.677589      485.287052
         7         6        19     1      119.547897      496.812014
         8         9        11     1      125.008095      722.080537
         8         9        28     1      114.872902      510.195693
         9         8        10     1      120.697655      782.724149
         9        11        12     1      117.585876      652.864118
        11         9        28     1      120.287392      426.436337
        11        12        13     1      120.712769      547.631180
        11        12        17     1      120.712769      547.631180
        12        13        14     1      120.527023      676.175157
        12        13        29     1      119.841263      420.670951
        12        17        16     1      120.527023      676.175157
        12        17        32     1      119.841263      420.670951
        13        12        17     1      118.349464      541.357734
        13        14        15     1      121.269386      720.918982
        13        14        30     1      119.053787      439.591523
        14        13        29     1      119.561729      424.056949
        14        15        16     1      117.655472      607.059098
        14        15        20     1      121.105202      513.306432
        15        14        30     1      119.717445      419.014327
        15        16        17     1      121.269386      720.918982
        15        16        31     1      119.717445      419.014327
        15        20        21     1      112.573975      613.676083
        15        20        25     1      112.573975      613.676146
        15        20        33     1      107.172134      516.088318
        16        15        20     1      121.105202      513.306432
        16        17        32     1      119.561729      424.056949
        17        16        31     1      119.053787      439.591523
        20        21        22     1      111.043068      646.821144
        20        21        34     1      109.826332      470.766716
        20        21        35     1      109.826332      470.766716
        20        25        24     1      111.043068      646.821144
        20        25        41     1      109.826340      470.766716
        20        25        42     1      109.826340      470.766716
        21        20        25     1      109.361938      528.093217
        21        20        33     1      107.264709      483.733821
        21        22        23     1      111.783226      652.512855
        21        22        36     1      109.641586      502.527985
        21        22        37     1      109.641586      502.527985
        22        21        34     1      109.532944      520.022022
        22        21        35     1      109.532944      520.022022
        22        23        24     1      112.266098      616.909208
        22        23        38     1      109.213112      561.811363
        23        22        36     1      109.304245      461.193747
        23        22        37     1      109.304245      461.193747
        23        24        25     1      111.783241      652.512855
        23        24        39     1      109.304245      461.193747
        23        24        40     1      109.304245      461.193747
        24        23        38     1      109.213112      561.811363
        24        25        41     1      109.532959      520.022022
        24        25        42     1      109.532959      520.022022
        25        20        33     1      107.264709      483.733821
        25        24        39     1      109.641586      502.528017
        25        24        40     1      109.641586      502.528017
        34        21        35     1      106.809036      359.764690
        36        22        37     1      106.732559      348.933476
        39        24        40     1      106.732559      348.933508
        41        25        42     1      106.809044      359.764690

[ dihedrals ] ; propers for gromacs 4.5 or higher, use funct 9
;       ai        aj        ak        al funct           phase               k        pn
         1         2         4         7     9        0.000000       -0.068050         1
         1         2         4         7     9      180.000000       12.841169         2
         1         2         4         7     9        0.000000       -1.342913         3
         1         2         4         7     9      180.000000       -0.100268         4
         1         2         4         8     9        0.000000        0.451537         1
         1         2         4         8     9      180.000000       11.194029         2
         1         2         4         8     9        0.000000       -0.232623         3
         1         2         4         8     9      180.000000       -0.176488         4
         1         2         5        11     9        0.000000        1.370628         1
         1         2         5        11     9      180.000000        6.572996         2
         1         2         5        11     9        0.000000        1.128560         3
         1         2         5        11     9      180.000000       -0.314879         4
         1         3         6         7     9        0.000000       -0.080901         1
         1         3         6         7     9      180.000000       15.477959         2
         1         3         6         7     9        0.000000       -1.154677         3
         1         3         6         7     9      180.000000       -0.291169         4
         1         3         6        19     9        0.000000        0.266036         1
         1         3         6        19     9      180.000000       21.340951         2
         1         3         6        19     9        0.000000        0.509455         3
         1         3         6        19     9      180.000000       -0.728357         4
         2         1         3         6     9        0.000000       -0.191814         1
         2         1         3         6     9      180.000000       18.498326         2
         2         1         3         6     9        0.000000       -1.125692         3
         2         1         3         6     9      180.000000       -0.483757         4
         2         1         3        26     9        0.000000        0.318368         1
         2         1         3        26     9      180.000000       12.888935         2
         2         1         3        26     9        0.000000       -0.446930         3
         2         1         3        26     9      180.000000        0.173508         4
         2         4         7         6     9        0.000000       -0.176486         1
         2         4         7         6     9      180.000000       17.564115         2
         2         4         7         6     9        0.000000       -1.320364         3
         2         4         7         6     9      180.000000       -0.300191         4
         2         4         7        27     9        0.000000        0.198699         1
         2         4         7        27     9      180.000000       12.188015         2
         2         4         7        27     9        0.000000       -0.404744         3
         2         4         7        27     9      180.000000        0.064611         4
         2         4         8         9     9        0.000000        0.092060         1
         2         4         8         9     9      180.000000        4.263972         2
         2         4         8         9     9        0.000000        0.117532         3
         2         4         8         9     9      180.000000        0.063161         4
         2         4         8        10     9        0.000000       -0.572819         1
         2         4         8        10     9      180.000000        8.041957         2
         2         4         8        10     9        0.000000        0.130331         3
         2         4         8        10     9      180.000000       -0.474173         4
         2         5        11         9     9        0.000000       -0.221677         1
         2         5        11         9     9      180.000000       36.314388         2
         2         5        11         9     9        0.000000       -0.478930         3
         2         5        11         9     9      180.000000       -1.116168         4
         2         5        11        12     9        0.000000        0.575942         1
         2         5        11        12     9      180.000000       31.284342         2
         2         5        11        12     9        0.000000        1.339249         3
         2         5        11        12     9      180.000000       -1.417088         4
         3         1         2         4     9        0.000000       -0.155509         1
         3         1         2         4     9      180.000000       12.926970         2
         3         1         2         4     9        0.000000       -0.657216         3
         3         1         2         4     9      180.000000       -0.149085         4
         3         1         2         5     9        0.000000        0.249099         1
         3         1         2         5     9      180.000000       12.246127         2
         3         1         2         5     9        0.000000       -0.100682         3
         3         1         2         5     9      180.000000       -0.063551         4
         3         6         7         4     9        0.000000        0.014640         1
         3         6         7         4     9      180.000000       18.232995         2
         3         6         7         4     9        0.000000       -1.154104         3
         3         6         7         4     9      180.000000       -0.466027         4
         3         6         7        27     9        0.000000        0.108494         1
         3         6         7        27     9      180.000000       13.797086         2
         3         6         7        27     9        0.000000       -0.396524         3
         3         6         7        27     9      180.000000        0.129282         4
         4         2         1        18     9        0.000000        0.413114         1
         4         2         1        18     9      180.000000       18.432390         2
         4         2         1        18     9        0.000000        0.570681         3
         4         2         1        18     9      180.000000       -0.583435         4
         4         2         5        11     9        0.000000        0.169731         1
         4         2         5        11     9      180.000000        5.989577         2
         4         2         5        11     9        0.000000        0.898037         3
         4         2         5        11     9      180.000000       -0.230208         4
         4         7         6        19     9        0.000000        0.287424         1
         4         7         6        19     9      180.000000       23.166484         2
         4         7         6        19     9        0.000000        0.584851         3
         4         7         6        19     9      180.000000       -0.783474         4
         4         8         9        11     9        0.000000       -0.372629         1
         4         8         9        11     9      180.000000        3.156633         2
         4         8         9        11     9        0.000000        0.195160         3
         4         8         9        11     9      180.000000        0.103147         4
         4         8         9        28     9        0.000000       -0.869836         1
         4         8         9        28     9      180.000000        6.959391         2
         4         8         9        28     9        0.000000        0.072155         3
         4         8         9        28     9      180.000000       -0.064628         4
         5         2         1        18     9        0.000000       -0.378001         1
         5         2         1        18     9      180.000000       20.403741         2
         5         2         1        18     9        0.000000        0.531460         3
         5         2         1        18     9      180.000000       -1.205267         4
         5         2         4         7     9        0.000000        0.180453         1
         5         2         4         7     9      180.000000       13.642927         2
         5         2         4         7     9        0.000000       -0.103332         3
         5         2         4         7     9      180.000000       -0.159452         4
         5         2         4         8     9        0.000000        0.531794         1
         5         2         4         8     9      180.000000       12.532993         2
         5         2         4         8     9        0.000000        0.438956         3
         5         2         4         8     9      180.000000       -0.460909         4
         5        11         9         8     9        0.000000       -0.073413         1
         5        11         9         8     9      180.000000        7.441708         2
         5        11         9         8     9        0.000000        0.158792         3
         5        11         9         8     9      180.000000       -0.231811         4
         5        11         9        28     9        0.000000        1.722155         1
         5        11         9        28     9      180.000000        6.896207         2
         5        11         9        28     9        0.000000       -0.253035         3
         5        11         9        28     9      180.000000       -0.129323         4
         5        11        12        13     9        0.000000       -0.159612         1
         5        11        12        13     9      180.000000        3.776065         2
         5        11        12        13     9        0.000000       -0.084671         3
         5        11        12        13     9      180.000000       -0.056523         4
         5        11        12        17     9        0.000000       -0.159612         1
         5        11        12        17     9      180.000000        3.776065         2
         5        11        12        17     9        0.000000       -0.084671         3
         5        11        12        17     9      180.000000       -0.056523         4
         6         3         1        18     9        0.000000        0.429147         1
         6         3         1        18     9      180.000000       24.311611         2
         6         3         1        18     9        0.000000        0.510284         3
         6         3         1        18     9      180.000000       -0.773537         4
         6         7         4         8     9        0.000000        0.136320         1
         6         7         4         8     9      180.000000       14.241003         2
         6         7         4         8     9        0.000000       -0.271618         3
         6         7         4         8     9      180.000000       -0.263053         4
         7         4         8         9     9        0.000000       -0.130493         1
         7         4         8         9     9      180.000000        4.591644         2
         7         4         8         9     9        0.000000        0.284813         3
         7         4         8         9     9      180.000000        0.097161         4
         7         4         8        10     9        0.000000       -1.022891         1
         7         4         8        10     9      180.000000        6.387392         2
         7         4         8        10     9        0.000000       -0.069060         3
         7         4         8        10     9      180.000000       -0.065228         4
         7         6         3        26     9        0.000000        0.006922         1
         7         6         3        26     9      180.000000       12.064686         2
         7         6         3        26     9        0.000000       -0.488782         3
         7         6         3        26     9      180.000000        0.145209         4
         8         4         7        27     9        0.000000        0.022268         1
         8         4         7        27     9      180.000000       10.637904         2
         8         4         7        27     9        0.000000       -0.392591         3
         8         4         7        27     9      180.000000        0.076081         4
         8         9        11        12     9        0.000000        0.334854         1
         8         9        11        12     9      180.000000        7.645409         2
         8         9        11        12     9        0.000000        0.236489         3
         8         9        11        12     9      180.000000       -0.346968         4
         9        11        12        13     9        0.000000        0.011290         1
         9        11        12        13     9      180.000000        3.903845         2
         9        11        12        13     9        0.000000        0.201286         3
         9        11        12        13     9      180.000000       -0.307834         4
         9        11        12        17     9        0.000000        0.011290         1
         9        11        12        17     9      180.000000        3.903845         2
         9        11        12        17     9        0.000000        0.201286         3
         9        11        12        17     9      180.000000       -0.307834         4
        10         8         9        11     9        0.000000       -0.481963         1
        10         8         9        11     9      180.000000        9.453114         2
        10         8         9        11     9        0.000000       -0.292875         3
        10         8         9        11     9      180.000000       -0.413274         4
        10         8         9        28     9        0.000000        0.203648         1
        10         8         9        28     9      180.000000       10.140765         2
        10         8         9        28     9        0.000000       -0.579893         3
        10         8         9        28     9      180.000000        0.238454         4
        11        12        13        14     9        0.000000       -0.009249         1
        11        12        13        14     9      180.000000       14.798544         2
        11        12        13        14     9        0.000000       -0.370350         3
        11        12        13        14     9      180.000000       -0.166421         4
        11        12        13        29     9        0.000000       -0.038974         1
        11        12        13        29     9      180.000000       12.281983         2
        11        12        13        29     9        0.000000       -0.355151         3
        11        12        13        29     9      180.000000        0.180122         4
        11        12        17        16     9        0.000000       -0.009249         1
        11        12        17        16     9      180.000000       14.798544         2
        11        12        17        16     9        0.000000       -0.370350         3
        11        12        17        16     9      180.000000       -0.166421         4
        11        12        17        32     9        0.000000       -0.038974         1
        11        12        17        32     9      180.000000       12.281983         2
        11        12        17        32     9        0.000000       -0.355151         3
        11        12        17        32     9      180.000000        0.180122         4
        12        11         9        28     9        0.000000       -0.470908         1
        12        11         9        28     9      180.000000        6.355727         2
        12        11         9        28     9        0.000000       -0.142069         3
        12        11         9        28     9      180.000000       -0.142846         4
        12        13        14        15     9        0.000000       -0.038666         1
        12        13        14        15     9      180.000000       19.438618         2
        12        13        14        15     9        0.000000       -1.649569         3
        12        13        14        15     9      180.000000       -0.397374         4
        12        13        14        30     9        0.000000       -0.043856         1
        12        13        14        30     9      180.000000       15.207769         2
        12        13        14        30     9        0.000000       -0.422550         3
        12        13        14        30     9      180.000000        0.110075         4
        12        17        16        15     9        0.000000       -0.038666         1
        12        17        16        15     9      180.000000       19.438618         2
        12        17        16        15     9        0.000000       -1.649569         3
        12        17        16        15     9      180.000000       -0.397374         4
        12        17        16        31     9        0.000000       -0.043856         1
        12        17        16        31     9      180.000000       15.207769         2
        12        17        16        31     9        0.000000       -0.422550         3
        12        17        16        31     9      180.000000        0.110075         4
        13        12        17        16     9        0.000000       -0.127803         1
        13        12        17        16     9      180.000000       18.008141         2
        13        12        17        16     9        0.000000       -1.474548         3
        13        12        17        16     9      180.000000       -0.362123         4
        13        12        17        32     9        0.000000       -0.072046         1
        13        12        17        32     9      180.000000       13.795444         2
        13        12        17        32     9        0.000000       -0.607069         3
        13        12        17        32     9      180.000000        0.101975         4
        13        14        15        16     9        0.000000       -0.058762         1
        13        14        15        16     9      180.000000       18.504237         2
        13        14        15        16     9        0.000000       -1.315277         3
        13        14        15        16     9      180.000000       -0.351233         4
        13        14        15        20     9        0.000000        0.100921         1
        13        14        15        20     9      180.000000       15.299008         2
        13        14        15        20     9        0.000000       -0.110324         3
        13        14        15        20     9      180.000000       -0.262184         4
        14        13        12        17     9        0.000000       -0.127803         1
        14        13        12        17     9      180.000000       18.008141         2
        14        13        12        17     9        0.000000       -1.474548         3
        14        13        12        17     9      180.000000       -0.362123         4
        14        15        16        17     9        0.000000       -0.058762         1
        14        15        16        17     9      180.000000       18.504237         2
        14        15        16        17     9        0.000000       -1.315277         3
        14        15        16        17     9      180.000000       -0.351233         4
        14        15        16        31     9        0.000000       -0.027720         1
        14        15        16        31     9      180.000000       14.565368         2
        14        15        16        31     9        0.000000       -0.584391         3
        14        15        16        31     9      180.000000        0.027117         4
        14        15        20        21     9        0.000000        0.042295         1
        14        15        20        21     9      180.000000        0.619745         2
        14        15        20        21     9        0.000000        0.225455         3
        14        15        20        21     9      180.000000        0.056533         4
        14        15        20        25     9        0.000000        0.042295         1
        14        15        20        25     9      180.000000        0.619745         2
        14        15        20        25     9        0.000000        0.225455         3
        14        15        20        25     9      180.000000        0.056533         4
        14        15        20        33     9        0.000000        0.130500         1
        14        15        20        33     9      180.000000       -0.161163         2
        14        15        20        33     9        0.000000        0.065723         3
        14        15        20        33     9      180.000000        0.006247         4
        15        14        13        29     9        0.000000        0.017078         1
        15        14        13        29     9      180.000000       14.953510         2
        15        14        13        29     9        0.000000       -0.592809         3
        15        14        13        29     9      180.000000        0.152132         4
        15        16        17        32     9        0.000000        0.017078         1
        15        16        17        32     9      180.000000       14.953510         2
        15        16        17        32     9        0.000000       -0.592809         3
        15        16        17        32     9      180.000000        0.152132         4
        15        20        21        22     9        0.000000       -0.749481         1
        15        20        21        22     9      180.000000       -0.409459         2
        15        20        21        22     9        0.000000        0.406223         3
        15        20        21        22     9      180.000000        0.088027         4
        15        20        21        34     9        0.000000       -0.017636         1
        15        20        21        34     9      180.000000        0.028847         2
        15        20        21        34     9        0.000000        0.512573         3
        15        20        21        34     9      180.000000       -0.065567         4
        15        20        21        35     9        0.000000       -0.017636         1
        15        20        21        35     9      180.000000        0.028847         2
        15        20        21        35     9        0.000000        0.512573         3
        15        20        21        35     9      180.000000       -0.065567         4
        15        20        25        24     9        0.000000       -0.749482         1
        15        20        25        24     9      180.000000       -0.409459         2
        15        20        25        24     9        0.000000        0.406223         3
        15        20        25        24     9      180.000000        0.088027         4
        15        20        25        41     9        0.000000       -0.017636         1
        15        20        25        41     9      180.000000        0.028846         2
        15        20        25        41     9        0.000000        0.512573         3
        15        20        25        41     9      180.000000       -0.065567         4
        15        20        25        42     9        0.000000       -0.017636         1
        15        20        25        42     9      180.000000        0.028846         2
        15        20        25        42     9        0.000000        0.512573         3
        15        20        25        42     9      180.000000       -0.065567         4
        16        15        14        30     9        0.000000       -0.027720         1
        16        15        14        30     9      180.000000       14.565368         2
        16        15        14        30     9        0.000000       -0.584391         3
        16        15        14        30     9      180.000000        0.027117         4
        16        15        20        21     9        0.000000        0.042295         1
        16        15        20        21     9      180.000000        0.619745         2
        16        15        20        21     9        0.000000        0.225455         3
        16        15        20        21     9      180.000000        0.056533         4
        16        15        20        25     9        0.000000        0.042295         1
        16        15        20        25     9      180.000000        0.619745         2
        16        15        20        25     9        0.000000        0.225455         3
        16        15        20        25     9      180.000000        0.056533         4
        16        15        20        33     9        0.000000        0.130500         1
        16        15        20        33     9      180.000000       -0.161163         2
        16        15        20        33     9        0.000000        0.065723         3
        16        15        20        33     9      180.000000        0.006247         4
        17        12        13        29     9        0.000000       -0.072046         1
        17        12        13        29     9      180.000000       13.795444         2
        17        12        13        29     9        0.000000       -0.607069         3
        17        12        13        29     9      180.000000        0.101975         4
        17        16        15        20     9        0.000000        0.100921         1
        17        16        15        20     9      180.000000       15.299008         2
        17        16        15        20     9        0.000000       -0.110324         3
        17        16        15        20     9      180.000000       -0.262184         4
        18         1         3        26     9        0.000000        0.326095         1
        18         1         3        26     9      180.000000       17.115573         2
        18         1         3        26     9        0.000000        0.227549         3
        18         1         3        26     9      180.000000        0.168735         4
        19         6         3        26     9        0.000000        0.320920         1
        19         6         3        26     9      180.000000       14.167953         2
        19         6         3        26     9        0.000000        0.188410         3
        19         6         3        26     9      180.000000        0.267271         4
        19         6         7        27     9        0.000000        0.233725         1
        19         6         7        27     9      180.000000       16.135295         2
        19         6         7        27     9        0.000000        0.302844         3
        19         6         7        27     9      180.000000        0.207605         4
        20        15        14        30     9        0.000000       -0.059949         1
        20        15        14        30     9      180.000000       12.839852         2
        20        15        14        30     9        0.000000       -0.332872         3
        20        15        14        30     9      180.000000        0.211972         4
        20        15        16        31     9        0.000000       -0.059949         1
        20        15        16        31     9      180.000000       12.839852         2
        20        15        16        31     9        0.000000       -0.332872         3
        20        15        16        31     9      180.000000        0.211972         4
        20        21        22        23     9        0.000000        0.610135         1
        20        21        22        23     9      180.000000       -1.424305         2
        20        21        22        23     9        0.000000        0.364101         3
        20        21        22        23     9      180.000000       -0.007609         4
        20        21        22        36     9        0.000000       -0.042894         1
        20        21        22        36     9      180.000000        0.077348         2
        20        21        22        36     9        0.000000        0.261986         3
        20        21        22        36     9      180.000000       -0.007694         4
        20        21        22        37     9        0.000000       -0.042894         1
        20        21        22        37     9      180.000000        0.077348         2
        20        21        22        37     9        0.000000        0.261986         3
        20        21        22        37     9      180.000000       -0.007694         4
        20        25        24        23     9        0.000000        0.610134         1
        20        25        24        23     9      180.000000       -1.424305         2
        20        25        24        23     9        0.000000        0.364101         3
        20        25        24        23     9      180.000000       -0.007609         4
        20        25        24        39     9        0.000000       -0.042893         1
        20        25        24        39     9      180.000000        0.077348         2
        20        25        24        39     9        0.000000        0.261986         3
        20        25        24        39     9      180.000000       -0.007693         4
        20        25        24        40     9        0.000000       -0.042893         1
        20        25        24        40     9      180.000000        0.077348         2
        20        25        24        40     9        0.000000        0.261986         3
        20        25        24        40     9      180.000000       -0.007693         4
        21        20        25        24     9        0.000000        1.661153         1
        21        20        25        24     9      180.000000       -2.191839         2
        21        20        25        24     9        0.000000        0.201441         3
        21        20        25        24     9      180.000000       -0.064430         4
        21        20        25        41     9        0.000000       -0.030051         1
        21        20        25        41     9      180.000000        0.026167         2
        21        20        25        41     9        0.000000        0.336962         3
        21        20        25        41     9      180.000000        0.020449         4
        21        20        25        42     9        0.000000       -0.030051         1
        21        20        25        42     9      180.000000        0.026167         2
        21        20        25        42     9        0.000000        0.336962         3
        21        20        25        42     9      180.000000        0.020449         4
        21        22        23        24     9        0.000000        1.436354         1
        21        22        23        24     9      180.000000       -1.435506         2
        21        22        23        24     9        0.000000        0.509161         3
        21        22        23        24     9      180.000000        0.187415         4
        21        22        23        38     9        0.000000        2.627917         1
        21        22        23        38     9      180.000000       -1.048024         2
        21        22        23        38     9        0.000000        0.425103         3
        21        22        23        38     9      180.000000        0.468095         4
        22        21        20        25     9        0.000000        1.661153         1
        22        21        20        25     9      180.000000       -2.191839         2
        22        21        20        25     9        0.000000        0.201441         3
        22        21        20        25     9      180.000000       -0.064430         4
        22        21        20        33     9        0.000000       -0.427502         1
        22        21        20        33     9      180.000000       -0.001846         2
        22        21        20        33     9        0.000000        0.215690         3
        22        21        20        33     9      180.000000        0.091854         4
        22        23        24        25     9        0.000000        1.436353         1
        22        23        24        25     9      180.000000       -1.435506         2
        22        23        24        25     9        0.000000        0.509161         3
        22        23        24        25     9      180.000000        0.187414         4
        22        23        24        39     9        0.000000       -0.085301         1
        22        23        24        39     9      180.000000        0.077809         2
        22        23        24        39     9        0.000000        0.492761         3
        22        23        24        39     9      180.000000        0.016611         4
        22        23        24        40     9        0.000000       -0.085301         1
        22        23        24        40     9      180.000000        0.077809         2
        22        23        24        40     9        0.000000        0.492761         3
        22        23        24        40     9      180.000000        0.016611         4
        23        22        21        34     9        0.000000       -0.024741         1
        23        22        21        34     9      180.000000        0.028771         2
        23        22        21        34     9        0.000000        0.288433         3
        23        22        21        34     9      180.000000        0.009044         4
        23        22        21        35     9        0.000000       -0.024741         1
        23        22        21        35     9      180.000000        0.028771         2
        23        22        21        35     9        0.000000        0.288433         3
        23        22        21        35     9      180.000000        0.009044         4
        23        24        25        41     9        0.000000       -0.024742         1
        23        24        25        41     9      180.000000        0.028771         2
        23        24        25        41     9        0.000000        0.288433         3
        23        24        25        41     9      180.000000        0.009045         4
        23        24        25        42     9        0.000000       -0.024742         1
        23        24        25        42     9      180.000000        0.028771         2
        23        24        25        42     9        0.000000        0.288433         3
        23        24        25        42     9      180.000000        0.009045         4
        24        23        22        36     9        0.000000       -0.085300         1
        24        23        22        36     9      180.000000        0.077810         2
        24        23        22        36     9        0.000000        0.492761         3
        24        23        22        36     9      180.000000        0.016611         4
        24        23        22        37     9        0.000000       -0.085300         1
        24        23        22        37     9      180.000000        0.077810         2
        24        23        22        37     9        0.000000        0.492761         3
        24        23        22        37     9      180.000000        0.016611         4
        24        25        20        33     9        0.000000       -0.427502         1
        24        25        20        33     9      180.000000       -0.001846         2
        24        25        20        33     9        0.000000        0.215691         3
        24        25        20        33     9      180.000000        0.091854         4
        25        20        21        34     9        0.000000       -0.030051         1
        25        20        21        34     9      180.000000        0.026167         2
        25        20        21        34     9        0.000000        0.336962         3
        25        20        21        34     9      180.000000        0.020449         4
        25        20        21        35     9        0.000000       -0.030051         1
        25        20        21        35     9      180.000000        0.026167         2
        25        20        21        35     9        0.000000        0.336962         3
        25        20        21        35     9      180.000000        0.020449         4
        25        24        23        38     9        0.000000        2.627918         1
        25        24        23        38     9      180.000000       -1.048024         2
        25        24        23        38     9        0.000000        0.425103         3
        25        24        23        38     9      180.000000        0.468096         4
        29        13        14        30     9        0.000000       -0.219156         1
        29        13        14        30     9      180.000000       12.249174         2
        29        13        14        30     9        0.000000       -0.751301         3
        29        13        14        30     9      180.000000        0.403016         4
        31        16        17        32     9        0.000000       -0.219156         1
        31        16        17        32     9      180.000000       12.249174         2
        31        16        17        32     9        0.000000       -0.751301         3
        31        16        17        32     9      180.000000        0.403016         4
        33        20        21        34     9        0.000000        0.005932         1
        33        20        21        34     9      180.000000       -0.000309         2
        33        20        21        34     9        0.000000        0.444552         3
        33        20        21        34     9      180.000000       -0.027095         4
        33        20        21        35     9        0.000000        0.005932         1
        33        20        21        35     9      180.000000       -0.000309         2
        33        20        21        35     9        0.000000        0.444552         3
        33        20        21        35     9      180.000000       -0.027095         4
        33        20        25        41     9        0.000000        0.005932         1
        33        20        25        41     9      180.000000       -0.000310         2
        33        20        25        41     9        0.000000        0.444552         3
        33        20        25        41     9      180.000000       -0.027094         4
        33        20        25        42     9        0.000000        0.005932         1
        33        20        25        42     9      180.000000       -0.000310         2
        33        20        25        42     9        0.000000        0.444552         3
        33        20        25        42     9      180.000000       -0.027094         4
        34        21        22        36     9        0.000000       -0.014882         1
        34        21        22        36     9      180.000000       -0.006379         2
        34        21        22        36     9        0.000000        0.303314         3
        34        21        22        36     9      180.000000       -0.000932         4
        34        21        22        37     9        0.000000       -0.014882         1
        34        21        22        37     9      180.000000       -0.006379         2
        34        21        22        37     9        0.000000        0.303314         3
        34        21        22        37     9      180.000000       -0.000932         4
        35        21        22        36     9        0.000000       -0.014882         1
        35        21        22        36     9      180.000000       -0.006379         2
        35        21        22        36     9        0.000000        0.303314         3
        35        21        22        36     9      180.000000       -0.000932         4
        35        21        22        37     9        0.000000       -0.014882         1
        35        21        22        37     9      180.000000       -0.006379         2
        35        21        22        37     9        0.000000        0.303314         3
        35        21        22        37     9      180.000000       -0.000932         4
        36        22        23        38     9        0.000000       -0.138136         1
        36        22        23        38     9      180.000000        0.127766         2
        36        22        23        38     9        0.000000        0.623494         3
        36        22        23        38     9      180.000000       -0.068996         4
        37        22        23        38     9        0.000000       -0.138136         1
        37        22        23        38     9      180.000000        0.127766         2
        37        22        23        38     9        0.000000        0.623494         3
        37        22        23        38     9      180.000000       -0.068996         4
        38        23        24        39     9        0.000000       -0.138137         1
        38        23        24        39     9      180.000000        0.127765         2
        38        23        24        39     9        0.000000        0.623494         3
        38        23        24        39     9      180.000000       -0.068996         4
        38        23        24        40     9        0.000000       -0.138137         1
        38        23        24        40     9      180.000000        0.127765         2
        38        23        24        40     9        0.000000        0.623494         3
        38        23        24        40     9      180.000000       -0.068996         4
        39        24        25        41     9        0.000000       -0.014881         1
        39        24        25        41     9      180.000000       -0.006379         2
        39        24        25        41     9        0.000000        0.303314         3
        39        24        25        41     9      180.000000       -0.000932         4
        39        24        25        42     9        0.000000       -0.014881         1
        39        24        25        42     9      180.000000       -0.006379         2
        39        24        25        42     9        0.000000        0.303314         3
        39        24        25        42     9      180.000000       -0.000932         4
        40        24        25        41     9        0.000000       -0.014881         1
        40        24        25        41     9      180.000000       -0.006379         2
        40        24        25        41     9        0.000000        0.303314         3
        40        24        25        41     9      180.000000       -0.000932         4
        40        24        25        42     9        0.000000       -0.014881         1
        40        24        25        42     9      180.000000       -0.006379         2
        40        24        25        42     9        0.000000        0.303314         3
        40        24        25        42     9      180.000000       -0.000932         4

[ dihedrals ] ; impropers
;       ai        aj        ak        al funct           phase               k        pn
         2         1         4         5     4      180.000000        8.044710         2
         2         4         5         1     4      180.000000        8.044710         2
         2         5         1         4     4      180.000000        8.044710         2
         6         3         7        19     4      180.000000        0.800443         2
         6         7        19         3     4      180.000000        0.800443         2
         6        19         3         7     4      180.000000        0.800443         2
         8         4         9        10     4      180.000000       27.893333         2
         8         9        10         4     4      180.000000       27.893333         2
         8        10         4         9     4      180.000000       27.893333         2
        11         5         9        12     4      180.000000        8.954567         2
        11         9        12         5     4      180.000000        8.954567         2
        11        12         5         9     4      180.000000        8.954567         2

[ pairs ]
;       ai        aj funct
         1         7     1
         1         8     1
         1        11     1
         1        19     1
         2         6     1
         2         9     1
         2        10     1
         2        12     1
         2        26     1
         2        27     1
         3         4     1
         3         5     1
         3        27     1
         4        11     1
         4        18     1
         4        19     1
         4        28     1
         5         7     1
         5         8     1
         5        13     1
         5        17     1
         5        18     1
         5        28     1
         6         8     1
         6        18     1
         7         9     1
         7        10     1
         7        26     1
         8        12     1
         8        27     1
         9        13     1
         9        17     1
        10        11     1
        10        28     1
        11        14     1
        11        16     1
        11        29     1
        11        32     1
        12        15     1
        12        28     1
        12        30     1
        12        31     1
        13        16     1
        13        20     1
        13        32     1
        14        17     1
        14        21     1
        14        25     1
        14        31     1
        14        33     1
        15        22     1
        15        24     1
        15        29     1
        15        32     1
        15        34     1
        15        35     1
        15        41     1
        15        42     1
        16        21     1
        16        25     1
        16        30     1
        16        33     1
        17        20     1
        17        29     1
        18        26     1
        19        26     1
        19        27     1
        20        23     1
        20        30     1
        20        31     1
        20        36     1
        20        37     1
        20        39     1
        20        40     1
        21        24     1
        21        38     1
        21        41     1
        21        42     1
        22        25     1
        22        33     1
        22        39     1
        22        40     1
        23        34     1
        23        35     1
        23        41     1
        23        42     1
        24        33     1
        24        36     1
        24        37     1
        25        34     1
        25        35     1
        25        38     1
        29        30     1
        31        32     1
        33        34     1
        33        35     1
        33        41     1
        33        42     1
        34        36     1
        34        37     1
        35        36     1
        35        37     1
        36        38     1
        37        38     1
        38        39     1
        38        40     1
        39        41     1
        39        42     1
        40        41     1
        40        42     1
