; ITP file created by ByteFF-ML, 2026-02-21 07:51:29.841964

[ atomtypes ]
;name           bonded.type        at.num        mass        charge   ptype           sigma         epsilon
 c0bf                                   6      0.0000       0.00000       A     3.31578e-01     4.12068e-01
 c1bf                                   6      0.0000       0.00000       A     3.31576e-01     4.10891e-01
 c2bf                                   6      0.0000       0.00000       A     3.31513e-01     4.11807e-01
 c3bf                                   6      0.0000       0.00000       A     3.31456e-01     4.13894e-01
 n4bf                                   7      0.0000       0.00000       A     3.38308e-01     3.91379e-01
 c5bf                                   6      0.0000       0.00000       A     3.31534e-01     4.13573e-01
 c6bf                                   6      0.0000       0.00000       A     3.31406e-01     4.12413e-01
 c7bf                                   6      0.0000       0.00000       A     3.31420e-01     4.13088e-01
 n8bf                                   7      0.0000       0.00000       A     3.26530e-01     5.01306e-01
 o9bf                                   8      0.0000       0.00000       A     3.04637e-01     6.12097e-01
 c10bf                                  6      0.0000       0.00000       A     3.31630e-01     4.10739e-01
 c11bf                                  6      0.0000       0.00000       A     3.31392e-01     4.12437e-01
 c12bf                                  6      0.0000       0.00000       A     3.31466e-01     4.13000e-01
 c13bf                                  6      0.0000       0.00000       A     3.31522e-01     4.13168e-01
 c14bf                                  6      0.0000       0.00000       A     3.31525e-01     4.11422e-01
 c15bf                                  6      0.0000       0.00000       A     3.31522e-01     4.13168e-01
 c16bf                                  6      0.0000       0.00000       A     3.31466e-01     4.13000e-01
 c17bf                                  6      0.0000       0.00000       A     3.39811e-01     4.51787e-01
 f18bf                                  9      0.0000       0.00000       A     3.03353e-01     3.47341e-01
 c19bf                                  6      0.0000       0.00000       A     3.39887e-01     4.50285e-01
 c20bf                                  6      0.0000       0.00000       A     3.39899e-01     4.48689e-01
 c21bf                                  6      0.0000       0.00000       A     3.39777e-01     4.49589e-01
 n22bf                                  7      0.0000       0.00000       A     2.58272e-01     1.06572e+01
 c23bf                                  6      0.0000       0.00000       A     3.39777e-01     4.49589e-01
 c24bf                                  6      0.0000       0.00000       A     3.39899e-01     4.48689e-01
 c25bf                                  6      0.0000       0.00000       A     3.39672e-01     4.50163e-01
 h26bf                                  1      0.0000       0.00000       A     2.62463e-01     6.75281e-02
 h27bf                                  1      0.0000       0.00000       A     2.62554e-01     6.72616e-02
 h28bf                                  1      0.0000       0.00000       A     1.10472e-01     4.18202e-02
 h29bf                                  1      0.0000       0.00000       A     2.62498e-01     6.71961e-02
 h30bf                                  1      0.0000       0.00000       A     2.62590e-01     6.72871e-02
 h31bf                                  1      0.0000       0.00000       A     2.62590e-01     6.72871e-02
 h32bf                                  1      0.0000       0.00000       A     2.62498e-01     6.71961e-02
 h33bf                                  1      0.0000       0.00000       A     2.59974e-01     8.74439e-02
 h34bf                                  1      0.0000       0.00000       A     2.59974e-01     8.74439e-02
 h35bf                                  1      0.0000       0.00000       A     2.59974e-01     8.74439e-02
 h36bf                                  1      0.0000       0.00000       A     2.59946e-01     8.63793e-02
 h37bf                                  1      0.0000       0.00000       A     2.59848e-01     8.85148e-02
 h38bf                                  1      0.0000       0.00000       A     2.59848e-01     8.85148e-02
 h39bf                                  1      0.0000       0.00000       A     1.88265e-01     8.72619e-02
 h40bf                                  1      0.0000       0.00000       A     1.88265e-01     8.72619e-02
 h41bf                                  1      0.0000       0.00000       A     1.88265e-01     8.72619e-02
 h42bf                                  1      0.0000       0.00000       A     1.88265e-01     8.72619e-02
 h43bf                                  1      0.0000       0.00000       A     2.59848e-01     8.85148e-02
 h44bf                                  1      0.0000       0.00000       A     2.59848e-01     8.85148e-02
 h45bf                                  1      0.0000       0.00000       A     1.88367e-01     8.68900e-02
 h46bf                                  1      0.0000       0.00000       A     1.88367e-01     8.68900e-02
 h47bf                                  1      0.0000       0.00000       A     1.88367e-01     8.68900e-02
 h48bf                                  1      0.0000       0.00000       A     1.10621e-01     4.17356e-02

[ moleculetype ]
;name             nrexcl
 8f                    3

[ atoms ]
;       nr            type      resi   res      atom      cgnr      charge          mass ; qtot
         1            c0bf         1   UNL        c0         1    -0.03332       12.0110 ; qtot   -0.033
         2            c1bf         1   UNL        c1         2     0.17422       12.0110 ; qtot    0.141
         3            c2bf         1   UNL        c2         3    -0.12310       12.0110 ; qtot    0.018
         4            c3bf         1   UNL        c3         4    -0.18007       12.0110 ; qtot   -0.162
         5            n4bf         1   UNL        n4         5    -0.62372       14.0070 ; qtot   -0.786
         6            c5bf         1   UNL        c5         6     0.14957       12.0110 ; qtot   -0.636
         7            c6bf         1   UNL        c6         7    -0.07960       12.0110 ; qtot   -0.716
         8            c7bf         1   UNL        c7         8     0.57190       12.0110 ; qtot   -0.144
         9            n8bf         1   UNL        n8         9    -0.42497       14.0070 ; qtot   -0.569
        10            o9bf         1   UNL        o9        10    -0.53399       15.9990 ; qtot   -1.103
        11           c10bf         1   UNL       c10        11     0.55794       12.0110 ; qtot   -0.545
        12           c11bf         1   UNL       c11        12    -0.15781       12.0110 ; qtot   -0.703
        13           c12bf         1   UNL       c12        13    -0.06349       12.0110 ; qtot   -0.766
        14           c13bf         1   UNL       c13        14    -0.10766       12.0110 ; qtot   -0.874
        15           c14bf         1   UNL       c14        15    -0.08053       12.0110 ; qtot   -0.955
        16           c15bf         1   UNL       c15        16    -0.10766       12.0110 ; qtot   -1.062
        17           c16bf         1   UNL       c16        17    -0.06349       12.0110 ; qtot   -1.126
        18           c17bf         1   UNL       c17        18    -0.04118       12.0110 ; qtot   -1.167
        19           f18bf         1   UNL       f18        19    -0.17458       18.9980 ; qtot   -1.342
        20           c19bf         1   UNL       c19        20    -0.00698       12.0110 ; qtot   -1.349
        21           c20bf         1   UNL       c20        21    -0.09589       12.0110 ; qtot   -1.444
        22           c21bf         1   UNL       c21        22     0.11471       12.0110 ; qtot   -1.330
        23           n22bf         1   UNL       n22        23    -0.68841       14.0070 ; qtot   -2.018
        24           c23bf         1   UNL       c23        24     0.11471       12.0110 ; qtot   -1.903
        25           c24bf         1   UNL       c24        25    -0.09589       12.0110 ; qtot   -1.999
        26           c25bf         1   UNL       c25        26     0.08616       12.0110 ; qtot   -1.913
        27           h26bf         1   UNL       h26        27     0.13515        1.0080 ; qtot   -1.778
        28           h27bf         1   UNL       h27        28     0.15826        1.0080 ; qtot   -1.620
        29           h28bf         1   UNL       h28        29     0.33464        1.0080 ; qtot   -1.285
        30           h29bf         1   UNL       h29        30     0.12637        1.0080 ; qtot   -1.159
        31           h30bf         1   UNL       h30        31     0.11826        1.0080 ; qtot   -1.040
        32           h31bf         1   UNL       h31        32     0.11826        1.0080 ; qtot   -0.922
        33           h32bf         1   UNL       h32        33     0.12637        1.0080 ; qtot   -0.796
        34           h33bf         1   UNL       h33        34     0.05113        1.0080 ; qtot   -0.745
        35           h34bf         1   UNL       h34        35     0.05113        1.0080 ; qtot   -0.694
        36           h35bf         1   UNL       h35        36     0.05113        1.0080 ; qtot   -0.642
        37           h36bf         1   UNL       h36        37     0.07822        1.0080 ; qtot   -0.564
        38           h37bf         1   UNL       h37        38     0.08765        1.0080 ; qtot   -0.477
        39           h38bf         1   UNL       h38        39     0.08765        1.0080 ; qtot   -0.389
        40           h39bf         1   UNL       h39        40     0.10036        1.0080 ; qtot   -0.289
        41           h40bf         1   UNL       h40        41     0.10036        1.0080 ; qtot   -0.188
        42           h41bf         1   UNL       h41        42     0.10036        1.0080 ; qtot   -0.088
        43           h42bf         1   UNL       h42        43     0.10036        1.0080 ; qtot    0.013
        44           h43bf         1   UNL       h43        44     0.08765        1.0080 ; qtot    0.100
        45           h44bf         1   UNL       h44        45     0.08765        1.0080 ; qtot    0.188
        46           h45bf         1   UNL       h45        46     0.10338        1.0080 ; qtot    0.291
        47           h46bf         1   UNL       h46        47     0.10338        1.0080 ; qtot    0.395
        48           h47bf         1   UNL       h47        48     0.10338        1.0080 ; qtot    0.498
        49           h48bf         1   UNL       h48        49     0.50203        1.0080 ; qtot    1.000

[ bonds ]
;       ai        aj funct               r               k
         1         2     1        0.142400   251259.363770
         1         3     1        0.138955   322790.594727
         1        18     1        0.150669   205954.195093
         2         4     1        0.141523   265643.676904
         2         5     1        0.138766   250342.096338
         3         6     1        0.140455   283775.969434
         3        27     1        0.108579   320833.864795
         4         7     1        0.140469   295577.127344
         4         8     1        0.146868   199614.824756
         5        11     1        0.129930   427087.035107
         6         7     1        0.137896   328254.565723
         6        19     1        0.135662   289307.613770
         7        28     1        0.108397   328107.114453
         8         9     1        0.140082   211226.854834
         8        10     1        0.122889   608180.100879
         9        11     1        0.137831   256540.003857
         9        29     1        0.101480   412787.019971
        11        12     1        0.148031   204041.095312
        12        13     1        0.140529   288496.887158
        12        17     1        0.140529   288496.887158
        13        14     1        0.139372   327176.516650
        13        30     1        0.108523   320966.606689
        14        15     1        0.140346   285569.083105
        14        31     1        0.108643   316702.624463
        15        16     1        0.140346   285569.083105
        15        20     1        0.151643   188419.815674
        16        17     1        0.139372   327176.516650
        16        32     1        0.108643   316702.650000
        17        33     1        0.108523   320966.606689
        18        34     1        0.109339   303349.755176
        18        35     1        0.109339   303349.755176
        18        36     1        0.109339   303349.755176
        20        21     1        0.154600   167095.052490
        20        25     1        0.154600   167095.052490
        20        37     1        0.109539   299104.721484
        21        22     1        0.152713   188842.454834
        21        38     1        0.109374   302250.433691
        21        39     1        0.109374   302250.433691
        22        23     1        0.152271   128355.793848
        22        40     1        0.109095   310660.697607
        22        41     1        0.109095   310660.697607
        23        24     1        0.152271   128355.781079
        23        26     1        0.150366   159937.958374
        23        49     1        0.102580   384015.942139
        24        25     1        0.152713   188842.454834
        24        42     1        0.109095   310660.697607
        24        43     1        0.109095   310660.697607
        25        44     1        0.109374   302250.433691
        25        45     1        0.109374   302250.433691
        26        46     1        0.108913   317522.135840
        26        47     1        0.108913   317522.135840
        26        48     1        0.108913   317522.135840

[ angles ]
;       ai        aj        ak funct           theta             cth
         1         2         4     1      119.601425      645.224053
         1         2         5     1      118.051041      395.548565
         1         3         6     1      120.463646      686.304899
         1         3        27     1      120.741135      404.912512
         1        18        34     1      110.842308      479.543820
         1        18        35     1      110.842308      479.543820
         1        18        36     1      110.842308      479.543820
         2         1         3     1      118.612259      696.937210
         2         1        18     1      120.008347      501.239638
         2         4         7     1      121.304016      710.765172
         2         4         8     1      119.225082      836.650608
         2         5        11     1      118.567406      322.805342
         3         1        18     1      121.412941      506.813814
         3         6         7     1      122.589989      614.567328
         3         6        19     1      117.822205      606.188794
         4         2         5     1      122.659409      746.727104
         4         7         6     1      117.690453      583.925414
         4         7        28     1      120.059837      418.959167
         4         8         9     1      112.882851      619.923481
         4         8        10     1      126.330887      458.186306
         5        11         9     1      122.567589      512.025331
         5        11        12     1      120.087601      391.062461
         6         3        27     1      118.624718      465.995649
         6         7        28     1      122.023987      423.542025
         7         4         8     1      119.241966      485.848422
         7         6        19     1      119.504929      499.057683
         8         9        11     1      124.837524      719.933122
         8         9        29     1      114.894203      511.192247
         9         8        10     1      120.519005      784.616449
         9        11        12     1      117.519058      652.932302
        11         9        29     1      120.364792      426.611777
        11        12        13     1      120.744911      546.672517
        11        12        17     1      120.744911      546.672517
        12        13        14     1      120.527023      676.175157
        12        13        30     1      119.841263      420.670951
        12        17        16     1      120.527023      676.175157
        12        17        33     1      119.841263      420.670951
        13        12        17     1      118.349464      541.357734
        13        14        15     1      121.051331      708.841589
        13        14        31     1      119.053787      439.591523
        14        13        30     1      119.561729      424.056949
        14        15        16     1      117.980263      601.126509
        14        15        20     1      120.860107      514.726392
        15        14        31     1      119.970291      419.472878
        15        16        17     1      121.051331      708.841589
        15        16        32     1      119.970291      419.472878
        15        20        21     1      112.291321      608.258321
        15        20        25     1      112.291321      608.258321
        15        20        37     1      107.583618      511.464026
        16        15        20     1      120.860107      514.726392
        16        17        33     1      119.561729      424.056949
        17        16        32     1      119.053787      439.591523
        20        21        22     1      111.940353      658.049045
        20        21        38     1      110.283768      462.539776
        20        21        39     1      110.283768      462.539776
        20        25        24     1      111.940353      658.049045
        20        25        44     1      110.283768      462.539776
        20        25        45     1      110.283768      462.539776
        21        20        25     1      109.199585      543.479613
        21        20        37     1      107.379005      483.503285
        21        22        23     1      110.849083      725.863924
        21        22        40     1      112.065903      485.278465
        21        22        41     1      112.065903      485.278465
        22        21        38     1      108.778343      508.965571
        22        21        39     1      108.778343      508.965571
        22        23        24     1      111.186142      598.059055
        22        23        26     1      112.282791      611.920917
        22        23        49     1      106.674805      501.819968
        23        22        40     1      106.527222      513.982017
        23        22        41     1      106.527222      513.982017
        23        24        25     1      110.849083      725.863924
        23        24        42     1      106.527222      513.982017
        23        24        43     1      106.527222      513.982017
        23        26        46     1      108.801369      542.745165
        23        26        47     1      108.801369      542.745165
        23        26        48     1      108.801369      542.745165
        24        23        26     1      112.282791      611.920917
        24        23        49     1      106.674805      501.819968
        24        25        44     1      108.778343      508.965571
        24        25        45     1      108.778343      508.965571
        25        20        37     1      107.378990      483.503285
        25        24        42     1      112.065903      485.278465
        25        24        43     1      112.065903      485.278465
        26        23        49     1      107.403709      517.666926
        34        18        35     1      108.098267      351.402947
        34        18        36     1      108.098267      351.402947
        35        18        36     1      108.098267      351.402947
        38        21        39     1      106.406639      360.524196
        40        22        41     1      108.530495      345.544574
        42        24        43     1      108.530495      345.544574
        44        25        45     1      106.406639      360.524196
        46        26        47     1      110.199875      347.283396
        46        26        48     1      110.199875      347.283396
        47        26        48     1      110.199875      347.283396

[ dihedrals ] ; propers for gromacs 4.5 or higher, use funct 9
;       ai        aj        ak        al funct           phase               k        pn
         1         2         4         7     9        0.000000       -0.139238         1
         1         2         4         7     9      180.000000       13.261820         2
         1         2         4         7     9        0.000000       -1.030088         3
         1         2         4         7     9      180.000000       -0.179966         4
         1         2         4         8     9        0.000000        0.300505         1
         1         2         4         8     9      180.000000       11.476323         2
         1         2         4         8     9        0.000000       -0.292222         3
         1         2         4         8     9      180.000000       -0.278775         4
         1         2         5        11     9        0.000000        0.080189         1
         1         2         5        11     9      180.000000        6.534664         2
         1         2         5        11     9        0.000000        1.115294         3
         1         2         5        11     9      180.000000       -0.150684         4
         1         3         6         7     9        0.000000        0.021484         1
         1         3         6         7     9      180.000000       15.443101         2
         1         3         6         7     9        0.000000       -1.279060         3
         1         3         6         7     9      180.000000       -0.275360         4
         1         3         6        19     9        0.000000        0.335746         1
         1         3         6        19     9      180.000000       20.996974         2
         1         3         6        19     9        0.000000        0.385021         3
         1         3         6        19     9      180.000000       -0.676378         4
         2         1         3         6     9        0.000000       -0.183657         1
         2         1         3         6     9      180.000000       20.253088         2
         2         1         3         6     9        0.000000       -1.284737         3
         2         1         3         6     9      180.000000       -0.449747         4
         2         1         3        27     9        0.000000        0.077719         1
         2         1         3        27     9      180.000000       14.916811         2
         2         1         3        27     9        0.000000       -0.240777         3
         2         1         3        27     9      180.000000        0.044680         4
         2         1        18        34     9        0.000000       -0.012304         1
         2         1        18        34     9      180.000000        0.000739         2
         2         1        18        34     9        0.000000       -0.001703         3
         2         1        18        34     9      180.000000        0.023093         4
         2         1        18        35     9        0.000000       -0.012304         1
         2         1        18        35     9      180.000000        0.000739         2
         2         1        18        35     9        0.000000       -0.001703         3
         2         1        18        35     9      180.000000        0.023093         4
         2         1        18        36     9        0.000000       -0.012304         1
         2         1        18        36     9      180.000000        0.000739         2
         2         1        18        36     9        0.000000       -0.001703         3
         2         1        18        36     9      180.000000        0.023093         4
         2         4         7         6     9        0.000000       -0.198428         1
         2         4         7         6     9      180.000000       17.396092         2
         2         4         7         6     9        0.000000       -1.349213         3
         2         4         7         6     9      180.000000       -0.232696         4
         2         4         7        28     9        0.000000        0.159608         1
         2         4         7        28     9      180.000000       12.211648         2
         2         4         7        28     9        0.000000       -0.328026         3
         2         4         7        28     9      180.000000        0.021727         4
         2         4         8         9     9        0.000000        0.282831         1
         2         4         8         9     9      180.000000        3.983356         2
         2         4         8         9     9        0.000000        0.210100         3
         2         4         8         9     9      180.000000        0.116655         4
         2         4         8        10     9        0.000000       -0.154319         1
         2         4         8        10     9      180.000000        8.103704         2
         2         4         8        10     9        0.000000        0.138176         3
         2         4         8        10     9      180.000000       -0.448163         4
         2         5        11         9     9        0.000000       -0.275632         1
         2         5        11         9     9      180.000000       36.620937         2
         2         5        11         9     9        0.000000       -0.530597         3
         2         5        11         9     9      180.000000       -1.184037         4
         2         5        11        12     9        0.000000        0.582402         1
         2         5        11        12     9      180.000000       30.885741         2
         2         5        11        12     9        0.000000        1.366447         3
         2         5        11        12     9      180.000000       -1.337993         4
         3         1         2         4     9        0.000000       -0.119813         1
         3         1         2         4     9      180.000000       15.053470         2
         3         1         2         4     9        0.000000       -0.867705         3
         3         1         2         4     9      180.000000       -0.269144         4
         3         1         2         5     9        0.000000        0.257156         1
         3         1         2         5     9      180.000000       15.479646         2
         3         1         2         5     9        0.000000        0.077962         3
         3         1         2         5     9      180.000000       -0.330047         4
         3         1        18        34     9        0.000000        0.003015         1
         3         1        18        34     9      180.000000       -0.007529         2
         3         1        18        34     9        0.000000       -0.068262         3
         3         1        18        34     9      180.000000        0.002523         4
         3         1        18        35     9        0.000000        0.003015         1
         3         1        18        35     9      180.000000       -0.007529         2
         3         1        18        35     9        0.000000       -0.068262         3
         3         1        18        35     9      180.000000        0.002523         4
         3         1        18        36     9        0.000000        0.003015         1
         3         1        18        36     9      180.000000       -0.007529         2
         3         1        18        36     9        0.000000       -0.068262         3
         3         1        18        36     9      180.000000        0.002523         4
         3         6         7         4     9        0.000000        0.058873         1
         3         6         7         4     9      180.000000       17.968227         2
         3         6         7         4     9        0.000000       -1.075192         3
         3         6         7         4     9      180.000000       -0.433536         4
         3         6         7        28     9        0.000000        0.148730         1
         3         6         7        28     9      180.000000       13.498403         2
         3         6         7        28     9        0.000000       -0.376940         3
         3         6         7        28     9      180.000000        0.124250         4
         4         2         1        18     9        0.000000        0.044888         1
         4         2         1        18     9      180.000000       12.592031         2
         4         2         1        18     9        0.000000       -0.109702         3
         4         2         1        18     9      180.000000       -0.203574         4
         4         2         5        11     9        0.000000        0.608844         1
         4         2         5        11     9      180.000000        6.226910         2
         4         2         5        11     9        0.000000        1.012001         3
         4         2         5        11     9      180.000000       -0.250324         4
         4         7         6        19     9        0.000000        0.293617         1
         4         7         6        19     9      180.000000       23.035837         2
         4         7         6        19     9        0.000000        0.586953         3
         4         7         6        19     9      180.000000       -0.761398         4
         4         8         9        11     9        0.000000       -0.470912         1
         4         8         9        11     9      180.000000        3.666273         2
         4         8         9        11     9        0.000000        0.182133         3
         4         8         9        11     9      180.000000        0.076630         4
         4         8         9        29     9        0.000000       -0.745423         1
         4         8         9        29     9      180.000000        6.950669         2
         4         8         9        29     9        0.000000        0.081100         3
         4         8         9        29     9      180.000000       -0.115089         4
         5         2         1        18     9        0.000000       -0.219272         1
         5         2         1        18     9      180.000000       16.463251         2
         5         2         1        18     9        0.000000       -0.223945         3
         5         2         1        18     9      180.000000       -0.570248         4
         5         2         4         7     9        0.000000        0.076211         1
         5         2         4         7     9      180.000000       14.213790         2
         5         2         4         7     9        0.000000       -0.092438         3
         5         2         4         7     9      180.000000       -0.243572         4
         5         2         4         8     9        0.000000        0.541799         1
         5         2         4         8     9      180.000000       12.666705         2
         5         2         4         8     9        0.000000        0.532490         3
         5         2         4         8     9      180.000000       -0.543829         4
         5        11         9         8     9        0.000000       -0.290368         1
         5        11         9         8     9      180.000000        7.317199         2
         5        11         9         8     9        0.000000        0.158565         3
         5        11         9         8     9      180.000000       -0.232559         4
         5        11         9        29     9        0.000000        1.563217         1
         5        11         9        29     9      180.000000        6.825650         2
         5        11         9        29     9        0.000000       -0.238310         3
         5        11         9        29     9      180.000000       -0.161067         4
         5        11        12        13     9        0.000000       -0.100148         1
         5        11        12        13     9      180.000000        3.756742         2
         5        11        12        13     9        0.000000       -0.068298         3
         5        11        12        13     9      180.000000       -0.043903         4
         5        11        12        17     9        0.000000       -0.100148         1
         5        11        12        17     9      180.000000        3.756742         2
         5        11        12        17     9        0.000000       -0.068298         3
         5        11        12        17     9      180.000000       -0.043903         4
         6         3         1        18     9        0.000000        0.047067         1
         6         3         1        18     9      180.000000       18.382701         2
         6         3         1        18     9        0.000000       -0.270378         3
         6         3         1        18     9      180.000000       -0.333556         4
         6         7         4         8     9        0.000000        0.091717         1
         6         7         4         8     9      180.000000       14.453086         2
         6         7         4         8     9        0.000000       -0.331864         3
         6         7         4         8     9      180.000000       -0.254442         4
         7         4         8         9     9        0.000000       -0.226541         1
         7         4         8         9     9      180.000000        4.511828         2
         7         4         8         9     9        0.000000        0.332702         3
         7         4         8         9     9      180.000000        0.109251         4
         7         4         8        10     9        0.000000       -0.970515         1
         7         4         8        10     9      180.000000        6.751231         2
         7         4         8        10     9        0.000000       -0.035888         3
         7         4         8        10     9      180.000000       -0.071924         4
         7         6         3        27     9        0.000000       -0.030921         1
         7         6         3        27     9      180.000000       12.226307         2
         7         6         3        27     9        0.000000       -0.505235         3
         7         6         3        27     9      180.000000        0.123364         4
         8         4         7        28     9        0.000000        0.049176         1
         8         4         7        28     9      180.000000       10.879407         2
         8         4         7        28     9        0.000000       -0.411602         3
         8         4         7        28     9      180.000000        0.084923         4
         8         9        11        12     9        0.000000        0.259437         1
         8         9        11        12     9      180.000000        7.653079         2
         8         9        11        12     9        0.000000        0.227443         3
         8         9        11        12     9      180.000000       -0.372956         4
         9        11        12        13     9        0.000000        0.051439         1
         9        11        12        13     9      180.000000        3.860447         2
         9        11        12        13     9        0.000000        0.187644         3
         9        11        12        13     9      180.000000       -0.299869         4
         9        11        12        17     9        0.000000        0.051439         1
         9        11        12        17     9      180.000000        3.860447         2
         9        11        12        17     9        0.000000        0.187644         3
         9        11        12        17     9      180.000000       -0.299869         4
        10         8         9        11     9        0.000000       -0.548185         1
        10         8         9        11     9      180.000000        9.486290         2
        10         8         9        11     9        0.000000       -0.289394         3
        10         8         9        11     9      180.000000       -0.422402         4
        10         8         9        29     9        0.000000        0.220219         1
        10         8         9        29     9      180.000000       10.147287         2
        10         8         9        29     9        0.000000       -0.568042         3
        10         8         9        29     9      180.000000        0.229072         4
        11        12        13        14     9        0.000000       -0.007486         1
        11        12        13        14     9      180.000000       14.830727         2
        11        12        13        14     9        0.000000       -0.356625         3
        11        12        13        14     9      180.000000       -0.176891         4
        11        12        13        30     9        0.000000       -0.034105         1
        11        12        13        30     9      180.000000       12.327013         2
        11        12        13        30     9        0.000000       -0.352348         3
        11        12        13        30     9      180.000000        0.175630         4
        11        12        17        16     9        0.000000       -0.007486         1
        11        12        17        16     9      180.000000       14.830727         2
        11        12        17        16     9        0.000000       -0.356625         3
        11        12        17        16     9      180.000000       -0.176891         4
        11        12        17        33     9        0.000000       -0.034105         1
        11        12        17        33     9      180.000000       12.327013         2
        11        12        17        33     9        0.000000       -0.352348         3
        11        12        17        33     9      180.000000        0.175630         4
        12        11         9        29     9        0.000000       -0.516119         1
        12        11         9        29     9      180.000000        6.237209         2
        12        11         9        29     9        0.000000       -0.149020         3
        12        11         9        29     9      180.000000       -0.138685         4
        12        13        14        15     9        0.000000       -0.064075         1
        12        13        14        15     9      180.000000       19.342020         2
        12        13        14        15     9        0.000000       -1.608878         3
        12        13        14        15     9      180.000000       -0.384560         4
        12        13        14        31     9        0.000000       -0.043856         1
        12        13        14        31     9      180.000000       15.207769         2
        12        13        14        31     9        0.000000       -0.422550         3
        12        13        14        31     9      180.000000        0.110075         4
        12        17        16        15     9        0.000000       -0.064075         1
        12        17        16        15     9      180.000000       19.342020         2
        12        17        16        15     9        0.000000       -1.608878         3
        12        17        16        15     9      180.000000       -0.384560         4
        12        17        16        32     9        0.000000       -0.043856         1
        12        17        16        32     9      180.000000       15.207769         2
        12        17        16        32     9        0.000000       -0.422550         3
        12        17        16        32     9      180.000000        0.110075         4
        13        12        17        16     9        0.000000       -0.127803         1
        13        12        17        16     9      180.000000       18.008141         2
        13        12        17        16     9        0.000000       -1.474548         3
        13        12        17        16     9      180.000000       -0.362123         4
        13        12        17        33     9        0.000000       -0.072046         1
        13        12        17        33     9      180.000000       13.795444         2
        13        12        17        33     9        0.000000       -0.607069         3
        13        12        17        33     9      180.000000        0.101975         4
        13        14        15        16     9        0.000000       -0.044857         1
        13        14        15        16     9      180.000000       18.714651         2
        13        14        15        16     9        0.000000       -1.412947         3
        13        14        15        16     9      180.000000       -0.331836         4
        13        14        15        20     9        0.000000        0.245470         1
        13        14        15        20     9      180.000000       14.766137         2
        13        14        15        20     9        0.000000       -0.120103         3
        13        14        15        20     9      180.000000       -0.209989         4
        14        13        12        17     9        0.000000       -0.127803         1
        14        13        12        17     9      180.000000       18.008141         2
        14        13        12        17     9        0.000000       -1.474548         3
        14        13        12        17     9      180.000000       -0.362123         4
        14        15        16        17     9        0.000000       -0.044857         1
        14        15        16        17     9      180.000000       18.714651         2
        14        15        16        17     9        0.000000       -1.412947         3
        14        15        16        17     9      180.000000       -0.331836         4
        14        15        16        32     9        0.000000       -0.049169         1
        14        15        16        32     9      180.000000       14.642018         2
        14        15        16        32     9        0.000000       -0.638822         3
        14        15        16        32     9      180.000000        0.026838         4
        14        15        20        21     9        0.000000        0.018663         1
        14        15        20        21     9      180.000000        0.692326         2
        14        15        20        21     9        0.000000        0.265575         3
        14        15        20        21     9      180.000000        0.035147         4
        14        15        20        25     9        0.000000        0.018663         1
        14        15        20        25     9      180.000000        0.692326         2
        14        15        20        25     9        0.000000        0.265575         3
        14        15        20        25     9      180.000000        0.035147         4
        14        15        20        37     9        0.000000        0.057198         1
        14        15        20        37     9      180.000000       -0.105198         2
        14        15        20        37     9        0.000000        0.078275         3
        14        15        20        37     9      180.000000        0.004172         4
        15        14        13        30     9        0.000000        0.031344         1
        15        14        13        30     9      180.000000       15.095161         2
        15        14        13        30     9        0.000000       -0.599815         3
        15        14        13        30     9      180.000000        0.154501         4
        15        16        17        33     9        0.000000        0.031344         1
        15        16        17        33     9      180.000000       15.095161         2
        15        16        17        33     9        0.000000       -0.599815         3
        15        16        17        33     9      180.000000        0.154501         4
        15        20        21        22     9        0.000000        0.314704         1
        15        20        21        22     9      180.000000       -0.425399         2
        15        20        21        22     9        0.000000        0.432711         3
        15        20        21        22     9      180.000000        0.092993         4
        15        20        21        38     9        0.000000       -0.012697         1
        15        20        21        38     9      180.000000        0.029233         2
        15        20        21        38     9        0.000000        0.474725         3
        15        20        21        38     9      180.000000       -0.065392         4
        15        20        21        39     9        0.000000       -0.012697         1
        15        20        21        39     9      180.000000        0.029233         2
        15        20        21        39     9        0.000000        0.474725         3
        15        20        21        39     9      180.000000       -0.065392         4
        15        20        25        24     9        0.000000        0.314704         1
        15        20        25        24     9      180.000000       -0.425399         2
        15        20        25        24     9        0.000000        0.432711         3
        15        20        25        24     9      180.000000        0.092993         4
        15        20        25        44     9        0.000000       -0.012697         1
        15        20        25        44     9      180.000000        0.029233         2
        15        20        25        44     9        0.000000        0.474725         3
        15        20        25        44     9      180.000000       -0.065392         4
        15        20        25        45     9        0.000000       -0.012697         1
        15        20        25        45     9      180.000000        0.029233         2
        15        20        25        45     9        0.000000        0.474725         3
        15        20        25        45     9      180.000000       -0.065392         4
        16        15        14        31     9        0.000000       -0.049169         1
        16        15        14        31     9      180.000000       14.642018         2
        16        15        14        31     9        0.000000       -0.638822         3
        16        15        14        31     9      180.000000        0.026838         4
        16        15        20        21     9        0.000000        0.018663         1
        16        15        20        21     9      180.000000        0.692326         2
        16        15        20        21     9        0.000000        0.265575         3
        16        15        20        21     9      180.000000        0.035147         4
        16        15        20        25     9        0.000000        0.018663         1
        16        15        20        25     9      180.000000        0.692326         2
        16        15        20        25     9        0.000000        0.265575         3
        16        15        20        25     9      180.000000        0.035147         4
        16        15        20        37     9        0.000000        0.057198         1
        16        15        20        37     9      180.000000       -0.105198         2
        16        15        20        37     9        0.000000        0.078275         3
        16        15        20        37     9      180.000000        0.004172         4
        17        12        13        30     9        0.000000       -0.072046         1
        17        12        13        30     9      180.000000       13.795444         2
        17        12        13        30     9        0.000000       -0.607069         3
        17        12        13        30     9      180.000000        0.101975         4
        17        16        15        20     9        0.000000        0.245470         1
        17        16        15        20     9      180.000000       14.766137         2
        17        16        15        20     9        0.000000       -0.120103         3
        17        16        15        20     9      180.000000       -0.209989         4
        18         1         3        27     9        0.000000       -0.172573         1
        18         1         3        27     9      180.000000       14.082404         2
        18         1         3        27     9        0.000000       -0.457612         3
        18         1         3        27     9      180.000000        0.219855         4
        19         6         3        27     9        0.000000        0.258366         1
        19         6         3        27     9      180.000000       14.731123         2
        19         6         3        27     9        0.000000        0.177085         3
        19         6         3        27     9      180.000000        0.228558         4
        19         6         7        28     9        0.000000        0.266487         1
        19         6         7        28     9      180.000000       16.016146         2
        19         6         7        28     9        0.000000        0.313984         3
        19         6         7        28     9      180.000000        0.214432         4
        20        15        14        31     9        0.000000       -0.100393         1
        20        15        14        31     9      180.000000       12.642088         2
        20        15        14        31     9        0.000000       -0.364060         3
        20        15        14        31     9      180.000000        0.194620         4
        20        15        16        32     9        0.000000       -0.100393         1
        20        15        16        32     9      180.000000       12.642088         2
        20        15        16        32     9        0.000000       -0.364060         3
        20        15        16        32     9      180.000000        0.194620         4
        20        21        22        23     9        0.000000        2.954834         1
        20        21        22        23     9      180.000000       -1.315166         2
        20        21        22        23     9        0.000000        0.340507         3
        20        21        22        23     9      180.000000       -0.124594         4
        20        21        22        40     9        0.000000       -0.132819         1
        20        21        22        40     9      180.000000        0.012254         2
        20        21        22        40     9        0.000000        0.395016         3
        20        21        22        40     9      180.000000        0.029221         4
        20        21        22        41     9        0.000000       -0.132819         1
        20        21        22        41     9      180.000000        0.012254         2
        20        21        22        41     9        0.000000        0.395016         3
        20        21        22        41     9      180.000000        0.029221         4
        20        25        24        23     9        0.000000        2.954834         1
        20        25        24        23     9      180.000000       -1.315166         2
        20        25        24        23     9        0.000000        0.340507         3
        20        25        24        23     9      180.000000       -0.124594         4
        20        25        24        42     9        0.000000       -0.132819         1
        20        25        24        42     9      180.000000        0.012254         2
        20        25        24        42     9        0.000000        0.395016         3
        20        25        24        42     9      180.000000        0.029221         4
        20        25        24        43     9        0.000000       -0.132819         1
        20        25        24        43     9      180.000000        0.012254         2
        20        25        24        43     9        0.000000        0.395016         3
        20        25        24        43     9      180.000000        0.029221         4
        21        20        25        24     9        0.000000        0.916217         1
        21        20        25        24     9      180.000000       -0.755965         2
        21        20        25        24     9        0.000000        0.250059         3
        21        20        25        24     9      180.000000       -0.067192         4
        21        20        25        44     9        0.000000       -0.024208         1
        21        20        25        44     9      180.000000        0.004549         2
        21        20        25        44     9        0.000000        0.248031         3
        21        20        25        44     9      180.000000        0.027000         4
        21        20        25        45     9        0.000000       -0.024208         1
        21        20        25        45     9      180.000000        0.004549         2
        21        20        25        45     9        0.000000        0.248031         3
        21        20        25        45     9      180.000000        0.027000         4
        21        22        23        24     9        0.000000        0.773679         1
        21        22        23        24     9      180.000000       -0.504567         2
        21        22        23        24     9        0.000000        0.258466         3
        21        22        23        24     9      180.000000       -0.002305         4
        21        22        23        26     9        0.000000        0.024225         1
        21        22        23        26     9      180.000000        0.412924         2
        21        22        23        26     9        0.000000        0.520129         3
        21        22        23        26     9      180.000000        0.054535         4
        21        22        23        49     9        0.000000       -0.109669         1
        21        22        23        49     9      180.000000       -0.114708         2
        21        22        23        49     9        0.000000        0.391062         3
        21        22        23        49     9      180.000000        0.040686         4
        22        21        20        25     9        0.000000        0.916217         1
        22        21        20        25     9      180.000000       -0.755965         2
        22        21        20        25     9        0.000000        0.250059         3
        22        21        20        25     9      180.000000       -0.067192         4
        22        21        20        37     9        0.000000       -0.709816         1
        22        21        20        37     9      180.000000       -0.099759         2
        22        21        20        37     9        0.000000        0.229360         3
        22        21        20        37     9      180.000000        0.085414         4
        22        23        24        25     9        0.000000        0.773679         1
        22        23        24        25     9      180.000000       -0.504567         2
        22        23        24        25     9        0.000000        0.258466         3
        22        23        24        25     9      180.000000       -0.002305         4
        22        23        24        42     9        0.000000       -0.058766         1
        22        23        24        42     9      180.000000        0.038715         2
        22        23        24        42     9        0.000000        0.410319         3
        22        23        24        42     9      180.000000       -0.052102         4
        22        23        24        43     9        0.000000       -0.058766         1
        22        23        24        43     9      180.000000        0.038715         2
        22        23        24        43     9        0.000000        0.410319         3
        22        23        24        43     9      180.000000       -0.052102         4
        22        23        26        46     9        0.000000       -0.015688         1
        22        23        26        46     9      180.000000        0.039018         2
        22        23        26        46     9        0.000000        0.636735         3
        22        23        26        46     9      180.000000       -0.024190         4
        22        23        26        47     9        0.000000       -0.015688         1
        22        23        26        47     9      180.000000        0.039018         2
        22        23        26        47     9        0.000000        0.636735         3
        22        23        26        47     9      180.000000       -0.024190         4
        22        23        26        48     9        0.000000       -0.015688         1
        22        23        26        48     9      180.000000        0.039018         2
        22        23        26        48     9        0.000000        0.636735         3
        22        23        26        48     9      180.000000       -0.024190         4
        23        22        21        38     9        0.000000       -0.066270         1
        23        22        21        38     9      180.000000        0.013044         2
        23        22        21        38     9        0.000000        0.312042         3
        23        22        21        38     9      180.000000       -0.019494         4
        23        22        21        39     9        0.000000       -0.066270         1
        23        22        21        39     9      180.000000        0.013044         2
        23        22        21        39     9        0.000000        0.312042         3
        23        22        21        39     9      180.000000       -0.019494         4
        23        24        25        44     9        0.000000       -0.066270         1
        23        24        25        44     9      180.000000        0.013044         2
        23        24        25        44     9        0.000000        0.312042         3
        23        24        25        44     9      180.000000       -0.019494         4
        23        24        25        45     9        0.000000       -0.066270         1
        23        24        25        45     9      180.000000        0.013044         2
        23        24        25        45     9        0.000000        0.312042         3
        23        24        25        45     9      180.000000       -0.019494         4
        24        23        22        40     9        0.000000       -0.058766         1
        24        23        22        40     9      180.000000        0.038715         2
        24        23        22        40     9        0.000000        0.410319         3
        24        23        22        40     9      180.000000       -0.052102         4
        24        23        22        41     9        0.000000       -0.058766         1
        24        23        22        41     9      180.000000        0.038715         2
        24        23        22        41     9        0.000000        0.410319         3
        24        23        22        41     9      180.000000       -0.052102         4
        24        23        26        46     9        0.000000       -0.015688         1
        24        23        26        46     9      180.000000        0.039018         2
        24        23        26        46     9        0.000000        0.636735         3
        24        23        26        46     9      180.000000       -0.024190         4
        24        23        26        47     9        0.000000       -0.015688         1
        24        23        26        47     9      180.000000        0.039018         2
        24        23        26        47     9        0.000000        0.636735         3
        24        23        26        47     9      180.000000       -0.024190         4
        24        23        26        48     9        0.000000       -0.015688         1
        24        23        26        48     9      180.000000        0.039018         2
        24        23        26        48     9        0.000000        0.636735         3
        24        23        26        48     9      180.000000       -0.024190         4
        24        25        20        37     9        0.000000       -0.709816         1
        24        25        20        37     9      180.000000       -0.099759         2
        24        25        20        37     9        0.000000        0.229360         3
        24        25        20        37     9      180.000000        0.085414         4
        25        20        21        38     9        0.000000       -0.024208         1
        25        20        21        38     9      180.000000        0.004549         2
        25        20        21        38     9        0.000000        0.248031         3
        25        20        21        38     9      180.000000        0.027000         4
        25        20        21        39     9        0.000000       -0.024208         1
        25        20        21        39     9      180.000000        0.004549         2
        25        20        21        39     9        0.000000        0.248031         3
        25        20        21        39     9      180.000000        0.027000         4
        25        24        23        26     9        0.000000        0.024225         1
        25        24        23        26     9      180.000000        0.412924         2
        25        24        23        26     9        0.000000        0.520129         3
        25        24        23        26     9      180.000000        0.054535         4
        25        24        23        49     9        0.000000       -0.109669         1
        25        24        23        49     9      180.000000       -0.114708         2
        25        24        23        49     9        0.000000        0.391062         3
        25        24        23        49     9      180.000000        0.040686         4
        26        23        22        40     9        0.000000       -0.011587         1
        26        23        22        40     9      180.000000       -0.024455         2
        26        23        22        40     9        0.000000        0.599514         3
        26        23        22        40     9      180.000000       -0.040253         4
        26        23        22        41     9        0.000000       -0.011587         1
        26        23        22        41     9      180.000000       -0.024455         2
        26        23        22        41     9        0.000000        0.599514         3
        26        23        22        41     9      180.000000       -0.040253         4
        26        23        24        42     9        0.000000       -0.011587         1
        26        23        24        42     9      180.000000       -0.024455         2
        26        23        24        42     9        0.000000        0.599514         3
        26        23        24        42     9      180.000000       -0.040253         4
        26        23        24        43     9        0.000000       -0.011587         1
        26        23        24        43     9      180.000000       -0.024455         2
        26        23        24        43     9        0.000000        0.599514         3
        26        23        24        43     9      180.000000       -0.040253         4
        30        13        14        31     9        0.000000       -0.219156         1
        30        13        14        31     9      180.000000       12.249174         2
        30        13        14        31     9        0.000000       -0.751301         3
        30        13        14        31     9      180.000000        0.403016         4
        32        16        17        33     9        0.000000       -0.219156         1
        32        16        17        33     9      180.000000       12.249174         2
        32        16        17        33     9        0.000000       -0.751301         3
        32        16        17        33     9      180.000000        0.403016         4
        37        20        21        38     9        0.000000        0.027548         1
        37        20        21        38     9      180.000000        0.000796         2
        37        20        21        38     9        0.000000        0.417337         3
        37        20        21        38     9      180.000000       -0.044160         4
        37        20        21        39     9        0.000000        0.027548         1
        37        20        21        39     9      180.000000        0.000796         2
        37        20        21        39     9        0.000000        0.417337         3
        37        20        21        39     9      180.000000       -0.044160         4
        37        20        25        44     9        0.000000        0.027548         1
        37        20        25        44     9      180.000000        0.000796         2
        37        20        25        44     9        0.000000        0.417337         3
        37        20        25        44     9      180.000000       -0.044160         4
        37        20        25        45     9        0.000000        0.027548         1
        37        20        25        45     9      180.000000        0.000796         2
        37        20        25        45     9        0.000000        0.417337         3
        37        20        25        45     9      180.000000       -0.044160         4
        38        21        22        40     9        0.000000        0.003042         1
        38        21        22        40     9      180.000000        0.013840         2
        38        21        22        40     9        0.000000        0.448848         3
        38        21        22        40     9      180.000000       -0.014400         4
        38        21        22        41     9        0.000000        0.003042         1
        38        21        22        41     9      180.000000        0.013840         2
        38        21        22        41     9        0.000000        0.448848         3
        38        21        22        41     9      180.000000       -0.014400         4
        39        21        22        40     9        0.000000        0.003042         1
        39        21        22        40     9      180.000000        0.013840         2
        39        21        22        40     9        0.000000        0.448848         3
        39        21        22        40     9      180.000000       -0.014400         4
        39        21        22        41     9        0.000000        0.003042         1
        39        21        22        41     9      180.000000        0.013840         2
        39        21        22        41     9        0.000000        0.448848         3
        39        21        22        41     9      180.000000       -0.014400         4
        40        22        23        49     9        0.000000       -0.021163         1
        40        22        23        49     9      180.000000        0.168867         2
        40        22        23        49     9        0.000000        0.470336         3
        40        22        23        49     9      180.000000       -0.024370         4
        41        22        23        49     9        0.000000       -0.021163         1
        41        22        23        49     9      180.000000        0.168867         2
        41        22        23        49     9        0.000000        0.470336         3
        41        22        23        49     9      180.000000       -0.024370         4
        42        24        23        49     9        0.000000       -0.021163         1
        42        24        23        49     9      180.000000        0.168867         2
        42        24        23        49     9        0.000000        0.470336         3
        42        24        23        49     9      180.000000       -0.024370         4
        42        24        25        44     9        0.000000        0.003042         1
        42        24        25        44     9      180.000000        0.013840         2
        42        24        25        44     9        0.000000        0.448848         3
        42        24        25        44     9      180.000000       -0.014400         4
        42        24        25        45     9        0.000000        0.003042         1
        42        24        25        45     9      180.000000        0.013840         2
        42        24        25        45     9        0.000000        0.448848         3
        42        24        25        45     9      180.000000       -0.014400         4
        43        24        23        49     9        0.000000       -0.021163         1
        43        24        23        49     9      180.000000        0.168867         2
        43        24        23        49     9        0.000000        0.470336         3
        43        24        23        49     9      180.000000       -0.024370         4
        43        24        25        44     9        0.000000        0.003042         1
        43        24        25        44     9      180.000000        0.013840         2
        43        24        25        44     9        0.000000        0.448848         3
        43        24        25        44     9      180.000000       -0.014400         4
        43        24        25        45     9        0.000000        0.003042         1
        43        24        25        45     9      180.000000        0.013840         2
        43        24        25        45     9        0.000000        0.448848         3
        43        24        25        45     9      180.000000       -0.014400         4
        46        26        23        49     9        0.000000       -0.182998         1
        46        26        23        49     9      180.000000        0.152801         2
        46        26        23        49     9        0.000000        0.565159         3
        46        26        23        49     9      180.000000        0.019132         4
        47        26        23        49     9        0.000000       -0.182998         1
        47        26        23        49     9      180.000000        0.152801         2
        47        26        23        49     9        0.000000        0.565159         3
        47        26        23        49     9      180.000000        0.019132         4
        48        26        23        49     9        0.000000       -0.182998         1
        48        26        23        49     9      180.000000        0.152801         2
        48        26        23        49     9        0.000000        0.565159         3
        48        26        23        49     9      180.000000        0.019132         4

[ dihedrals ] ; impropers
;       ai        aj        ak        al funct           phase               k        pn
         2         1         4         5     4      180.000000       11.399176         2
         2         4         5         1     4      180.000000       11.399176         2
         2         5         1         4     4      180.000000       11.399176         2
         6         3         7        19     4      180.000000        0.195332         2
         6         7        19         3     4      180.000000        0.195332         2
         6        19         3         7     4      180.000000        0.195332         2
         8         4         9        10     4      180.000000       27.893333         2
         8         9        10         4     4      180.000000       27.893333         2
         8        10         4         9     4      180.000000       27.893333         2
        11         5         9        12     4      180.000000        9.427914         2
        11         9        12         5     4      180.000000        9.427914         2
        11        12         5         9     4      180.000000        9.427914         2

[ pairs ]
;       ai        aj funct
         1         7     1
         1         8     1
         1        11     1
         1        19     1
         2         6     1
         2         9     1
         2        10     1
         2        12     1
         2        27     1
         2        28     1
         2        34     1
         2        35     1
         2        36     1
         3         4     1
         3         5     1
         3        28     1
         3        34     1
         3        35     1
         3        36     1
         4        11     1
         4        18     1
         4        19     1
         4        29     1
         5         7     1
         5         8     1
         5        13     1
         5        17     1
         5        18     1
         5        29     1
         6         8     1
         6        18     1
         7         9     1
         7        10     1
         7        27     1
         8        12     1
         8        28     1
         9        13     1
         9        17     1
        10        11     1
        10        29     1
        11        14     1
        11        16     1
        11        30     1
        11        33     1
        12        15     1
        12        29     1
        12        31     1
        12        32     1
        13        16     1
        13        20     1
        13        33     1
        14        17     1
        14        21     1
        14        25     1
        14        32     1
        14        37     1
        15        22     1
        15        24     1
        15        30     1
        15        33     1
        15        38     1
        15        39     1
        15        44     1
        15        45     1
        16        21     1
        16        25     1
        16        31     1
        16        37     1
        17        20     1
        17        30     1
        18        27     1
        19        27     1
        19        28     1
        20        23     1
        20        31     1
        20        32     1
        20        40     1
        20        41     1
        20        42     1
        20        43     1
        21        24     1
        21        26     1
        21        44     1
        21        45     1
        21        49     1
        22        25     1
        22        37     1
        22        42     1
        22        43     1
        22        46     1
        22        47     1
        22        48     1
        23        38     1
        23        39     1
        23        44     1
        23        45     1
        24        37     1
        24        40     1
        24        41     1
        24        46     1
        24        47     1
        24        48     1
        25        26     1
        25        38     1
        25        39     1
        25        49     1
        26        40     1
        26        41     1
        26        42     1
        26        43     1
        30        31     1
        32        33     1
        37        38     1
        37        39     1
        37        44     1
        37        45     1
        38        40     1
        38        41     1
        39        40     1
        39        41     1
        40        49     1
        41        49     1
        42        44     1
        42        45     1
        42        49     1
        43        44     1
        43        45     1
        43        49     1
        46        49     1
        47        49     1
        48        49     1
