; ITP file created by ByteFF-ML, 2026-02-21 07:50:57.340609

[ atomtypes ]
;name           bonded.type        at.num        mass        charge   ptype           sigma         epsilon
 c0bf                                   6      0.0000       0.00000       A     3.31578e-01     4.12068e-01
 c1bf                                   6      0.0000       0.00000       A     3.31576e-01     4.10891e-01
 c2bf                                   6      0.0000       0.00000       A     3.31513e-01     4.11807e-01
 c3bf                                   6      0.0000       0.00000       A     3.31456e-01     4.13894e-01
 n4bf                                   7      0.0000       0.00000       A     3.38308e-01     3.91379e-01
 c5bf                                   6      0.0000       0.00000       A     3.31534e-01     4.13573e-01
 c6bf                                   6      0.0000       0.00000       A     3.31406e-01     4.12413e-01
 c7bf                                   6      0.0000       0.00000       A     3.31420e-01     4.13088e-01
 n8bf                                   7      0.0000       0.00000       A     3.26530e-01     5.01306e-01
 o9bf                                   8      0.0000       0.00000       A     3.04637e-01     6.12097e-01
 c10bf                                  6      0.0000       0.00000       A     3.31630e-01     4.10739e-01
 c11bf                                  6      0.0000       0.00000       A     3.31392e-01     4.12437e-01
 c12bf                                  6      0.0000       0.00000       A     3.31466e-01     4.13000e-01
 c13bf                                  6      0.0000       0.00000       A     3.31522e-01     4.13168e-01
 c14bf                                  6      0.0000       0.00000       A     3.31447e-01     4.11819e-01
 c15bf                                  6      0.0000       0.00000       A     3.31522e-01     4.13168e-01
 c16bf                                  6      0.0000       0.00000       A     3.31466e-01     4.13000e-01
 c17bf                                  6      0.0000       0.00000       A     3.39811e-01     4.51787e-01
 f18bf                                  9      0.0000       0.00000       A     3.03353e-01     3.47341e-01
 c19bf                                  6      0.0000       0.00000       A     3.39727e-01     4.51865e-01
 c20bf                                  6      0.0000       0.00000       A     3.39824e-01     4.51218e-01
 c21bf                                  6      0.0000       0.00000       A     3.39899e-01     4.50985e-01
 n22bf                                  7      0.0000       0.00000       A     3.36854e-01     3.59775e-01
 c23bf                                  6      0.0000       0.00000       A     3.39899e-01     4.50985e-01
 c24bf                                  6      0.0000       0.00000       A     3.39824e-01     4.51218e-01
 c25bf                                  6      0.0000       0.00000       A     3.39840e-01     4.51191e-01
 h26bf                                  1      0.0000       0.00000       A     2.62463e-01     6.75281e-02
 h27bf                                  1      0.0000       0.00000       A     2.62554e-01     6.72616e-02
 h28bf                                  1      0.0000       0.00000       A     1.10472e-01     4.18202e-02
 h29bf                                  1      0.0000       0.00000       A     2.62498e-01     6.71961e-02
 h30bf                                  1      0.0000       0.00000       A     2.62590e-01     6.72871e-02
 h31bf                                  1      0.0000       0.00000       A     2.62590e-01     6.72871e-02
 h32bf                                  1      0.0000       0.00000       A     2.62498e-01     6.71961e-02
 h33bf                                  1      0.0000       0.00000       A     2.59974e-01     8.74439e-02
 h34bf                                  1      0.0000       0.00000       A     2.59974e-01     8.74439e-02
 h35bf                                  1      0.0000       0.00000       A     2.59974e-01     8.74439e-02
 h36bf                                  1      0.0000       0.00000       A     2.59875e-01     8.55493e-02
 h37bf                                  1      0.0000       0.00000       A     2.59827e-01     8.78908e-02
 h38bf                                  1      0.0000       0.00000       A     2.59827e-01     8.78908e-02
 h39bf                                  1      0.0000       0.00000       A     2.42161e-01     8.71294e-02
 h40bf                                  1      0.0000       0.00000       A     2.42161e-01     8.71294e-02
 h41bf                                  1      0.0000       0.00000       A     2.42161e-01     8.71294e-02
 h42bf                                  1      0.0000       0.00000       A     2.42161e-01     8.71294e-02
 h43bf                                  1      0.0000       0.00000       A     2.59827e-01     8.78908e-02
 h44bf                                  1      0.0000       0.00000       A     2.59827e-01     8.78908e-02
 h45bf                                  1      0.0000       0.00000       A     2.42032e-01     8.74215e-02
 h46bf                                  1      0.0000       0.00000       A     2.42032e-01     8.74215e-02
 h47bf                                  1      0.0000       0.00000       A     2.42032e-01     8.74215e-02

[ moleculetype ]
;name             nrexcl
 8f_neutral            3

[ atoms ]
;       nr            type      resi   res      atom      cgnr      charge          mass ; qtot
         1            c0bf         1   UNL        c0         1    -0.03332       12.0110 ; qtot   -0.033
         2            c1bf         1   UNL        c1         2     0.17422       12.0110 ; qtot    0.141
         3            c2bf         1   UNL        c2         3    -0.12310       12.0110 ; qtot    0.018
         4            c3bf         1   UNL        c3         4    -0.18007       12.0110 ; qtot   -0.162
         5            n4bf         1   UNL        n4         5    -0.62372       14.0070 ; qtot   -0.786
         6            c5bf         1   UNL        c5         6     0.14957       12.0110 ; qtot   -0.636
         7            c6bf         1   UNL        c6         7    -0.07960       12.0110 ; qtot   -0.716
         8            c7bf         1   UNL        c7         8     0.57190       12.0110 ; qtot   -0.144
         9            n8bf         1   UNL        n8         9    -0.42497       14.0070 ; qtot   -0.569
        10            o9bf         1   UNL        o9        10    -0.53399       15.9990 ; qtot   -1.103
        11           c10bf         1   UNL       c10        11     0.55794       12.0110 ; qtot   -0.545
        12           c11bf         1   UNL       c11        12    -0.15781       12.0110 ; qtot   -0.703
        13           c12bf         1   UNL       c12        13    -0.06349       12.0110 ; qtot   -0.766
        14           c13bf         1   UNL       c13        14    -0.11583       12.0110 ; qtot   -0.882
        15           c14bf         1   UNL       c14        15    -0.05579       12.0110 ; qtot   -0.938
        16           c15bf         1   UNL       c15        16    -0.11583       12.0110 ; qtot   -1.054
        17           c16bf         1   UNL       c16        17    -0.06349       12.0110 ; qtot   -1.117
        18           c17bf         1   UNL       c17        18    -0.04118       12.0110 ; qtot   -1.159
        19           f18bf         1   UNL       f18        19    -0.17458       18.9980 ; qtot   -1.333
        20           c19bf         1   UNL       c19        20    -0.01918       12.0110 ; qtot   -1.352
        21           c20bf         1   UNL       c20        21    -0.08239       12.0110 ; qtot   -1.435
        22           c21bf         1   UNL       c21        22     0.16596       12.0110 ; qtot   -1.269
        23           n22bf         1   UNL       n22        23    -0.72322       14.0070 ; qtot   -1.992
        24           c23bf         1   UNL       c23        24     0.16596       12.0110 ; qtot   -1.826
        25           c24bf         1   UNL       c24        25    -0.08239       12.0110 ; qtot   -1.908
        26           c25bf         1   UNL       c25        26     0.15019       12.0110 ; qtot   -1.758
        27           h26bf         1   UNL       h26        27     0.13515        1.0080 ; qtot   -1.623
        28           h27bf         1   UNL       h27        28     0.15826        1.0080 ; qtot   -1.465
        29           h28bf         1   UNL       h28        29     0.33464        1.0080 ; qtot   -1.130
        30           h29bf         1   UNL       h29        30     0.12637        1.0080 ; qtot   -1.004
        31           h30bf         1   UNL       h30        31     0.11826        1.0080 ; qtot   -0.886
        32           h31bf         1   UNL       h31        32     0.11826        1.0080 ; qtot   -0.767
        33           h32bf         1   UNL       h32        33     0.12637        1.0080 ; qtot   -0.641
        34           h33bf         1   UNL       h33        34     0.05113        1.0080 ; qtot   -0.590
        35           h34bf         1   UNL       h34        35     0.05113        1.0080 ; qtot   -0.539
        36           h35bf         1   UNL       h35        36     0.05113        1.0080 ; qtot   -0.488
        37           h36bf         1   UNL       h36        37     0.05004        1.0080 ; qtot   -0.437
        38           h37bf         1   UNL       h37        38     0.04698        1.0080 ; qtot   -0.390
        39           h38bf         1   UNL       h38        39     0.04698        1.0080 ; qtot   -0.344
        40           h39bf         1   UNL       h39        40     0.03898        1.0080 ; qtot   -0.305
        41           h40bf         1   UNL       h40        41     0.03898        1.0080 ; qtot   -0.266
        42           h41bf         1   UNL       h41        42     0.03898        1.0080 ; qtot   -0.227
        43           h42bf         1   UNL       h42        43     0.03898        1.0080 ; qtot   -0.188
        44           h43bf         1   UNL       h43        44     0.04698        1.0080 ; qtot   -0.141
        45           h44bf         1   UNL       h44        45     0.04698        1.0080 ; qtot   -0.094
        46           h45bf         1   UNL       h45        46     0.03121        1.0080 ; qtot   -0.062
        47           h46bf         1   UNL       h46        47     0.03121        1.0080 ; qtot   -0.031
        48           h47bf         1   UNL       h47        48     0.03121        1.0080 ; qtot    0.000

[ bonds ]
;       ai        aj funct               r               k
         1         2     1        0.142400   251259.363770
         1         3     1        0.138955   322790.594727
         1        18     1        0.150669   205954.195093
         2         4     1        0.141523   265643.676904
         2         5     1        0.138766   250342.096338
         3         6     1        0.140455   283775.969434
         3        27     1        0.108579   320833.864795
         4         7     1        0.140469   295577.127344
         4         8     1        0.146868   199614.824756
         5        11     1        0.129930   427087.035107
         6         7     1        0.137896   328254.565723
         6        19     1        0.135662   289307.613770
         7        28     1        0.108397   328107.114453
         8         9     1        0.140082   211226.854834
         8        10     1        0.122889   608180.100879
         9        11     1        0.137831   256540.003857
         9        29     1        0.101480   412787.019971
        11        12     1        0.148031   204041.095312
        12        13     1        0.140529   288496.887158
        12        17     1        0.140529   288496.887158
        13        14     1        0.139372   327176.516650
        13        30     1        0.108523   320966.606689
        14        15     1        0.140392   284627.989551
        14        31     1        0.108643   316702.624463
        15        16     1        0.140392   284627.989551
        15        20     1        0.151642   188528.871899
        16        17     1        0.139372   327176.516650
        16        32     1        0.108643   316702.650000
        17        33     1        0.108523   320966.606689
        18        34     1        0.109339   303349.755176
        18        35     1        0.109339   303349.755176
        18        36     1        0.109339   303349.755176
        20        21     1        0.154634   166389.564307
        20        25     1        0.154634   166389.577075
        20        37     1        0.109663   295430.084668
        21        22     1        0.153524   180277.716943
        21        38     1        0.109499   296002.728809
        21        39     1        0.109499   296002.728809
        22        23     1        0.146850   189571.335010
        22        40     1        0.109941   281857.111035
        22        41     1        0.109941   281857.111035
        23        24     1        0.146850   189571.335010
        23        26     1        0.145770   210322.036743
        24        25     1        0.153524   180277.716943
        24        42     1        0.109941   281857.111035
        24        43     1        0.109941   281857.111035
        25        44     1        0.109499   296002.728809
        25        45     1        0.109499   296002.728809
        26        46     1        0.109832   286991.832080
        26        47     1        0.109832   286991.832080
        26        48     1        0.109832   286991.832080

[ angles ]
;       ai        aj        ak funct           theta             cth
         1         2         4     1      119.601425      645.224053
         1         2         5     1      118.051041      395.548565
         1         3         6     1      120.463646      686.304899
         1         3        27     1      120.741135      404.912512
         1        18        34     1      110.842308      479.543820
         1        18        35     1      110.842308      479.543820
         1        18        36     1      110.842308      479.543820
         2         1         3     1      118.612259      696.937210
         2         1        18     1      120.008347      501.239638
         2         4         7     1      121.304016      710.765172
         2         4         8     1      119.225082      836.650608
         2         5        11     1      118.567406      322.805342
         3         1        18     1      121.412941      506.813814
         3         6         7     1      122.589989      614.567328
         3         6        19     1      117.822205      606.188794
         4         2         5     1      122.659409      746.727104
         4         7         6     1      117.690453      583.925414
         4         7        28     1      120.059837      418.959167
         4         8         9     1      112.882851      619.923481
         4         8        10     1      126.330887      458.186306
         5        11         9     1      122.567589      512.025331
         5        11        12     1      120.087601      391.062461
         6         3        27     1      118.624718      465.995649
         6         7        28     1      122.023987      423.542025
         7         4         8     1      119.241966      485.848422
         7         6        19     1      119.504929      499.057683
         8         9        11     1      124.837524      719.933122
         8         9        29     1      114.894203      511.192247
         9         8        10     1      120.519005      784.616449
         9        11        12     1      117.519058      652.932302
        11         9        29     1      120.364792      426.611777
        11        12        13     1      120.744911      546.672517
        11        12        17     1      120.744911      546.672517
        12        13        14     1      120.527023      676.175157
        12        13        30     1      119.841263      420.670951
        12        17        16     1      120.527023      676.175157
        12        17        33     1      119.841263      420.670951
        13        12        17     1      118.349464      541.357734
        13        14        15     1      121.269386      720.918982
        13        14        31     1      119.053787      439.591523
        14        13        30     1      119.561729      424.056949
        14        15        16     1      117.655472      607.059098
        14        15        20     1      121.102989      513.849224
        15        14        31     1      119.717445      419.014327
        15        16        17     1      121.269386      720.918982
        15        16        32     1      119.717445      419.014327
        15        20        21     1      112.651390      614.978667
        15        20        25     1      112.651390      614.978667
        15        20        37     1      107.200806      516.360096
        16        15        20     1      121.102989      513.849224
        16        17        33     1      119.561729      424.056949
        17        16        32     1      119.053787      439.591523
        20        21        22     1      110.953369      647.760399
        20        21        38     1      109.874191      468.669896
        20        21        39     1      109.874191      468.669896
        20        25        24     1      110.953369      647.760399
        20        25        44     1      109.874191      468.669896
        20        25        45     1      109.874191      468.669896
        21        20        25     1      109.216110      521.584223
        21        20        37     1      107.328384      483.321876
        21        22        23     1      111.835999      656.194412
        21        22        40     1      109.700073      499.080730
        21        22        41     1      109.700073      499.080730
        22        21        38     1      109.494286      524.273983
        22        21        39     1      109.494286      524.273983
        22        23        24     1      111.436951      561.079278
        22        23        26     1      112.180275      645.354292
        23        22        40     1      109.372498      438.306687
        23        22        41     1      109.372498      438.306687
        23        24        25     1      111.835999      656.194412
        23        24        42     1      109.372498      438.306687
        23        24        43     1      109.372498      438.306687
        23        26        46     1      110.984230      480.573476
        23        26        47     1      110.984230      480.573476
        23        26        48     1      110.984230      480.573476
        24        23        26     1      112.180275      645.354292
        24        25        44     1      109.494286      524.273951
        24        25        45     1      109.494286      524.273951
        25        20        37     1      107.328384      483.321876
        25        24        42     1      109.700073      499.080730
        25        24        43     1      109.700073      499.080730
        34        18        35     1      108.098267      351.402947
        34        18        36     1      108.098267      351.402947
        35        18        36     1      108.098267      351.402947
        38        21        39     1      106.769470      360.011506
        40        22        41     1      106.647751      347.755673
        42        24        43     1      106.647751      347.755673
        44        25        45     1      106.769470      360.011442
        46        26        47     1      107.962303      348.629872
        46        26        48     1      107.962303      348.629872
        47        26        48     1      107.962303      348.629872

[ dihedrals ] ; propers for gromacs 4.5 or higher, use funct 9
;       ai        aj        ak        al funct           phase               k        pn
         1         2         4         7     9        0.000000       -0.139238         1
         1         2         4         7     9      180.000000       13.261820         2
         1         2         4         7     9        0.000000       -1.030088         3
         1         2         4         7     9      180.000000       -0.179966         4
         1         2         4         8     9        0.000000        0.300505         1
         1         2         4         8     9      180.000000       11.476323         2
         1         2         4         8     9        0.000000       -0.292222         3
         1         2         4         8     9      180.000000       -0.278775         4
         1         2         5        11     9        0.000000        0.080189         1
         1         2         5        11     9      180.000000        6.534664         2
         1         2         5        11     9        0.000000        1.115294         3
         1         2         5        11     9      180.000000       -0.150684         4
         1         3         6         7     9        0.000000        0.021484         1
         1         3         6         7     9      180.000000       15.443101         2
         1         3         6         7     9        0.000000       -1.279060         3
         1         3         6         7     9      180.000000       -0.275360         4
         1         3         6        19     9        0.000000        0.335746         1
         1         3         6        19     9      180.000000       20.996974         2
         1         3         6        19     9        0.000000        0.385021         3
         1         3         6        19     9      180.000000       -0.676378         4
         2         1         3         6     9        0.000000       -0.183657         1
         2         1         3         6     9      180.000000       20.253088         2
         2         1         3         6     9        0.000000       -1.284737         3
         2         1         3         6     9      180.000000       -0.449747         4
         2         1         3        27     9        0.000000        0.077719         1
         2         1         3        27     9      180.000000       14.916811         2
         2         1         3        27     9        0.000000       -0.240777         3
         2         1         3        27     9      180.000000        0.044680         4
         2         1        18        34     9        0.000000       -0.012304         1
         2         1        18        34     9      180.000000        0.000739         2
         2         1        18        34     9        0.000000       -0.001703         3
         2         1        18        34     9      180.000000        0.023093         4
         2         1        18        35     9        0.000000       -0.012304         1
         2         1        18        35     9      180.000000        0.000739         2
         2         1        18        35     9        0.000000       -0.001703         3
         2         1        18        35     9      180.000000        0.023093         4
         2         1        18        36     9        0.000000       -0.012304         1
         2         1        18        36     9      180.000000        0.000739         2
         2         1        18        36     9        0.000000       -0.001703         3
         2         1        18        36     9      180.000000        0.023093         4
         2         4         7         6     9        0.000000       -0.198428         1
         2         4         7         6     9      180.000000       17.396092         2
         2         4         7         6     9        0.000000       -1.349213         3
         2         4         7         6     9      180.000000       -0.232696         4
         2         4         7        28     9        0.000000        0.159608         1
         2         4         7        28     9      180.000000       12.211648         2
         2         4         7        28     9        0.000000       -0.328026         3
         2         4         7        28     9      180.000000        0.021727         4
         2         4         8         9     9        0.000000        0.282831         1
         2         4         8         9     9      180.000000        3.983356         2
         2         4         8         9     9        0.000000        0.210100         3
         2         4         8         9     9      180.000000        0.116655         4
         2         4         8        10     9        0.000000       -0.154319         1
         2         4         8        10     9      180.000000        8.103704         2
         2         4         8        10     9        0.000000        0.138176         3
         2         4         8        10     9      180.000000       -0.448163         4
         2         5        11         9     9        0.000000       -0.275632         1
         2         5        11         9     9      180.000000       36.620937         2
         2         5        11         9     9        0.000000       -0.530597         3
         2         5        11         9     9      180.000000       -1.184037         4
         2         5        11        12     9        0.000000        0.582402         1
         2         5        11        12     9      180.000000       30.885741         2
         2         5        11        12     9        0.000000        1.366447         3
         2         5        11        12     9      180.000000       -1.337993         4
         3         1         2         4     9        0.000000       -0.119813         1
         3         1         2         4     9      180.000000       15.053470         2
         3         1         2         4     9        0.000000       -0.867705         3
         3         1         2         4     9      180.000000       -0.269144         4
         3         1         2         5     9        0.000000        0.257156         1
         3         1         2         5     9      180.000000       15.479646         2
         3         1         2         5     9        0.000000        0.077962         3
         3         1         2         5     9      180.000000       -0.330047         4
         3         1        18        34     9        0.000000        0.003015         1
         3         1        18        34     9      180.000000       -0.007529         2
         3         1        18        34     9        0.000000       -0.068262         3
         3         1        18        34     9      180.000000        0.002523         4
         3         1        18        35     9        0.000000        0.003015         1
         3         1        18        35     9      180.000000       -0.007529         2
         3         1        18        35     9        0.000000       -0.068262         3
         3         1        18        35     9      180.000000        0.002523         4
         3         1        18        36     9        0.000000        0.003015         1
         3         1        18        36     9      180.000000       -0.007529         2
         3         1        18        36     9        0.000000       -0.068262         3
         3         1        18        36     9      180.000000        0.002523         4
         3         6         7         4     9        0.000000        0.058873         1
         3         6         7         4     9      180.000000       17.968227         2
         3         6         7         4     9        0.000000       -1.075192         3
         3         6         7         4     9      180.000000       -0.433536         4
         3         6         7        28     9        0.000000        0.148730         1
         3         6         7        28     9      180.000000       13.498403         2
         3         6         7        28     9        0.000000       -0.376940         3
         3         6         7        28     9      180.000000        0.124250         4
         4         2         1        18     9        0.000000        0.044888         1
         4         2         1        18     9      180.000000       12.592031         2
         4         2         1        18     9        0.000000       -0.109702         3
         4         2         1        18     9      180.000000       -0.203574         4
         4         2         5        11     9        0.000000        0.608844         1
         4         2         5        11     9      180.000000        6.226910         2
         4         2         5        11     9        0.000000        1.012001         3
         4         2         5        11     9      180.000000       -0.250324         4
         4         7         6        19     9        0.000000        0.293617         1
         4         7         6        19     9      180.000000       23.035837         2
         4         7         6        19     9        0.000000        0.586953         3
         4         7         6        19     9      180.000000       -0.761398         4
         4         8         9        11     9        0.000000       -0.470912         1
         4         8         9        11     9      180.000000        3.666273         2
         4         8         9        11     9        0.000000        0.182133         3
         4         8         9        11     9      180.000000        0.076630         4
         4         8         9        29     9        0.000000       -0.745423         1
         4         8         9        29     9      180.000000        6.950669         2
         4         8         9        29     9        0.000000        0.081100         3
         4         8         9        29     9      180.000000       -0.115089         4
         5         2         1        18     9        0.000000       -0.219272         1
         5         2         1        18     9      180.000000       16.463251         2
         5         2         1        18     9        0.000000       -0.223945         3
         5         2         1        18     9      180.000000       -0.570248         4
         5         2         4         7     9        0.000000        0.076211         1
         5         2         4         7     9      180.000000       14.213790         2
         5         2         4         7     9        0.000000       -0.092438         3
         5         2         4         7     9      180.000000       -0.243572         4
         5         2         4         8     9        0.000000        0.541799         1
         5         2         4         8     9      180.000000       12.666705         2
         5         2         4         8     9        0.000000        0.532490         3
         5         2         4         8     9      180.000000       -0.543829         4
         5        11         9         8     9        0.000000       -0.290368         1
         5        11         9         8     9      180.000000        7.317199         2
         5        11         9         8     9        0.000000        0.158565         3
         5        11         9         8     9      180.000000       -0.232559         4
         5        11         9        29     9        0.000000        1.563217         1
         5        11         9        29     9      180.000000        6.825650         2
         5        11         9        29     9        0.000000       -0.238310         3
         5        11         9        29     9      180.000000       -0.161067         4
         5        11        12        13     9        0.000000       -0.100148         1
         5        11        12        13     9      180.000000        3.756742         2
         5        11        12        13     9        0.000000       -0.068298         3
         5        11        12        13     9      180.000000       -0.043903         4
         5        11        12        17     9        0.000000       -0.100148         1
         5        11        12        17     9      180.000000        3.756742         2
         5        11        12        17     9        0.000000       -0.068298         3
         5        11        12        17     9      180.000000       -0.043903         4
         6         3         1        18     9        0.000000        0.047067         1
         6         3         1        18     9      180.000000       18.382701         2
         6         3         1        18     9        0.000000       -0.270378         3
         6         3         1        18     9      180.000000       -0.333556         4
         6         7         4         8     9        0.000000        0.091717         1
         6         7         4         8     9      180.000000       14.453086         2
         6         7         4         8     9        0.000000       -0.331864         3
         6         7         4         8     9      180.000000       -0.254442         4
         7         4         8         9     9        0.000000       -0.226541         1
         7         4         8         9     9      180.000000        4.511828         2
         7         4         8         9     9        0.000000        0.332702         3
         7         4         8         9     9      180.000000        0.109251         4
         7         4         8        10     9        0.000000       -0.970515         1
         7         4         8        10     9      180.000000        6.751231         2
         7         4         8        10     9        0.000000       -0.035888         3
         7         4         8        10     9      180.000000       -0.071924         4
         7         6         3        27     9        0.000000       -0.030921         1
         7         6         3        27     9      180.000000       12.226307         2
         7         6         3        27     9        0.000000       -0.505235         3
         7         6         3        27     9      180.000000        0.123364         4
         8         4         7        28     9        0.000000        0.049176         1
         8         4         7        28     9      180.000000       10.879407         2
         8         4         7        28     9        0.000000       -0.411602         3
         8         4         7        28     9      180.000000        0.084923         4
         8         9        11        12     9        0.000000        0.259437         1
         8         9        11        12     9      180.000000        7.653079         2
         8         9        11        12     9        0.000000        0.227443         3
         8         9        11        12     9      180.000000       -0.372956         4
         9        11        12        13     9        0.000000        0.051439         1
         9        11        12        13     9      180.000000        3.860447         2
         9        11        12        13     9        0.000000        0.187644         3
         9        11        12        13     9      180.000000       -0.299869         4
         9        11        12        17     9        0.000000        0.051439         1
         9        11        12        17     9      180.000000        3.860447         2
         9        11        12        17     9        0.000000        0.187644         3
         9        11        12        17     9      180.000000       -0.299869         4
        10         8         9        11     9        0.000000       -0.548185         1
        10         8         9        11     9      180.000000        9.486290         2
        10         8         9        11     9        0.000000       -0.289394         3
        10         8         9        11     9      180.000000       -0.422402         4
        10         8         9        29     9        0.000000        0.220219         1
        10         8         9        29     9      180.000000       10.147287         2
        10         8         9        29     9        0.000000       -0.568042         3
        10         8         9        29     9      180.000000        0.229072         4
        11        12        13        14     9        0.000000       -0.007486         1
        11        12        13        14     9      180.000000       14.830727         2
        11        12        13        14     9        0.000000       -0.356625         3
        11        12        13        14     9      180.000000       -0.176891         4
        11        12        13        30     9        0.000000       -0.034105         1
        11        12        13        30     9      180.000000       12.327013         2
        11        12        13        30     9        0.000000       -0.352348         3
        11        12        13        30     9      180.000000        0.175630         4
        11        12        17        16     9        0.000000       -0.007486         1
        11        12        17        16     9      180.000000       14.830727         2
        11        12        17        16     9        0.000000       -0.356625         3
        11        12        17        16     9      180.000000       -0.176891         4
        11        12        17        33     9        0.000000       -0.034105         1
        11        12        17        33     9      180.000000       12.327013         2
        11        12        17        33     9        0.000000       -0.352348         3
        11        12        17        33     9      180.000000        0.175630         4
        12        11         9        29     9        0.000000       -0.516119         1
        12        11         9        29     9      180.000000        6.237209         2
        12        11         9        29     9        0.000000       -0.149020         3
        12        11         9        29     9      180.000000       -0.138685         4
        12        13        14        15     9        0.000000       -0.038666         1
        12        13        14        15     9      180.000000       19.438618         2
        12        13        14        15     9        0.000000       -1.649569         3
        12        13        14        15     9      180.000000       -0.397374         4
        12        13        14        31     9        0.000000       -0.043856         1
        12        13        14        31     9      180.000000       15.207769         2
        12        13        14        31     9        0.000000       -0.422550         3
        12        13        14        31     9      180.000000        0.110075         4
        12        17        16        15     9        0.000000       -0.038666         1
        12        17        16        15     9      180.000000       19.438618         2
        12        17        16        15     9        0.000000       -1.649569         3
        12        17        16        15     9      180.000000       -0.397374         4
        12        17        16        32     9        0.000000       -0.043856         1
        12        17        16        32     9      180.000000       15.207769         2
        12        17        16        32     9        0.000000       -0.422550         3
        12        17        16        32     9      180.000000        0.110075         4
        13        12        17        16     9        0.000000       -0.127803         1
        13        12        17        16     9      180.000000       18.008141         2
        13        12        17        16     9        0.000000       -1.474548         3
        13        12        17        16     9      180.000000       -0.362123         4
        13        12        17        33     9        0.000000       -0.072046         1
        13        12        17        33     9      180.000000       13.795444         2
        13        12        17        33     9        0.000000       -0.607069         3
        13        12        17        33     9      180.000000        0.101975         4
        13        14        15        16     9        0.000000       -0.058762         1
        13        14        15        16     9      180.000000       18.504237         2
        13        14        15        16     9        0.000000       -1.315277         3
        13        14        15        16     9      180.000000       -0.351233         4
        13        14        15        20     9        0.000000        0.099827         1
        13        14        15        20     9      180.000000       15.270188         2
        13        14        15        20     9        0.000000       -0.110900         3
        13        14        15        20     9      180.000000       -0.260124         4
        14        13        12        17     9        0.000000       -0.127803         1
        14        13        12        17     9      180.000000       18.008141         2
        14        13        12        17     9        0.000000       -1.474548         3
        14        13        12        17     9      180.000000       -0.362123         4
        14        15        16        17     9        0.000000       -0.058762         1
        14        15        16        17     9      180.000000       18.504237         2
        14        15        16        17     9        0.000000       -1.315277         3
        14        15        16        17     9      180.000000       -0.351233         4
        14        15        16        32     9        0.000000       -0.027720         1
        14        15        16        32     9      180.000000       14.565368         2
        14        15        16        32     9        0.000000       -0.584391         3
        14        15        16        32     9      180.000000        0.027117         4
        14        15        20        21     9        0.000000        0.050371         1
        14        15        20        21     9      180.000000        0.653715         2
        14        15        20        21     9        0.000000        0.208083         3
        14        15        20        21     9      180.000000        0.059839         4
        14        15        20        25     9        0.000000        0.050371         1
        14        15        20        25     9      180.000000        0.653714         2
        14        15        20        25     9        0.000000        0.208083         3
        14        15        20        25     9      180.000000        0.059839         4
        14        15        20        37     9        0.000000        0.125713         1
        14        15        20        37     9      180.000000       -0.170739         2
        14        15        20        37     9        0.000000        0.066196         3
        14        15        20        37     9      180.000000        0.006762         4
        15        14        13        30     9        0.000000        0.017078         1
        15        14        13        30     9      180.000000       14.953510         2
        15        14        13        30     9        0.000000       -0.592809         3
        15        14        13        30     9      180.000000        0.152132         4
        15        16        17        33     9        0.000000        0.017078         1
        15        16        17        33     9      180.000000       14.953510         2
        15        16        17        33     9        0.000000       -0.592809         3
        15        16        17        33     9      180.000000        0.152132         4
        15        20        21        22     9        0.000000       -1.013177         1
        15        20        21        22     9      180.000000       -0.328060         2
        15        20        21        22     9        0.000000        0.352578         3
        15        20        21        22     9      180.000000        0.090639         4
        15        20        21        38     9        0.000000       -0.016469         1
        15        20        21        38     9      180.000000        0.018555         2
        15        20        21        38     9        0.000000        0.493261         3
        15        20        21        38     9      180.000000       -0.067876         4
        15        20        21        39     9        0.000000       -0.016469         1
        15        20        21        39     9      180.000000        0.018555         2
        15        20        21        39     9        0.000000        0.493261         3
        15        20        21        39     9      180.000000       -0.067876         4
        15        20        25        24     9        0.000000       -1.013176         1
        15        20        25        24     9      180.000000       -0.328060         2
        15        20        25        24     9        0.000000        0.352578         3
        15        20        25        24     9      180.000000        0.090639         4
        15        20        25        44     9        0.000000       -0.016469         1
        15        20        25        44     9      180.000000        0.018554         2
        15        20        25        44     9        0.000000        0.493261         3
        15        20        25        44     9      180.000000       -0.067876         4
        15        20        25        45     9        0.000000       -0.016469         1
        15        20        25        45     9      180.000000        0.018554         2
        15        20        25        45     9        0.000000        0.493261         3
        15        20        25        45     9      180.000000       -0.067876         4
        16        15        14        31     9        0.000000       -0.027720         1
        16        15        14        31     9      180.000000       14.565368         2
        16        15        14        31     9        0.000000       -0.584391         3
        16        15        14        31     9      180.000000        0.027117         4
        16        15        20        21     9        0.000000        0.050371         1
        16        15        20        21     9      180.000000        0.653715         2
        16        15        20        21     9        0.000000        0.208083         3
        16        15        20        21     9      180.000000        0.059839         4
        16        15        20        25     9        0.000000        0.050371         1
        16        15        20        25     9      180.000000        0.653714         2
        16        15        20        25     9        0.000000        0.208083         3
        16        15        20        25     9      180.000000        0.059839         4
        16        15        20        37     9        0.000000        0.125713         1
        16        15        20        37     9      180.000000       -0.170739         2
        16        15        20        37     9        0.000000        0.066196         3
        16        15        20        37     9      180.000000        0.006762         4
        17        12        13        30     9        0.000000       -0.072046         1
        17        12        13        30     9      180.000000       13.795444         2
        17        12        13        30     9        0.000000       -0.607069         3
        17        12        13        30     9      180.000000        0.101975         4
        17        16        15        20     9        0.000000        0.099827         1
        17        16        15        20     9      180.000000       15.270188         2
        17        16        15        20     9        0.000000       -0.110900         3
        17        16        15        20     9      180.000000       -0.260124         4
        18         1         3        27     9        0.000000       -0.172573         1
        18         1         3        27     9      180.000000       14.082404         2
        18         1         3        27     9        0.000000       -0.457612         3
        18         1         3        27     9      180.000000        0.219855         4
        19         6         3        27     9        0.000000        0.258366         1
        19         6         3        27     9      180.000000       14.731123         2
        19         6         3        27     9        0.000000        0.177085         3
        19         6         3        27     9      180.000000        0.228558         4
        19         6         7        28     9        0.000000        0.266487         1
        19         6         7        28     9      180.000000       16.016146         2
        19         6         7        28     9        0.000000        0.313984         3
        19         6         7        28     9      180.000000        0.214432         4
        20        15        14        31     9        0.000000       -0.064231         1
        20        15        14        31     9      180.000000       12.850861         2
        20        15        14        31     9        0.000000       -0.326552         3
        20        15        14        31     9      180.000000        0.212390         4
        20        15        16        32     9        0.000000       -0.064231         1
        20        15        16        32     9      180.000000       12.850861         2
        20        15        16        32     9        0.000000       -0.326552         3
        20        15        16        32     9      180.000000        0.212390         4
        20        21        22        23     9        0.000000        0.667180         1
        20        21        22        23     9      180.000000       -1.307014         2
        20        21        22        23     9        0.000000        0.359166         3
        20        21        22        23     9      180.000000       -0.069558         4
        20        21        22        40     9        0.000000       -0.062715         1
        20        21        22        40     9      180.000000        0.060376         2
        20        21        22        40     9        0.000000        0.245589         3
        20        21        22        40     9      180.000000       -0.007401         4
        20        21        22        41     9        0.000000       -0.062715         1
        20        21        22        41     9      180.000000        0.060376         2
        20        21        22        41     9        0.000000        0.245589         3
        20        21        22        41     9      180.000000       -0.007401         4
        20        25        24        23     9        0.000000        0.667179         1
        20        25        24        23     9      180.000000       -1.307015         2
        20        25        24        23     9        0.000000        0.359166         3
        20        25        24        23     9      180.000000       -0.069558         4
        20        25        24        42     9        0.000000       -0.062715         1
        20        25        24        42     9      180.000000        0.060375         2
        20        25        24        42     9        0.000000        0.245589         3
        20        25        24        42     9      180.000000       -0.007401         4
        20        25        24        43     9        0.000000       -0.062715         1
        20        25        24        43     9      180.000000        0.060375         2
        20        25        24        43     9        0.000000        0.245589         3
        20        25        24        43     9      180.000000       -0.007401         4
        21        20        25        24     9        0.000000        1.143578         1
        21        20        25        24     9      180.000000       -1.888354         2
        21        20        25        24     9        0.000000        0.236523         3
        21        20        25        24     9      180.000000       -0.099643         4
        21        20        25        44     9        0.000000       -0.035289         1
        21        20        25        44     9      180.000000        0.015821         2
        21        20        25        44     9        0.000000        0.318782         3
        21        20        25        44     9      180.000000        0.020157         4
        21        20        25        45     9        0.000000       -0.035289         1
        21        20        25        45     9      180.000000        0.015821         2
        21        20        25        45     9        0.000000        0.318782         3
        21        20        25        45     9      180.000000        0.020157         4
        21        22        23        24     9        0.000000        0.850989         1
        21        22        23        24     9      180.000000       -0.118897         2
        21        22        23        24     9        0.000000        0.376318         3
        21        22        23        24     9      180.000000        0.159494         4
        21        22        23        26     9        0.000000        0.329176         1
        21        22        23        26     9      180.000000        1.609540         2
        21        22        23        26     9        0.000000        0.877686         3
        21        22        23        26     9      180.000000        0.217811         4
        22        21        20        25     9        0.000000        1.143579         1
        22        21        20        25     9      180.000000       -1.888354         2
        22        21        20        25     9        0.000000        0.236523         3
        22        21        20        25     9      180.000000       -0.099643         4
        22        21        20        37     9        0.000000       -0.431503         1
        22        21        20        37     9      180.000000       -0.034252         2
        22        21        20        37     9        0.000000        0.213351         3
        22        21        20        37     9      180.000000        0.075457         4
        22        23        24        25     9        0.000000        0.850990         1
        22        23        24        25     9      180.000000       -0.118898         2
        22        23        24        25     9        0.000000        0.376318         3
        22        23        24        25     9      180.000000        0.159495         4
        22        23        24        42     9        0.000000       -0.051574         1
        22        23        24        42     9      180.000000        0.081947         2
        22        23        24        42     9        0.000000        0.481652         3
        22        23        24        42     9      180.000000       -0.002878         4
        22        23        24        43     9        0.000000       -0.051574         1
        22        23        24        43     9      180.000000        0.081947         2
        22        23        24        43     9        0.000000        0.481652         3
        22        23        24        43     9      180.000000       -0.002878         4
        22        23        26        46     9        0.000000       -0.119115         1
        22        23        26        46     9      180.000000        0.029126         2
        22        23        26        46     9        0.000000        0.921930         3
        22        23        26        46     9      180.000000        0.014808         4
        22        23        26        47     9        0.000000       -0.119115         1
        22        23        26        47     9      180.000000        0.029126         2
        22        23        26        47     9        0.000000        0.921930         3
        22        23        26        47     9      180.000000        0.014808         4
        22        23        26        48     9        0.000000       -0.119115         1
        22        23        26        48     9      180.000000        0.029126         2
        22        23        26        48     9        0.000000        0.921930         3
        22        23        26        48     9      180.000000        0.014808         4
        23        22        21        38     9        0.000000       -0.102576         1
        23        22        21        38     9      180.000000        0.010986         2
        23        22        21        38     9        0.000000        0.239667         3
        23        22        21        38     9      180.000000        0.012711         4
        23        22        21        39     9        0.000000       -0.102576         1
        23        22        21        39     9      180.000000        0.010986         2
        23        22        21        39     9        0.000000        0.239667         3
        23        22        21        39     9      180.000000        0.012711         4
        23        24        25        44     9        0.000000       -0.102576         1
        23        24        25        44     9      180.000000        0.010987         2
        23        24        25        44     9        0.000000        0.239667         3
        23        24        25        44     9      180.000000        0.012711         4
        23        24        25        45     9        0.000000       -0.102576         1
        23        24        25        45     9      180.000000        0.010987         2
        23        24        25        45     9        0.000000        0.239667         3
        23        24        25        45     9      180.000000        0.012711         4
        24        23        22        40     9        0.000000       -0.051574         1
        24        23        22        40     9      180.000000        0.081947         2
        24        23        22        40     9        0.000000        0.481652         3
        24        23        22        40     9      180.000000       -0.002878         4
        24        23        22        41     9        0.000000       -0.051574         1
        24        23        22        41     9      180.000000        0.081947         2
        24        23        22        41     9        0.000000        0.481652         3
        24        23        22        41     9      180.000000       -0.002878         4
        24        23        26        46     9        0.000000       -0.119115         1
        24        23        26        46     9      180.000000        0.029126         2
        24        23        26        46     9        0.000000        0.921930         3
        24        23        26        46     9      180.000000        0.014808         4
        24        23        26        47     9        0.000000       -0.119115         1
        24        23        26        47     9      180.000000        0.029126         2
        24        23        26        47     9        0.000000        0.921930         3
        24        23        26        47     9      180.000000        0.014808         4
        24        23        26        48     9        0.000000       -0.119115         1
        24        23        26        48     9      180.000000        0.029126         2
        24        23        26        48     9        0.000000        0.921930         3
        24        23        26        48     9      180.000000        0.014808         4
        24        25        20        37     9        0.000000       -0.431503         1
        24        25        20        37     9      180.000000       -0.034253         2
        24        25        20        37     9        0.000000        0.213351         3
        24        25        20        37     9      180.000000        0.075457         4
        25        20        21        38     9        0.000000       -0.035290         1
        25        20        21        38     9      180.000000        0.015821         2
        25        20        21        38     9        0.000000        0.318783         3
        25        20        21        38     9      180.000000        0.020157         4
        25        20        21        39     9        0.000000       -0.035290         1
        25        20        21        39     9      180.000000        0.015821         2
        25        20        21        39     9        0.000000        0.318783         3
        25        20        21        39     9      180.000000        0.020157         4
        25        24        23        26     9        0.000000        0.329176         1
        25        24        23        26     9      180.000000        1.609539         2
        25        24        23        26     9        0.000000        0.877686         3
        25        24        23        26     9      180.000000        0.217811         4
        26        23        22        40     9        0.000000       -0.030112         1
        26        23        22        40     9      180.000000       -0.052182         2
        26        23        22        40     9        0.000000        1.350099         3
        26        23        22        40     9      180.000000       -0.053620         4
        26        23        22        41     9        0.000000       -0.030112         1
        26        23        22        41     9      180.000000       -0.052182         2
        26        23        22        41     9        0.000000        1.350099         3
        26        23        22        41     9      180.000000       -0.053620         4
        26        23        24        42     9        0.000000       -0.030112         1
        26        23        24        42     9      180.000000       -0.052182         2
        26        23        24        42     9        0.000000        1.350099         3
        26        23        24        42     9      180.000000       -0.053620         4
        26        23        24        43     9        0.000000       -0.030112         1
        26        23        24        43     9      180.000000       -0.052182         2
        26        23        24        43     9        0.000000        1.350099         3
        26        23        24        43     9      180.000000       -0.053620         4
        30        13        14        31     9        0.000000       -0.219156         1
        30        13        14        31     9      180.000000       12.249174         2
        30        13        14        31     9        0.000000       -0.751301         3
        30        13        14        31     9      180.000000        0.403016         4
        32        16        17        33     9        0.000000       -0.219156         1
        32        16        17        33     9      180.000000       12.249174         2
        32        16        17        33     9        0.000000       -0.751301         3
        32        16        17        33     9      180.000000        0.403016         4
        37        20        21        38     9        0.000000        0.009075         1
        37        20        21        38     9      180.000000       -0.001340         2
        37        20        21        38     9        0.000000        0.430394         3
        37        20        21        38     9      180.000000       -0.023064         4
        37        20        21        39     9        0.000000        0.009075         1
        37        20        21        39     9      180.000000       -0.001340         2
        37        20        21        39     9        0.000000        0.430394         3
        37        20        21        39     9      180.000000       -0.023064         4
        37        20        25        44     9        0.000000        0.009074         1
        37        20        25        44     9      180.000000       -0.001340         2
        37        20        25        44     9        0.000000        0.430394         3
        37        20        25        44     9      180.000000       -0.023064         4
        37        20        25        45     9        0.000000        0.009074         1
        37        20        25        45     9      180.000000       -0.001340         2
        37        20        25        45     9        0.000000        0.430394         3
        37        20        25        45     9      180.000000       -0.023064         4
        38        21        22        40     9        0.000000       -0.006056         1
        38        21        22        40     9      180.000000       -0.003489         2
        38        21        22        40     9        0.000000        0.277504         3
        38        21        22        40     9      180.000000        0.010889         4
        38        21        22        41     9        0.000000       -0.006056         1
        38        21        22        41     9      180.000000       -0.003489         2
        38        21        22        41     9        0.000000        0.277504         3
        38        21        22        41     9      180.000000        0.010889         4
        39        21        22        40     9        0.000000       -0.006056         1
        39        21        22        40     9      180.000000       -0.003489         2
        39        21        22        40     9        0.000000        0.277504         3
        39        21        22        40     9      180.000000        0.010889         4
        39        21        22        41     9        0.000000       -0.006056         1
        39        21        22        41     9      180.000000       -0.003489         2
        39        21        22        41     9        0.000000        0.277504         3
        39        21        22        41     9      180.000000        0.010889         4
        42        24        25        44     9        0.000000       -0.006057         1
        42        24        25        44     9      180.000000       -0.003489         2
        42        24        25        44     9        0.000000        0.277503         3
        42        24        25        44     9      180.000000        0.010890         4
        42        24        25        45     9        0.000000       -0.006057         1
        42        24        25        45     9      180.000000       -0.003489         2
        42        24        25        45     9        0.000000        0.277503         3
        42        24        25        45     9      180.000000        0.010890         4
        43        24        25        44     9        0.000000       -0.006057         1
        43        24        25        44     9      180.000000       -0.003489         2
        43        24        25        44     9        0.000000        0.277503         3
        43        24        25        44     9      180.000000        0.010890         4
        43        24        25        45     9        0.000000       -0.006057         1
        43        24        25        45     9      180.000000       -0.003489         2
        43        24        25        45     9        0.000000        0.277503         3
        43        24        25        45     9      180.000000        0.010890         4

[ dihedrals ] ; impropers
;       ai        aj        ak        al funct           phase               k        pn
         2         1         4         5     4      180.000000       11.399178         2
         2         4         5         1     4      180.000000       11.399178         2
         2         5         1         4     4      180.000000       11.399178         2
         6         3         7        19     4      180.000000        0.195332         2
         6         7        19         3     4      180.000000        0.195332         2
         6        19         3         7     4      180.000000        0.195332         2
         8         4         9        10     4      180.000000       27.893333         2
         8         9        10         4     4      180.000000       27.893333         2
         8        10         4         9     4      180.000000       27.893333         2
        11         5         9        12     4      180.000000        9.427914         2
        11         9        12         5     4      180.000000        9.427914         2
        11        12         5         9     4      180.000000        9.427914         2

[ pairs ]
;       ai        aj funct
         1         7     1
         1         8     1
         1        11     1
         1        19     1
         2         6     1
         2         9     1
         2        10     1
         2        12     1
         2        27     1
         2        28     1
         2        34     1
         2        35     1
         2        36     1
         3         4     1
         3         5     1
         3        28     1
         3        34     1
         3        35     1
         3        36     1
         4        11     1
         4        18     1
         4        19     1
         4        29     1
         5         7     1
         5         8     1
         5        13     1
         5        17     1
         5        18     1
         5        29     1
         6         8     1
         6        18     1
         7         9     1
         7        10     1
         7        27     1
         8        12     1
         8        28     1
         9        13     1
         9        17     1
        10        11     1
        10        29     1
        11        14     1
        11        16     1
        11        30     1
        11        33     1
        12        15     1
        12        29     1
        12        31     1
        12        32     1
        13        16     1
        13        20     1
        13        33     1
        14        17     1
        14        21     1
        14        25     1
        14        32     1
        14        37     1
        15        22     1
        15        24     1
        15        30     1
        15        33     1
        15        38     1
        15        39     1
        15        44     1
        15        45     1
        16        21     1
        16        25     1
        16        31     1
        16        37     1
        17        20     1
        17        30     1
        18        27     1
        19        27     1
        19        28     1
        20        23     1
        20        31     1
        20        32     1
        20        40     1
        20        41     1
        20        42     1
        20        43     1
        21        24     1
        21        26     1
        21        44     1
        21        45     1
        22        25     1
        22        37     1
        22        42     1
        22        43     1
        22        46     1
        22        47     1
        22        48     1
        23        38     1
        23        39     1
        23        44     1
        23        45     1
        24        37     1
        24        40     1
        24        41     1
        24        46     1
        24        47     1
        24        48     1
        25        26     1
        25        38     1
        25        39     1
        26        40     1
        26        41     1
        26        42     1
        26        43     1
        30        31     1
        32        33     1
        37        38     1
        37        39     1
        37        44     1
        37        45     1
        38        40     1
        38        41     1
        39        40     1
        39        41     1
        42        44     1
        42        45     1
        43        44     1
        43        45     1
