; ITP file created by ByteFF-joint-25, 2026-02-17 09:19:27.538108

[ atomtypes ]
;name           bonded.type        at.num        mass        charge   ptype           sigma         epsilon
 o0bf                                   8      0.0000       0.00000       A     3.24330e-01     3.89311e-01    ;  uncertainty sigma = 0.000018, epsilon = 0.001661
 c1bf                                   6      0.0000       0.00000       A     3.39703e-01     4.51586e-01    ;  uncertainty sigma = 0.000021, epsilon = 0.001556
 c2bf                                   6      0.0000       0.00000       A     3.39773e-01     4.50315e-01    ;  uncertainty sigma = 0.000014, epsilon = 0.000914
 c3bf                                   6      0.0000       0.00000       A     3.39746e-01     4.50556e-01    ;  uncertainty sigma = 0.000010, epsilon = 0.000500
 c4bf                                   6      0.0000       0.00000       A     3.31554e-01     4.13563e-01    ;  uncertainty sigma = 0.000006, epsilon = 0.000820
 c5bf                                   6      0.0000       0.00000       A     3.31572e-01     4.12464e-01    ;  uncertainty sigma = 0.000028, epsilon = 0.001235
 c6bf                                   6      0.0000       0.00000       A     3.31547e-01     4.12884e-01    ;  uncertainty sigma = 0.000019, epsilon = 0.002001
 c7bf                                   6      0.0000       0.00000       A     3.31488e-01     4.13281e-01    ;  uncertainty sigma = 0.000016, epsilon = 0.000289
 c8bf                                   6      0.0000       0.00000       A     3.31528e-01     4.13628e-01    ;  uncertainty sigma = 0.000009, epsilon = 0.000546
 c9bf                                   6      0.0000       0.00000       A     3.31530e-01     4.13165e-01    ;  uncertainty sigma = 0.000014, epsilon = 0.000565
 o10bf                                  8      0.0000       0.00000       A     3.15543e-01     3.02041e-01    ;  uncertainty sigma = 0.000032, epsilon = 0.001425
 c11bf                                  6      0.0000       0.00000       A     3.31512e-01     4.13609e-01    ;  uncertainty sigma = 0.000009, epsilon = 0.000770
 c12bf                                  6      0.0000       0.00000       A     3.31517e-01     4.13670e-01    ;  uncertainty sigma = 0.000004, epsilon = 0.000827
 c13bf                                  6      0.0000       0.00000       A     3.31508e-01     4.13334e-01    ;  uncertainty sigma = 0.000007, epsilon = 0.000485
 f14bf                                  9      0.0000       0.00000       A     3.03419e-01     3.47947e-01    ;  uncertainty sigma = 0.000007, epsilon = 0.000665
 c15bf                                  6      0.0000       0.00000       A     3.31534e-01     4.13575e-01    ;  uncertainty sigma = 0.000007, epsilon = 0.000519
 c16bf                                  6      0.0000       0.00000       A     3.31517e-01     4.13124e-01    ;  uncertainty sigma = 0.000007, epsilon = 0.000564
 cl17bf                                17      0.0000       0.00000       A     3.46589e-01     1.10398e+00    ;  uncertainty sigma = 0.000015, epsilon = 0.001735
 c18bf                                  6      0.0000       0.00000       A     3.31524e-01     4.13439e-01    ;  uncertainty sigma = 0.000004, epsilon = 0.000655
 s19bf                                 16      0.0000       0.00000       A     4.05952e-01     2.57052e-01    ;  uncertainty sigma = 0.000036, epsilon = 0.005064
 o20bf                                  8      0.0000       0.00000       A     3.04753e-01     6.10946e-01    ;  uncertainty sigma = 0.000057, epsilon = 0.002055
 o21bf                                  8      0.0000       0.00000       A     3.04753e-01     6.10946e-01    ;  uncertainty sigma = 0.000057, epsilon = 0.002055
 c22bf                                  6      0.0000       0.00000       A     3.39859e-01     4.51367e-01    ;  uncertainty sigma = 0.000048, epsilon = 0.003815
 f23bf                                  9      0.0000       0.00000       A     3.03556e-01     3.47331e-01    ;  uncertainty sigma = 0.000038, epsilon = 0.002391
 f24bf                                  9      0.0000       0.00000       A     3.03556e-01     3.47331e-01    ;  uncertainty sigma = 0.000038, epsilon = 0.002391
 h25bf                                  1      0.0000       0.00000       A     5.37915e-02     1.95462e-02    ;  uncertainty sigma = 0.000136, epsilon = 0.000884
 h26bf                                  1      0.0000       0.00000       A     2.42240e-01     8.61663e-02    ;  uncertainty sigma = 0.000028, epsilon = 0.001739
 h27bf                                  1      0.0000       0.00000       A     2.60017e-01     8.68074e-02    ;  uncertainty sigma = 0.000016, epsilon = 0.000716
 h28bf                                  1      0.0000       0.00000       A     2.60017e-01     8.68074e-02    ;  uncertainty sigma = 0.000016, epsilon = 0.000716
 h29bf                                  1      0.0000       0.00000       A     2.60038e-01     8.69412e-02    ;  uncertainty sigma = 0.000014, epsilon = 0.000529
 h30bf                                  1      0.0000       0.00000       A     2.60038e-01     8.69412e-02    ;  uncertainty sigma = 0.000014, epsilon = 0.000529
 h31bf                                  1      0.0000       0.00000       A     2.62567e-01     6.72430e-02    ;  uncertainty sigma = 0.000020, epsilon = 0.000765
 h32bf                                  1      0.0000       0.00000       A     2.62556e-01     6.70855e-02    ;  uncertainty sigma = 0.000006, epsilon = 0.000381
 h33bf                                  1      0.0000       0.00000       A     2.62552e-01     6.72491e-02    ;  uncertainty sigma = 0.000007, epsilon = 0.000350
 h34bf                                  1      0.0000       0.00000       A     2.62576e-01     6.72707e-02    ;  uncertainty sigma = 0.000009, epsilon = 0.000517
 h35bf                                  1      0.0000       0.00000       A     2.62563e-01     6.72159e-02    ;  uncertainty sigma = 0.000003, epsilon = 0.000466
 h36bf                                  1      0.0000       0.00000       A     2.06486e-01     8.66134e-02    ;  uncertainty sigma = 0.000324, epsilon = 0.003096

[ moleculetype ]
;name             nrexcl
 MOL                   3

[ atoms ]
;       nr            type      resi   res      atom      cgnr      charge          mass ; qtot
         1            o0bf         1   UNL        o0         1    -0.59206       15.9990 ; qtot   -0.592
         2            c1bf         1   UNL        c1         2     0.18404       12.0110 ; qtot   -0.408
         3            c2bf         1   UNL        c2         3    -0.09696       12.0110 ; qtot   -0.505
         4            c3bf         1   UNL        c3         4    -0.02413       12.0110 ; qtot   -0.529
         5            c4bf         1   UNL        c4         5    -0.10181       12.0110 ; qtot   -0.631
         6            c5bf         1   UNL        c5         6     0.00726       12.0110 ; qtot   -0.624
         7            c6bf         1   UNL        c6         7    -0.22515       12.0110 ; qtot   -0.849
         8            c7bf         1   UNL        c7         8    -0.00134       12.0110 ; qtot   -0.850
         9            c8bf         1   UNL        c8         9    -0.17811       12.0110 ; qtot   -1.028
        10            c9bf         1   UNL        c9        10     0.15506       12.0110 ; qtot   -0.873
        11           o10bf         1   UNL       o10        11    -0.24935       15.9990 ; qtot   -1.123
        12           c11bf         1   UNL       c11        12     0.15626       12.0110 ; qtot   -0.966
        13           c12bf         1   UNL       c12        13    -0.20042       12.0110 ; qtot   -1.167
        14           c13bf         1   UNL       c13        14     0.16292       12.0110 ; qtot   -1.004
        15           f14bf         1   UNL       f14        15    -0.13588       18.9980 ; qtot   -1.140
        16           c15bf         1   UNL       c15        16    -0.17850       12.0110 ; qtot   -1.318
        17           c16bf         1   UNL       c16        17     0.07787       12.0110 ; qtot   -1.240
        18          cl17bf         1   UNL      cl17        18    -0.09983       35.4530 ; qtot   -1.340
        19           c18bf         1   UNL       c18        19    -0.16680       12.0110 ; qtot   -1.507
        20           s19bf         1   UNL       s19        20     0.94928       32.0670 ; qtot   -0.558
        21           o20bf         1   UNL       o20        21    -0.54108       15.9990 ; qtot   -1.099
        22           o21bf         1   UNL       o21        22    -0.54108       15.9990 ; qtot   -1.640
        23           c22bf         1   UNL       c22        23     0.39889       12.0110 ; qtot   -1.241
        24           f23bf         1   UNL       f23        24    -0.20936       18.9980 ; qtot   -1.450
        25           f24bf         1   UNL       f24        25    -0.20936       18.9980 ; qtot   -1.660
        26           h25bf         1   UNL       h25        26     0.40718        1.0080 ; qtot   -1.252
        27           h26bf         1   UNL       h26        27     0.07414        1.0080 ; qtot   -1.178
        28           h27bf         1   UNL       h27        28     0.05823        1.0080 ; qtot   -1.120
        29           h28bf         1   UNL       h28        29     0.05823        1.0080 ; qtot   -1.062
        30           h29bf         1   UNL       h29        30     0.06200        1.0080 ; qtot   -1.000
        31           h30bf         1   UNL       h30        31     0.06200        1.0080 ; qtot   -0.938
        32           h31bf         1   UNL       h31        32     0.16754        1.0080 ; qtot   -0.770
        33           h32bf         1   UNL       h32        33     0.15782        1.0080 ; qtot   -0.612
        34           h33bf         1   UNL       h33        34     0.17204        1.0080 ; qtot   -0.440
        35           h34bf         1   UNL       h34        35     0.17092        1.0080 ; qtot   -0.270
        36           h35bf         1   UNL       h35        36     0.16998        1.0080 ; qtot   -0.100
        37           h36bf         1   UNL       h36        37     0.09956        1.0080 ; qtot   -0.000

[ bonds ]
;       ai        aj funct               r               k
         1         2     1        0.143533   257069.617969    ;  uncertainty r = 0.000166, k = 4.670764
         1        26     1        0.097172   466410.174219    ;  uncertainty r = 0.000041, k = 3.930961
         2         3     1        0.154518   209733.827734    ;  uncertainty r = 0.000061, k = 10.764843
         2         6     1        0.152148   245065.516650    ;  uncertainty r = 0.000147, k = 29.418282
         2        27     1        0.109431   307339.060254    ;  uncertainty r = 0.000027, k = 2.137466
         3         4     1        0.154975   222428.171582    ;  uncertainty r = 0.000050, k = 7.178791
         3        28     1        0.109435   308683.333691    ;  uncertainty r = 0.000016, k = 3.034245
         3        29     1        0.109435   308683.359229    ;  uncertainty r = 0.000016, k = 3.034269
         4         5     1        0.151314   253636.740967    ;  uncertainty r = 0.000070, k = 17.146147
         4        30     1        0.109543   308088.753174    ;  uncertainty r = 0.000021, k = 1.530882
         4        31     1        0.109543   308088.753174    ;  uncertainty r = 0.000021, k = 1.530882
         5         6     1        0.139632   361377.141455    ;  uncertainty r = 0.000117, k = 19.668964
         5        10     1        0.138936   352617.785254    ;  uncertainty r = 0.000105, k = 4.458738
         6         7     1        0.139528   333515.133643    ;  uncertainty r = 0.000160, k = 10.805911
         7         8     1        0.139291   347067.498828    ;  uncertainty r = 0.000169, k = 4.899698
         7        20     1        0.177657   133654.922803    ;  uncertainty r = 0.000105, k = 15.479478
         8         9     1        0.139047   365888.144141    ;  uncertainty r = 0.000089, k = 4.428435
         8        32     1        0.108451   328724.754980    ;  uncertainty r = 0.000029, k = 1.039879
         9        10     1        0.139726   353381.038379    ;  uncertainty r = 0.000053, k = 5.868546
         9        33     1        0.108753   336163.893701    ;  uncertainty r = 0.000031, k = 1.172871
        10        11     1        0.138621   316782.862061    ;  uncertainty r = 0.000147, k = 10.092595
        11        12     1        0.137519   318192.944629    ;  uncertainty r = 0.000095, k = 4.691099
        12        13     1        0.139470   360673.415332    ;  uncertainty r = 0.000035, k = 2.270758
        12        19     1        0.139438   356766.901562    ;  uncertainty r = 0.000021, k = 1.906978
        13        14     1        0.138904   363265.993750    ;  uncertainty r = 0.000032, k = 2.085224
        13        34     1        0.108793   339333.738477    ;  uncertainty r = 0.000019, k = 1.300915
        14        15     1        0.135256   340052.761328    ;  uncertainty r = 0.000049, k = 2.088005
        14        16     1        0.139015   361949.300391    ;  uncertainty r = 0.000049, k = 3.307054
        16        17     1        0.139473   365943.636279    ;  uncertainty r = 0.000030, k = 2.878089
        16        35     1        0.108675   338128.974268    ;  uncertainty r = 0.000014, k = 0.350216
        17        18     1        0.175206   198763.353687    ;  uncertainty r = 0.000067, k = 1.577658
        17        19     1        0.139324   360881.849219    ;  uncertainty r = 0.000048, k = 3.738122
        19        36     1        0.108724   337852.688281    ;  uncertainty r = 0.000010, k = 1.343302
        20        21     1        0.146996   488142.560742    ;  uncertainty r = 0.000109, k = 11.850675
        20        22     1        0.146996   488142.560742    ;  uncertainty r = 0.000109, k = 11.850675
        20        23     1        0.186536   142705.018994    ;  uncertainty r = 0.000116, k = 23.071390
        23        24     1        0.134863   311074.398779    ;  uncertainty r = 0.000139, k = 4.314219
        23        25     1        0.134863   311074.398779    ;  uncertainty r = 0.000139, k = 4.314219
        23        37     1        0.109695   322431.670654    ;  uncertainty r = 0.000162, k = 6.852620

[ angles ]
;       ai        aj        ak funct           theta             cth
         1         2         3     1      111.449783      673.121494    ;  uncertainty theta = 0.002674, k = 0.263806
         1         2         6     1      111.900185      651.776428    ;  uncertainty theta = 0.004402, k = 0.190576
         1         2        27     1      106.891518      437.961937    ;  uncertainty theta = 0.007090, k = 0.137106
         2         1        26     1      107.588623      459.544465    ;  uncertainty theta = 0.004020, k = 0.056400
         2         3         4     1      106.715515      678.485819    ;  uncertainty theta = 0.004376, k = 0.218757
         2         3        28     1      107.842712      397.967184    ;  uncertainty theta = 0.002119, k = 0.040321
         2         3        29     1      107.842712      397.967152    ;  uncertainty theta = 0.002119, k = 0.040321
         2         6         5     1      115.295250      494.697062    ;  uncertainty theta = 0.004534, k = 0.254475
         2         6         7     1      125.442612      367.036701    ;  uncertainty theta = 0.006058, k = 0.078648
         3         2         6     1      105.235428      723.032369    ;  uncertainty theta = 0.001020, k = 0.217381
         3         2        27     1      109.649307      387.426200    ;  uncertainty theta = 0.002973, k = 0.166893
         3         4         5     1      104.344833      718.666162    ;  uncertainty theta = 0.001502, k = 0.113715
         3         4        30     1      109.754356      400.758709    ;  uncertainty theta = 0.001435, k = 0.054483
         3         4        31     1      109.754356      400.758709    ;  uncertainty theta = 0.001435, k = 0.054483
         4         3        28     1      109.660057      409.426324    ;  uncertainty theta = 0.002536, k = 0.043240
         4         3        29     1      109.660057      409.426324    ;  uncertainty theta = 0.002536, k = 0.043240
         4         5         6     1      115.236778      526.219144    ;  uncertainty theta = 0.002765, k = 0.223441
         4         5        10     1      126.998001      389.468594    ;  uncertainty theta = 0.004444, k = 0.194784
         5         4        30     1      109.538185      391.019909    ;  uncertainty theta = 0.001716, k = 0.094266
         5         4        31     1      109.538185      391.019909    ;  uncertainty theta = 0.001716, k = 0.094266
         5         6         7     1      121.194725      430.981878    ;  uncertainty theta = 0.006619, k = 0.177125
         5        10         9     1      120.704590      383.635280    ;  uncertainty theta = 0.003907, k = 0.219189
         5        10        11     1      118.002274      406.245198    ;  uncertainty theta = 0.008976, k = 0.378805
         6         2        27     1      108.623878      381.438705    ;  uncertainty theta = 0.003222, k = 0.121087
         6         5        10     1      119.321045      421.582626    ;  uncertainty theta = 0.001997, k = 0.107709
         6         7         8     1      123.531410      444.689369    ;  uncertainty theta = 0.005499, k = 0.186575
         6         7        20     1      116.813980      339.381480    ;  uncertainty theta = 0.009516, k = 0.405491
         7         8         9     1      121.438065      491.886256    ;  uncertainty theta = 0.006097, k = 0.120300
         7         8        32     1      118.731361      262.429583    ;  uncertainty theta = 0.003163, k = 0.112635
         7        20        21     1      115.520485      628.484222    ;  uncertainty theta = 0.008620, k = 0.080008
         7        20        22     1      115.520485      628.484222    ;  uncertainty theta = 0.008620, k = 0.080008
         7        20        23     1      104.641113      509.547753    ;  uncertainty theta = 0.007990, k = 0.346228
         8         7        20     1      115.854019      353.190927    ;  uncertainty theta = 0.009759, k = 0.198880
         8         9        10     1      119.936890      510.016614    ;  uncertainty theta = 0.002468, k = 0.044940
         8         9        33     1      120.069801      277.121241    ;  uncertainty theta = 0.001669, k = 0.045307
         9         8        32     1      120.480507      283.263427    ;  uncertainty theta = 0.002371, k = 0.063445
         9        10        11     1      120.644691      434.361459    ;  uncertainty theta = 0.002829, k = 0.211145
        10         9        33     1      120.292114      276.044724    ;  uncertainty theta = 0.002649, k = 0.068495
        10        11        12     1      112.890213      473.870751    ;  uncertainty theta = 0.002181, k = 0.127893
        11        12        13     1      119.201767      420.134800    ;  uncertainty theta = 0.003548, k = 0.053645
        11        12        19     1      119.239456      415.850950    ;  uncertainty theta = 0.002984, k = 0.065572
        12        13        14     1      116.674026      503.811416    ;  uncertainty theta = 0.002754, k = 0.151037
        12        13        34     1      121.893898      273.323490    ;  uncertainty theta = 0.002510, k = 0.090327
        12        19        17     1      117.162247      514.389844    ;  uncertainty theta = 0.001036, k = 0.104498
        12        19        36     1      121.268021      275.385324    ;  uncertainty theta = 0.001968, k = 0.071473
        13        12        19     1      122.565918      385.536996    ;  uncertainty theta = 0.004234, k = 0.141047
        13        14        15     1      118.455978      494.448139    ;  uncertainty theta = 0.001658, k = 0.034362
        13        14        16     1      123.752380      363.952616    ;  uncertainty theta = 0.004419, k = 0.143206
        14        13        34     1      121.754105      284.023379    ;  uncertainty theta = 0.002069, k = 0.039634
        14        16        17     1      115.803238      478.705054    ;  uncertainty theta = 0.001376, k = 0.113134
        14        16        35     1      121.638588      280.640063    ;  uncertainty theta = 0.002111, k = 0.042509
        15        14        16     1      118.552078      502.703616    ;  uncertainty theta = 0.002488, k = 0.039641
        16        17        18     1      120.101097      446.309443    ;  uncertainty theta = 0.001191, k = 0.064102
        16        17        19     1      122.602615      366.111364    ;  uncertainty theta = 0.001242, k = 0.077269
        17        16        35     1      122.502640      281.974441    ;  uncertainty theta = 0.001614, k = 0.034256
        17        19        36     1      121.923767      288.023799    ;  uncertainty theta = 0.001251, k = 0.029561
        18        17        19     1      120.062332      441.130645    ;  uncertainty theta = 0.001588, k = 0.103440
        20        23        24     1      105.975868      511.799679    ;  uncertainty theta = 0.002875, k = 0.156926
        20        23        25     1      105.975868      511.799679    ;  uncertainty theta = 0.002875, k = 0.156926
        20        23        37     1      112.107346      381.893489    ;  uncertainty theta = 0.010585, k = 0.201519
        21        20        22     1      125.136795      859.031394    ;  uncertainty theta = 0.002708, k = 0.070467
        21        20        23     1      107.842819      525.272898    ;  uncertainty theta = 0.005343, k = 0.249030
        22        20        23     1      107.842819      525.272898    ;  uncertainty theta = 0.005343, k = 0.249030
        24        23        25     1      109.505371      835.369028    ;  uncertainty theta = 0.003942, k = 0.097215
        24        23        37     1      112.536720      472.683372    ;  uncertainty theta = 0.005070, k = 0.120464
        25        23        37     1      112.536720      472.683372    ;  uncertainty theta = 0.005070, k = 0.120464
        28         3        29     1      106.018265      313.348089    ;  uncertainty theta = 0.003981, k = 0.146063
        30         4        31     1      104.182007      294.463333    ;  uncertainty theta = 0.002010, k = 0.058192

[ dihedrals ] ; propers for gromacs 4.5 or higher, use funct 9
;       ai        aj        ak        al funct           phase               k        pn
         1         2         3         4     9        0.000000       -3.342062         1    ;  uncertainty k = 1.578877
         1         2         3         4     9      180.000000        0.863846         2    ;  uncertainty k = 0.843811
         1         2         3         4     9        0.000000        1.531305         3    ;  uncertainty k = 0.199465
         1         2         3         4     9      180.000000       -0.088753         4    ;  uncertainty k = 0.065010
         1         2         3        28     9        0.000000       -0.901220         1    ;  uncertainty k = 0.547697
         1         2         3        28     9      180.000000       -0.254159         2    ;  uncertainty k = 0.170660
         1         2         3        28     9        0.000000        1.261862         3    ;  uncertainty k = 0.067842
         1         2         3        28     9      180.000000        0.077065         4    ;  uncertainty k = 0.084590
         1         2         3        29     9        0.000000       -0.901222         1    ;  uncertainty k = 0.547698
         1         2         3        29     9      180.000000       -0.254161         2    ;  uncertainty k = 0.170661
         1         2         3        29     9        0.000000        1.261862         3    ;  uncertainty k = 0.067842
         1         2         3        29     9      180.000000        0.077065         4    ;  uncertainty k = 0.084589
         1         2         6         5     9        0.000000       -4.375519         1    ;  uncertainty k = 1.064718
         1         2         6         5     9      180.000000        4.381636         2    ;  uncertainty k = 0.953282
         1         2         6         5     9        0.000000        1.189905         3    ;  uncertainty k = 0.567483
         1         2         6         5     9      180.000000        0.680777         4    ;  uncertainty k = 0.146042
         1         2         6         7     9        0.000000       -0.597402         1    ;  uncertainty k = 1.655658
         1         2         6         7     9      180.000000        3.773367         2    ;  uncertainty k = 0.261104
         1         2         6         7     9        0.000000       -0.157522         3    ;  uncertainty k = 0.216638
         1         2         6         7     9      180.000000        0.546639         4    ;  uncertainty k = 0.248881
         2         3         4         5     9        0.000000       -0.684299         1    ;  uncertainty k = 1.594146
         2         3         4         5     9      180.000000        4.030407         2    ;  uncertainty k = 1.227423
         2         3         4         5     9        0.000000       -0.006086         3    ;  uncertainty k = 0.543343
         2         3         4         5     9      180.000000       -1.342367         4    ;  uncertainty k = 0.437537
         2         3         4        30     9        0.000000       -0.760454         1    ;  uncertainty k = 0.349584
         2         3         4        30     9      180.000000       -0.549408         2    ;  uncertainty k = 0.110970
         2         3         4        30     9        0.000000        0.498132         3    ;  uncertainty k = 0.225801
         2         3         4        30     9      180.000000        0.222890         4    ;  uncertainty k = 0.087989
         2         3         4        31     9        0.000000       -0.760454         1    ;  uncertainty k = 0.349584
         2         3         4        31     9      180.000000       -0.549408         2    ;  uncertainty k = 0.110970
         2         3         4        31     9        0.000000        0.498132         3    ;  uncertainty k = 0.225801
         2         3         4        31     9      180.000000        0.222890         4    ;  uncertainty k = 0.087989
         2         6         5         4     9        0.000000        0.471009         1    ;  uncertainty k = 0.896244
         2         6         5         4     9      180.000000       12.415320         2    ;  uncertainty k = 0.870811
         2         6         5         4     9        0.000000       -0.510868         3    ;  uncertainty k = 0.490341
         2         6         5         4     9      180.000000        1.305700         4    ;  uncertainty k = 0.212889
         2         6         5        10     9        0.000000        0.489005         1    ;  uncertainty k = 0.459422
         2         6         5        10     9      180.000000        8.622011         2    ;  uncertainty k = 0.332117
         2         6         5        10     9        0.000000        0.672400         3    ;  uncertainty k = 0.439813
         2         6         5        10     9      180.000000        1.348201         4    ;  uncertainty k = 0.102087
         2         6         7         8     9        0.000000        0.363349         1    ;  uncertainty k = 0.395580
         2         6         7         8     9      180.000000        6.401265         2    ;  uncertainty k = 0.309684
         2         6         7         8     9        0.000000        1.152721         3    ;  uncertainty k = 0.284573
         2         6         7         8     9      180.000000        1.628962         4    ;  uncertainty k = 0.128668
         2         6         7        20     9        0.000000        0.192368         1    ;  uncertainty k = 0.350271
         2         6         7        20     9      180.000000        6.624676         2    ;  uncertainty k = 0.682000
         2         6         7        20     9        0.000000        1.009292         3    ;  uncertainty k = 0.218751
         2         6         7        20     9      180.000000        1.220791         4    ;  uncertainty k = 0.172920
         3         2         1        26     9        0.000000       13.805087         1    ;  uncertainty k = 0.571622
         3         2         1        26     9      180.000000       -2.266191         2    ;  uncertainty k = 0.366169
         3         2         1        26     9        0.000000        1.130772         3    ;  uncertainty k = 0.169732
         3         2         1        26     9      180.000000        0.349907         4    ;  uncertainty k = 0.090577
         3         2         6         5     9        0.000000       -2.468144         1    ;  uncertainty k = 1.682882
         3         2         6         5     9      180.000000        9.229103         2    ;  uncertainty k = 0.773320
         3         2         6         5     9        0.000000       -0.770570         3    ;  uncertainty k = 0.410688
         3         2         6         5     9      180.000000        0.885938         4    ;  uncertainty k = 0.123884
         3         2         6         7     9        0.000000       -1.645518         1    ;  uncertainty k = 1.317953
         3         2         6         7     9      180.000000        3.204004         2    ;  uncertainty k = 0.464153
         3         2         6         7     9        0.000000        0.396131         3    ;  uncertainty k = 0.502597
         3         2         6         7     9      180.000000        0.576750         4    ;  uncertainty k = 0.126506
         3         4         5         6     9        0.000000       -1.872506         1    ;  uncertainty k = 2.018422
         3         4         5         6     9      180.000000       10.504033         2    ;  uncertainty k = 0.607789
         3         4         5         6     9        0.000000       -1.523921         3    ;  uncertainty k = 0.373874
         3         4         5         6     9      180.000000        0.761803         4    ;  uncertainty k = 0.226175
         3         4         5        10     9        0.000000       -1.161648         1    ;  uncertainty k = 0.921489
         3         4         5        10     9      180.000000        2.437251         2    ;  uncertainty k = 0.205727
         3         4         5        10     9        0.000000        0.566258         3    ;  uncertainty k = 0.315840
         3         4         5        10     9      180.000000        0.576992         4    ;  uncertainty k = 0.156603
         4         3         2         6     9        0.000000       -0.459642         1    ;  uncertainty k = 1.125653
         4         3         2         6     9      180.000000        3.606762         2    ;  uncertainty k = 1.024380
         4         3         2         6     9        0.000000        0.141668         3    ;  uncertainty k = 0.376185
         4         3         2         6     9      180.000000       -1.014413         4    ;  uncertainty k = 0.507124
         4         3         2        27     9        0.000000       -1.418650         1    ;  uncertainty k = 0.646272
         4         3         2        27     9      180.000000        0.816216         2    ;  uncertainty k = 0.436171
         4         3         2        27     9        0.000000        0.532242         3    ;  uncertainty k = 0.277440
         4         3         2        27     9      180.000000       -0.034024         4    ;  uncertainty k = 0.120488
         4         5         6         7     9        0.000000        0.133991         1    ;  uncertainty k = 0.732144
         4         5         6         7     9      180.000000        8.641217         2    ;  uncertainty k = 0.479919
         4         5         6         7     9        0.000000        0.656736         3    ;  uncertainty k = 0.526297
         4         5         6         7     9      180.000000        1.222558         4    ;  uncertainty k = 0.183276
         4         5        10         9     9        0.000000        0.370449         1    ;  uncertainty k = 0.382720
         4         5        10         9     9      180.000000        6.005683         2    ;  uncertainty k = 0.329698
         4         5        10         9     9        0.000000        1.325238         3    ;  uncertainty k = 0.234944
         4         5        10         9     9      180.000000        1.655461         4    ;  uncertainty k = 0.256702
         4         5        10        11     9        0.000000       -0.097304         1    ;  uncertainty k = 0.403461
         4         5        10        11     9      180.000000        8.902007         2    ;  uncertainty k = 0.305679
         4         5        10        11     9        0.000000        0.989420         3    ;  uncertainty k = 0.103282
         4         5        10        11     9      180.000000        1.319844         4    ;  uncertainty k = 0.219530
         5         4         3        28     9        0.000000       -0.910347         1    ;  uncertainty k = 0.467044
         5         4         3        28     9      180.000000       -0.234194         2    ;  uncertainty k = 0.201433
         5         4         3        28     9        0.000000        0.719508         3    ;  uncertainty k = 0.104728
         5         4         3        28     9      180.000000        0.032903         4    ;  uncertainty k = 0.100554
         5         4         3        29     9        0.000000       -0.910347         1    ;  uncertainty k = 0.467044
         5         4         3        29     9      180.000000       -0.234195         2    ;  uncertainty k = 0.201434
         5         4         3        29     9        0.000000        0.719507         3    ;  uncertainty k = 0.104728
         5         4         3        29     9      180.000000        0.032904         4    ;  uncertainty k = 0.100554
         5         6         2        27     9        0.000000       -0.304237         1    ;  uncertainty k = 0.590476
         5         6         2        27     9      180.000000        3.063277         2    ;  uncertainty k = 0.677235
         5         6         2        27     9        0.000000        0.668883         3    ;  uncertainty k = 0.154755
         5         6         2        27     9      180.000000        0.243960         4    ;  uncertainty k = 0.136442
         5         6         7         8     9        0.000000       -0.239570         1    ;  uncertainty k = 0.542882
         5         6         7         8     9      180.000000        9.851152         2    ;  uncertainty k = 0.529224
         5         6         7         8     9        0.000000       -0.636491         3    ;  uncertainty k = 0.446640
         5         6         7         8     9      180.000000        0.889147         4    ;  uncertainty k = 0.233911
         5         6         7        20     9        0.000000        0.557950         1    ;  uncertainty k = 0.942300
         5         6         7        20     9      180.000000        7.829456         2    ;  uncertainty k = 0.822958
         5         6         7        20     9        0.000000        1.404036         3    ;  uncertainty k = 0.486654
         5         6         7        20     9      180.000000        1.640530         4    ;  uncertainty k = 0.212252
         5        10         9         8     9        0.000000        0.229385         1    ;  uncertainty k = 0.155620
         5        10         9         8     9      180.000000        9.074109         2    ;  uncertainty k = 0.410671
         5        10         9         8     9        0.000000        0.191659         3    ;  uncertainty k = 0.401366
         5        10         9         8     9      180.000000        1.296238         4    ;  uncertainty k = 0.299296
         5        10         9        33     9        0.000000        0.191103         1    ;  uncertainty k = 0.285076
         5        10         9        33     9      180.000000        6.713350         2    ;  uncertainty k = 0.491896
         5        10         9        33     9        0.000000        1.376908         3    ;  uncertainty k = 0.474513
         5        10         9        33     9      180.000000        1.630376         4    ;  uncertainty k = 0.119823
         5        10        11        12     9        0.000000        4.623049         1    ;  uncertainty k = 0.641637
         5        10        11        12     9      180.000000        4.825579         2    ;  uncertainty k = 0.384017
         5        10        11        12     9        0.000000        0.828758         3    ;  uncertainty k = 0.070635
         5        10        11        12     9      180.000000        0.141977         4    ;  uncertainty k = 0.080668
         6         2         1        26     9        0.000000       15.248154         1    ;  uncertainty k = 0.598915
         6         2         1        26     9      180.000000       -4.230297         2    ;  uncertainty k = 0.430298
         6         2         1        26     9        0.000000        1.011455         3    ;  uncertainty k = 0.115195
         6         2         1        26     9      180.000000        0.016677         4    ;  uncertainty k = 0.099896
         6         2         3        28     9        0.000000       -0.729378         1    ;  uncertainty k = 0.455231
         6         2         3        28     9      180.000000       -0.350551         2    ;  uncertainty k = 0.297538
         6         2         3        28     9        0.000000        0.584520         3    ;  uncertainty k = 0.081268
         6         2         3        28     9      180.000000       -0.031557         4    ;  uncertainty k = 0.077755
         6         2         3        29     9        0.000000       -0.729378         1    ;  uncertainty k = 0.455230
         6         2         3        29     9      180.000000       -0.350551         2    ;  uncertainty k = 0.297538
         6         2         3        29     9        0.000000        0.584521         3    ;  uncertainty k = 0.081268
         6         2         3        29     9      180.000000       -0.031557         4    ;  uncertainty k = 0.077755
         6         5         4        30     9        0.000000       -0.117593         1    ;  uncertainty k = 0.554956
         6         5         4        30     9      180.000000        1.700297         2    ;  uncertainty k = 0.323746
         6         5         4        30     9        0.000000        0.265121         3    ;  uncertainty k = 0.126165
         6         5         4        30     9      180.000000        0.275540         4    ;  uncertainty k = 0.109177
         6         5         4        31     9        0.000000       -0.117593         1    ;  uncertainty k = 0.554956
         6         5         4        31     9      180.000000        1.700297         2    ;  uncertainty k = 0.323746
         6         5         4        31     9        0.000000        0.265121         3    ;  uncertainty k = 0.126165
         6         5         4        31     9      180.000000        0.275540         4    ;  uncertainty k = 0.109177
         6         5        10         9     9        0.000000       -0.174081         1    ;  uncertainty k = 0.117163
         6         5        10         9     9      180.000000        8.167922         2    ;  uncertainty k = 0.486305
         6         5        10         9     9        0.000000       -0.451961         3    ;  uncertainty k = 0.458835
         6         5        10         9     9      180.000000        1.079102         4    ;  uncertainty k = 0.285640
         6         5        10        11     9        0.000000        0.100167         1    ;  uncertainty k = 0.239880
         6         5        10        11     9      180.000000        9.629536         2    ;  uncertainty k = 0.285011
         6         5        10        11     9        0.000000        1.411563         3    ;  uncertainty k = 0.292036
         6         5        10        11     9      180.000000        1.554012         4    ;  uncertainty k = 0.155527
         6         7         8         9     9        0.000000       -0.269463         1    ;  uncertainty k = 0.316183
         6         7         8         9     9      180.000000       10.374757         2    ;  uncertainty k = 0.575844
         6         7         8         9     9        0.000000       -0.348041         3    ;  uncertainty k = 0.463516
         6         7         8         9     9      180.000000        1.022357         4    ;  uncertainty k = 0.457924
         6         7         8        32     9        0.000000       -0.021501         1    ;  uncertainty k = 0.375569
         6         7         8        32     9      180.000000        7.303385         2    ;  uncertainty k = 0.552712
         6         7         8        32     9        0.000000        1.244254         3    ;  uncertainty k = 0.444033
         6         7         8        32     9      180.000000        1.599047         4    ;  uncertainty k = 0.059411
         6         7        20        21     9        0.000000       -2.407569         1    ;  uncertainty k = 2.128316
         6         7        20        21     9      180.000000        0.866962         2    ;  uncertainty k = 0.584832
         6         7        20        21     9        0.000000        0.459838         3    ;  uncertainty k = 0.350270
         6         7        20        21     9      180.000000       -0.009259         4    ;  uncertainty k = 0.207136
         6         7        20        22     9        0.000000       -2.407569         1    ;  uncertainty k = 2.128316
         6         7        20        22     9      180.000000        0.866962         2    ;  uncertainty k = 0.584832
         6         7        20        22     9        0.000000        0.459838         3    ;  uncertainty k = 0.350270
         6         7        20        22     9      180.000000       -0.009259         4    ;  uncertainty k = 0.207136
         6         7        20        23     9        0.000000        2.442134         1    ;  uncertainty k = 2.238982
         6         7        20        23     9      180.000000       -0.657787         2    ;  uncertainty k = 0.497754
         6         7        20        23     9        0.000000        0.276521         3    ;  uncertainty k = 0.377732
         6         7        20        23     9      180.000000        0.258834         4    ;  uncertainty k = 0.154072
         7         6         2        27     9        0.000000        2.117736         1    ;  uncertainty k = 0.728295
         7         6         2        27     9      180.000000        1.912849         2    ;  uncertainty k = 0.653416
         7         6         2        27     9        0.000000       -0.164220         3    ;  uncertainty k = 0.141561
         7         6         2        27     9      180.000000        0.185938         4    ;  uncertainty k = 0.192722
         7         6         5        10     9        0.000000        0.107464         1    ;  uncertainty k = 0.600029
         7         6         5        10     9      180.000000        8.197778         2    ;  uncertainty k = 0.375946
         7         6         5        10     9        0.000000        0.110949         3    ;  uncertainty k = 0.223731
         7         6         5        10     9      180.000000        1.175209         4    ;  uncertainty k = 0.296975
         7         8         9        10     9        0.000000        0.093444         1    ;  uncertainty k = 0.372700
         7         8         9        10     9      180.000000       12.154237         2    ;  uncertainty k = 0.425078
         7         8         9        10     9        0.000000       -0.873346         3    ;  uncertainty k = 0.661754
         7         8         9        10     9      180.000000        0.878315         4    ;  uncertainty k = 0.373611
         7         8         9        33     9        0.000000       -0.045630         1    ;  uncertainty k = 0.466430
         7         8         9        33     9      180.000000        8.339888         2    ;  uncertainty k = 0.257841
         7         8         9        33     9        0.000000        1.192660         3    ;  uncertainty k = 0.237533
         7         8         9        33     9      180.000000        1.711448         4    ;  uncertainty k = 0.118556
         7        20        23        24     9        0.000000        1.451634         1    ;  uncertainty k = 0.883565
         7        20        23        24     9      180.000000       -1.143214         2    ;  uncertainty k = 0.349319
         7        20        23        24     9        0.000000        0.332364         3    ;  uncertainty k = 0.322707
         7        20        23        24     9      180.000000       -0.135582         4    ;  uncertainty k = 0.236485
         7        20        23        25     9        0.000000        1.451634         1    ;  uncertainty k = 0.883565
         7        20        23        25     9      180.000000       -1.143214         2    ;  uncertainty k = 0.349319
         7        20        23        25     9        0.000000        0.332364         3    ;  uncertainty k = 0.322707
         7        20        23        25     9      180.000000       -0.135582         4    ;  uncertainty k = 0.236485
         7        20        23        37     9        0.000000        1.383761         1    ;  uncertainty k = 0.484162
         7        20        23        37     9      180.000000       -1.451308         2    ;  uncertainty k = 0.884451
         7        20        23        37     9        0.000000        0.114720         3    ;  uncertainty k = 0.244062
         7        20        23        37     9      180.000000       -0.146111         4    ;  uncertainty k = 0.188600
         8         7        20        21     9        0.000000       -1.547441         1    ;  uncertainty k = 0.994294
         8         7        20        21     9      180.000000        1.062236         2    ;  uncertainty k = 0.903334
         8         7        20        21     9        0.000000        0.197462         3    ;  uncertainty k = 0.274258
         8         7        20        21     9      180.000000        0.005180         4    ;  uncertainty k = 0.215014
         8         7        20        22     9        0.000000       -1.547441         1    ;  uncertainty k = 0.994294
         8         7        20        22     9      180.000000        1.062236         2    ;  uncertainty k = 0.903334
         8         7        20        22     9        0.000000        0.197462         3    ;  uncertainty k = 0.274258
         8         7        20        22     9      180.000000        0.005180         4    ;  uncertainty k = 0.215014
         8         7        20        23     9        0.000000        2.250917         1    ;  uncertainty k = 0.909104
         8         7        20        23     9      180.000000        0.054767         2    ;  uncertainty k = 0.527485
         8         7        20        23     9        0.000000        0.117482         3    ;  uncertainty k = 0.623981
         8         7        20        23     9      180.000000        0.247335         4    ;  uncertainty k = 0.140513
         8         9        10        11     9        0.000000       -0.024767         1    ;  uncertainty k = 0.290891
         8         9        10        11     9      180.000000       10.883812         2    ;  uncertainty k = 0.458041
         8         9        10        11     9        0.000000        1.495609         3    ;  uncertainty k = 0.295691
         8         9        10        11     9      180.000000        1.739524         4    ;  uncertainty k = 0.248527
         9         8         7        20     9        0.000000        0.478452         1    ;  uncertainty k = 0.258753
         9         8         7        20     9      180.000000        8.866861         2    ;  uncertainty k = 0.542932
         9         8         7        20     9        0.000000        1.356871         3    ;  uncertainty k = 0.331120
         9         8         7        20     9      180.000000        1.871625         4    ;  uncertainty k = 0.156920
         9        10        11        12     9        0.000000        5.304213         1    ;  uncertainty k = 0.315003
         9        10        11        12     9      180.000000        5.705822         2    ;  uncertainty k = 0.219233
         9        10        11        12     9        0.000000        0.393357         3    ;  uncertainty k = 0.190167
         9        10        11        12     9      180.000000        0.194901         4    ;  uncertainty k = 0.083714
        10         5         4        30     9        0.000000        0.848574         1    ;  uncertainty k = 0.331442
        10         5         4        30     9      180.000000        1.575034         2    ;  uncertainty k = 0.739757
        10         5         4        30     9        0.000000        0.112942         3    ;  uncertainty k = 0.240332
        10         5         4        30     9      180.000000        0.266171         4    ;  uncertainty k = 0.138592
        10         5         4        31     9        0.000000        0.848574         1    ;  uncertainty k = 0.331442
        10         5         4        31     9      180.000000        1.575034         2    ;  uncertainty k = 0.739757
        10         5         4        31     9        0.000000        0.112942         3    ;  uncertainty k = 0.240332
        10         5         4        31     9      180.000000        0.266171         4    ;  uncertainty k = 0.138592
        10         9         8        32     9        0.000000       -0.102891         1    ;  uncertainty k = 0.358161
        10         9         8        32     9      180.000000        7.906713         2    ;  uncertainty k = 0.161171
        10         9         8        32     9        0.000000        1.044741         3    ;  uncertainty k = 0.227932
        10         9         8        32     9      180.000000        1.715008         4    ;  uncertainty k = 0.065854
        10        11        12        13     9        0.000000        4.348981         1    ;  uncertainty k = 0.435099
        10        11        12        13     9      180.000000        5.503544         2    ;  uncertainty k = 0.205262
        10        11        12        13     9        0.000000        0.488003         3    ;  uncertainty k = 0.183166
        10        11        12        13     9      180.000000        0.156913         4    ;  uncertainty k = 0.059102
        10        11        12        19     9        0.000000        4.361610         1    ;  uncertainty k = 0.377503
        10        11        12        19     9      180.000000        5.459580         2    ;  uncertainty k = 0.173056
        10        11        12        19     9        0.000000        0.496037         3    ;  uncertainty k = 0.151174
        10        11        12        19     9      180.000000        0.155770         4    ;  uncertainty k = 0.063924
        11        10         9        33     9        0.000000       -0.025469         1    ;  uncertainty k = 0.150160
        11        10         9        33     9      180.000000        9.015685         2    ;  uncertainty k = 0.362640
        11        10         9        33     9        0.000000        0.850582         3    ;  uncertainty k = 0.241509
        11        10         9        33     9      180.000000        1.135183         4    ;  uncertainty k = 0.146796
        11        12        13        14     9        0.000000        0.088393         1    ;  uncertainty k = 0.152894
        11        12        13        14     9      180.000000       10.656774         2    ;  uncertainty k = 0.289534
        11        12        13        14     9        0.000000        1.296603         3    ;  uncertainty k = 0.173110
        11        12        13        14     9      180.000000        1.618078         4    ;  uncertainty k = 0.129259
        11        12        13        34     9        0.000000       -0.075170         1    ;  uncertainty k = 0.082541
        11        12        13        34     9      180.000000        8.226633         2    ;  uncertainty k = 0.292527
        11        12        13        34     9        0.000000        0.854577         3    ;  uncertainty k = 0.253956
        11        12        13        34     9      180.000000        1.108315         4    ;  uncertainty k = 0.104493
        11        12        19        17     9        0.000000        0.090497         1    ;  uncertainty k = 0.077605
        11        12        19        17     9      180.000000       10.823193         2    ;  uncertainty k = 0.286451
        11        12        19        17     9        0.000000        1.278849         3    ;  uncertainty k = 0.114366
        11        12        19        17     9      180.000000        1.598973         4    ;  uncertainty k = 0.123528
        11        12        19        36     9        0.000000       -0.077465         1    ;  uncertainty k = 0.092705
        11        12        19        36     9      180.000000        8.357118         2    ;  uncertainty k = 0.310863
        11        12        19        36     9        0.000000        0.853927         3    ;  uncertainty k = 0.264447
        11        12        19        36     9      180.000000        1.128065         4    ;  uncertainty k = 0.105604
        12        13        14        15     9        0.000000        0.045584         1    ;  uncertainty k = 0.057718
        12        13        14        15     9      180.000000       12.596311         2    ;  uncertainty k = 0.576101
        12        13        14        15     9        0.000000        1.499107         3    ;  uncertainty k = 0.355326
        12        13        14        15     9      180.000000        1.493694         4    ;  uncertainty k = 0.251212
        12        13        14        16     9        0.000000       -0.068720         1    ;  uncertainty k = 0.187198
        12        13        14        16     9      180.000000        9.148307         2    ;  uncertainty k = 0.474345
        12        13        14        16     9        0.000000        0.003490         3    ;  uncertainty k = 0.513149
        12        13        14        16     9      180.000000        1.305518         4    ;  uncertainty k = 0.251471
        12        19        17        16     9        0.000000       -0.102604         1    ;  uncertainty k = 0.231818
        12        19        17        16     9      180.000000       10.206103         2    ;  uncertainty k = 0.354806
        12        19        17        16     9        0.000000       -0.053055         3    ;  uncertainty k = 0.518101
        12        19        17        16     9      180.000000        1.250316         4    ;  uncertainty k = 0.291051
        12        19        17        18     9        0.000000       -0.007875         1    ;  uncertainty k = 0.238131
        12        19        17        18     9      180.000000        9.377408         2    ;  uncertainty k = 0.564249
        12        19        17        18     9        0.000000        1.424945         3    ;  uncertainty k = 0.437989
        12        19        17        18     9      180.000000        1.666683         4    ;  uncertainty k = 0.161364
        13        12        19        17     9        0.000000       -0.026884         1    ;  uncertainty k = 0.060159
        13        12        19        17     9      180.000000        9.761568         2    ;  uncertainty k = 0.499778
        13        12        19        17     9        0.000000       -0.173368         3    ;  uncertainty k = 0.493710
        13        12        19        17     9      180.000000        1.181592         4    ;  uncertainty k = 0.266204
        13        12        19        36     9        0.000000        0.190831         1    ;  uncertainty k = 0.262124
        13        12        19        36     9      180.000000        6.061795         2    ;  uncertainty k = 0.729787
        13        12        19        36     9        0.000000        1.459275         3    ;  uncertainty k = 0.386551
        13        12        19        36     9      180.000000        1.620612         4    ;  uncertainty k = 0.174661
        13        14        16        17     9        0.000000        0.045817         1    ;  uncertainty k = 0.244305
        13        14        16        17     9      180.000000        9.415883         2    ;  uncertainty k = 0.524719
        13        14        16        17     9        0.000000       -0.240358         3    ;  uncertainty k = 0.533532
        13        14        16        17     9      180.000000        1.224827         4    ;  uncertainty k = 0.214440
        13        14        16        35     9        0.000000       -0.008222         1    ;  uncertainty k = 0.228421
        13        14        16        35     9      180.000000        5.765549         2    ;  uncertainty k = 0.685098
        13        14        16        35     9        0.000000        1.338093         3    ;  uncertainty k = 0.335593
        13        14        16        35     9      180.000000        1.518978         4    ;  uncertainty k = 0.146978
        14        13        12        19     9        0.000000       -0.041228         1    ;  uncertainty k = 0.158993
        14        13        12        19     9      180.000000        9.351596         2    ;  uncertainty k = 0.519066
        14        13        12        19     9        0.000000       -0.111171         3    ;  uncertainty k = 0.525918
        14        13        12        19     9      180.000000        1.232226         4    ;  uncertainty k = 0.299988
        14        16        17        18     9        0.000000       -0.120809         1    ;  uncertainty k = 0.217842
        14        16        17        18     9      180.000000        9.585631         2    ;  uncertainty k = 0.591761
        14        16        17        18     9        0.000000        1.435653         3    ;  uncertainty k = 0.460779
        14        16        17        18     9      180.000000        1.610632         4    ;  uncertainty k = 0.199813
        14        16        17        19     9        0.000000       -0.076314         1    ;  uncertainty k = 0.168058
        14        16        17        19     9      180.000000       10.115143         2    ;  uncertainty k = 0.319710
        14        16        17        19     9        0.000000       -0.232271         3    ;  uncertainty k = 0.527716
        14        16        17        19     9      180.000000        1.177687         4    ;  uncertainty k = 0.275963
        15        14        13        34     9        0.000000       -0.301701         1    ;  uncertainty k = 0.225374
        15        14        13        34     9      180.000000        8.726000         2    ;  uncertainty k = 0.331875
        15        14        13        34     9        0.000000        0.822627         3    ;  uncertainty k = 0.276840
        15        14        13        34     9      180.000000        1.029038         4    ;  uncertainty k = 0.189912
        15        14        16        17     9        0.000000       -0.133658         1    ;  uncertainty k = 0.245810
        15        14        16        17     9      180.000000       13.025526         2    ;  uncertainty k = 0.672205
        15        14        16        17     9        0.000000        1.510910         3    ;  uncertainty k = 0.188872
        15        14        16        17     9      180.000000        1.466770         4    ;  uncertainty k = 0.282670
        15        14        16        35     9        0.000000       -0.316624         1    ;  uncertainty k = 0.211117
        15        14        16        35     9      180.000000        8.754319         2    ;  uncertainty k = 0.309942
        15        14        16        35     9        0.000000        0.803769         3    ;  uncertainty k = 0.290384
        15        14        16        35     9      180.000000        0.987725         4    ;  uncertainty k = 0.177351
        16        14        13        34     9        0.000000        0.090000         1    ;  uncertainty k = 0.131277
        16        14        13        34     9      180.000000        5.780535         2    ;  uncertainty k = 0.654872
        16        14        13        34     9        0.000000        1.372714         3    ;  uncertainty k = 0.343727
        16        14        13        34     9      180.000000        1.549728         4    ;  uncertainty k = 0.143500
        16        17        19        36     9        0.000000        0.063701         1    ;  uncertainty k = 0.267319
        16        17        19        36     9      180.000000        6.355583         2    ;  uncertainty k = 0.639492
        16        17        19        36     9        0.000000        1.456946         3    ;  uncertainty k = 0.397153
        16        17        19        36     9      180.000000        1.601159         4    ;  uncertainty k = 0.182657
        18        17        16        35     9        0.000000       -0.190971         1    ;  uncertainty k = 0.157958
        18        17        16        35     9      180.000000        7.171863         2    ;  uncertainty k = 0.264034
        18        17        16        35     9        0.000000        0.606438         3    ;  uncertainty k = 0.410119
        18        17        16        35     9      180.000000        0.951444         4    ;  uncertainty k = 0.198495
        18        17        19        36     9        0.000000       -0.220413         1    ;  uncertainty k = 0.239485
        18        17        19        36     9      180.000000        7.288412         2    ;  uncertainty k = 0.398180
        18        17        19        36     9        0.000000        0.620384         3    ;  uncertainty k = 0.412175
        18        17        19        36     9      180.000000        0.976242         4    ;  uncertainty k = 0.213936
        19        12        13        34     9        0.000000        0.209044         1    ;  uncertainty k = 0.263704
        19        12        13        34     9      180.000000        5.991864         2    ;  uncertainty k = 0.753180
        19        12        13        34     9        0.000000        1.464113         3    ;  uncertainty k = 0.391889
        19        12        13        34     9      180.000000        1.575399         4    ;  uncertainty k = 0.155875
        19        17        16        35     9        0.000000        0.044211         1    ;  uncertainty k = 0.301802
        19        17        16        35     9      180.000000        6.322621         2    ;  uncertainty k = 0.662547
        19        17        16        35     9        0.000000        1.425423         3    ;  uncertainty k = 0.417533
        19        17        16        35     9      180.000000        1.508326         4    ;  uncertainty k = 0.201307
        20         7         8        32     9        0.000000       -0.335448         1    ;  uncertainty k = 0.366430
        20         7         8        32     9      180.000000        6.620995         2    ;  uncertainty k = 0.432136
        20         7         8        32     9        0.000000        0.803447         3    ;  uncertainty k = 0.197782
        20         7         8        32     9      180.000000        1.182948         4    ;  uncertainty k = 0.189543
        21        20        23        24     9        0.000000        0.866315         1    ;  uncertainty k = 0.447985
        21        20        23        24     9      180.000000        0.207300         2    ;  uncertainty k = 0.372008
        21        20        23        24     9        0.000000        0.562711         3    ;  uncertainty k = 0.310237
        21        20        23        24     9      180.000000       -0.021132         4    ;  uncertainty k = 0.176620
        21        20        23        25     9        0.000000        0.866315         1    ;  uncertainty k = 0.447985
        21        20        23        25     9      180.000000        0.207300         2    ;  uncertainty k = 0.372008
        21        20        23        25     9        0.000000        0.562711         3    ;  uncertainty k = 0.310237
        21        20        23        25     9      180.000000       -0.021132         4    ;  uncertainty k = 0.176620
        21        20        23        37     9        0.000000        0.040594         1    ;  uncertainty k = 0.552981
        21        20        23        37     9      180.000000       -0.240105         2    ;  uncertainty k = 0.195525
        21        20        23        37     9        0.000000        0.226848         3    ;  uncertainty k = 0.136800
        21        20        23        37     9      180.000000       -0.103279         4    ;  uncertainty k = 0.122284
        22        20        23        24     9        0.000000        0.866315         1    ;  uncertainty k = 0.447985
        22        20        23        24     9      180.000000        0.207300         2    ;  uncertainty k = 0.372008
        22        20        23        24     9        0.000000        0.562711         3    ;  uncertainty k = 0.310237
        22        20        23        24     9      180.000000       -0.021132         4    ;  uncertainty k = 0.176620
        22        20        23        25     9        0.000000        0.866315         1    ;  uncertainty k = 0.447985
        22        20        23        25     9      180.000000        0.207300         2    ;  uncertainty k = 0.372008
        22        20        23        25     9        0.000000        0.562711         3    ;  uncertainty k = 0.310237
        22        20        23        25     9      180.000000       -0.021132         4    ;  uncertainty k = 0.176620
        22        20        23        37     9        0.000000        0.040594         1    ;  uncertainty k = 0.552981
        22        20        23        37     9      180.000000       -0.240105         2    ;  uncertainty k = 0.195525
        22        20        23        37     9        0.000000        0.226848         3    ;  uncertainty k = 0.136800
        22        20        23        37     9      180.000000       -0.103279         4    ;  uncertainty k = 0.122284
        26         1         2        27     9        0.000000       10.854878         1    ;  uncertainty k = 0.649091
        26         1         2        27     9      180.000000       -1.586978         2    ;  uncertainty k = 0.391083
        26         1         2        27     9        0.000000        0.917564         3    ;  uncertainty k = 0.113424
        26         1         2        27     9      180.000000        0.158654         4    ;  uncertainty k = 0.107591
        27         2         3        28     9        0.000000        0.725597         1    ;  uncertainty k = 0.153290
        27         2         3        28     9      180.000000       -0.598048         2    ;  uncertainty k = 0.185185
        27         2         3        28     9        0.000000        0.658388         3    ;  uncertainty k = 0.022633
        27         2         3        28     9      180.000000        0.092971         4    ;  uncertainty k = 0.057888
        27         2         3        29     9        0.000000        0.725597         1    ;  uncertainty k = 0.153292
        27         2         3        29     9      180.000000       -0.598048         2    ;  uncertainty k = 0.185183
        27         2         3        29     9        0.000000        0.658388         3    ;  uncertainty k = 0.022633
        27         2         3        29     9      180.000000        0.092971         4    ;  uncertainty k = 0.057888
        28         3         4        30     9        0.000000        1.132922         1    ;  uncertainty k = 0.276103
        28         3         4        30     9      180.000000       -0.153616         2    ;  uncertainty k = 0.086337
        28         3         4        30     9        0.000000        0.760977         3    ;  uncertainty k = 0.007635
        28         3         4        30     9      180.000000        0.101358         4    ;  uncertainty k = 0.038766
        28         3         4        31     9        0.000000        1.132922         1    ;  uncertainty k = 0.276103
        28         3         4        31     9      180.000000       -0.153616         2    ;  uncertainty k = 0.086337
        28         3         4        31     9        0.000000        0.760977         3    ;  uncertainty k = 0.007635
        28         3         4        31     9      180.000000        0.101358         4    ;  uncertainty k = 0.038766
        29         3         4        30     9        0.000000        1.132922         1    ;  uncertainty k = 0.276104
        29         3         4        30     9      180.000000       -0.153614         2    ;  uncertainty k = 0.086338
        29         3         4        30     9        0.000000        0.760977         3    ;  uncertainty k = 0.007636
        29         3         4        30     9      180.000000        0.101358         4    ;  uncertainty k = 0.038765
        29         3         4        31     9        0.000000        1.132922         1    ;  uncertainty k = 0.276104
        29         3         4        31     9      180.000000       -0.153614         2    ;  uncertainty k = 0.086338
        29         3         4        31     9        0.000000        0.760977         3    ;  uncertainty k = 0.007636
        29         3         4        31     9      180.000000        0.101358         4    ;  uncertainty k = 0.038765
        32         8         9        33     9        0.000000       -0.148180         1    ;  uncertainty k = 0.424417
        32         8         9        33     9      180.000000        7.608203         2    ;  uncertainty k = 0.385312
        32         8         9        33     9        0.000000       -0.327533         3    ;  uncertainty k = 0.307859
        32         8         9        33     9      180.000000        0.270460         4    ;  uncertainty k = 0.108533

[ dihedrals ] ; impropers
;       ai        aj        ak        al funct           phase               k        pn
         5         4         6        10     4      180.000000        5.153940         2    ;  uncertainty k = 0.410005
         5         6        10         4     4      180.000000        5.153940         2    ;  uncertainty k = 0.410005
         5        10         4         6     4      180.000000        5.153940         2    ;  uncertainty k = 0.410005
         6         2         5         7     4      180.000000        6.866542         2    ;  uncertainty k = 0.222673
         6         5         7         2     4      180.000000        6.866542         2    ;  uncertainty k = 0.222673
         6         7         2         5     4      180.000000        6.866542         2    ;  uncertainty k = 0.222673
         7         6         8        20     4      180.000000        4.672410         2    ;  uncertainty k = 0.346802
         7         8        20         6     4      180.000000        4.672410         2    ;  uncertainty k = 0.346802
         7        20         6         8     4      180.000000        4.672410         2    ;  uncertainty k = 0.346802
         8         7         9        32     4      180.000000        5.245782         2    ;  uncertainty k = 0.201089
         8         9        32         7     4      180.000000        5.245782         2    ;  uncertainty k = 0.201089
         8        32         7         9     4      180.000000        5.245782         2    ;  uncertainty k = 0.201089
         9         8        10        33     4      180.000000        1.990856         2    ;  uncertainty k = 0.074670
         9        10        33         8     4      180.000000        1.990856         2    ;  uncertainty k = 0.074670
         9        33         8        10     4      180.000000        1.990856         2    ;  uncertainty k = 0.074670
        10         5         9        11     4      180.000000       17.380591         2    ;  uncertainty k = 0.096713
        10         9        11         5     4      180.000000       17.380591         2    ;  uncertainty k = 0.096713
        10        11         5         9     4      180.000000       17.380591         2    ;  uncertainty k = 0.096713
        12        11        13        19     4      180.000000       18.924772         2    ;  uncertainty k = 0.024015
        12        13        19        11     4      180.000000       18.924772         2    ;  uncertainty k = 0.024015
        12        19        11        13     4      180.000000       18.924772         2    ;  uncertainty k = 0.024015
        13        12        14        34     4      180.000000        1.273336         2    ;  uncertainty k = 0.292910
        13        14        34        12     4      180.000000        1.273336         2    ;  uncertainty k = 0.292910
        13        34        12        14     4      180.000000        1.273336         2    ;  uncertainty k = 0.292910
        14        13        15        16     4      180.000000       18.097613         2    ;  uncertainty k = 0.045917
        14        15        16        13     4      180.000000       18.097613         2    ;  uncertainty k = 0.045917
        14        16        13        15     4      180.000000       18.097613         2    ;  uncertainty k = 0.045917
        16        14        17        35     4      180.000000        1.443262         2    ;  uncertainty k = 0.472593
        16        17        35        14     4      180.000000        1.443262         2    ;  uncertainty k = 0.472593
        16        35        14        17     4      180.000000        1.443262         2    ;  uncertainty k = 0.472593
        17        16        18        19     4      180.000000       14.428297         2    ;  uncertainty k = 0.105508
        17        18        19        16     4      180.000000       14.428297         2    ;  uncertainty k = 0.105508
        17        19        16        18     4      180.000000       14.428297         2    ;  uncertainty k = 0.105508
        19        12        17        36     4      180.000000        1.763880         2    ;  uncertainty k = 0.435022
        19        17        36        12     4      180.000000        1.763880         2    ;  uncertainty k = 0.435022
        19        36        12        17     4      180.000000        1.763880         2    ;  uncertainty k = 0.435022

[ pairs ]
;       ai        aj funct
         1         4     1
         1         5     1
         1         7     1
         1        28     1
         1        29     1
         2         8     1
         2        10     1
         2        20     1
         2        30     1
         2        31     1
         3         7     1
         3        10     1
         3        26     1
         4         7     1
         4         9     1
         4        11     1
         4        27     1
         5         8     1
         5        12     1
         5        20     1
         5        27     1
         5        28     1
         5        29     1
         5        33     1
         6         9     1
         6        11     1
         6        21     1
         6        22     1
         6        23     1
         6        26     1
         6        28     1
         6        29     1
         6        30     1
         6        31     1
         6        32     1
         7        10     1
         7        24     1
         7        25     1
         7        27     1
         7        33     1
         7        37     1
         8        11     1
         8        21     1
         8        22     1
         8        23     1
         9        12     1
         9        20     1
        10        13     1
        10        19     1
        10        30     1
        10        31     1
        10        32     1
        11        14     1
        11        17     1
        11        33     1
        11        34     1
        11        36     1
        12        15     1
        12        16     1
        12        18     1
        13        17     1
        13        35     1
        13        36     1
        14        18     1
        14        19     1
        15        17     1
        15        34     1
        15        35     1
        16        34     1
        16        36     1
        18        35     1
        18        36     1
        19        34     1
        19        35     1
        20        32     1
        21        24     1
        21        25     1
        21        37     1
        22        24     1
        22        25     1
        22        37     1
        26        27     1
        27        28     1
        27        29     1
        28        30     1
        28        31     1
        29        30     1
        29        31     1
        32        33     1
