; ITP file created by ByteFF-joint-25, 2026-02-17 09:19:21.550570

[ atomtypes ]
;name           bonded.type        at.num        mass        charge   ptype           sigma         epsilon
 c0bf                                   6      0.0000       0.00000       A     3.31498e-01     4.13948e-01    ;  uncertainty sigma = 0.000013, epsilon = 0.001085
 c1bf                                   6      0.0000       0.00000       A     3.31520e-01     4.13217e-01    ;  uncertainty sigma = 0.000015, epsilon = 0.000429
 c2bf                                   6      0.0000       0.00000       A     3.31561e-01     4.13399e-01    ;  uncertainty sigma = 0.000023, epsilon = 0.001095
 c3bf                                   6      0.0000       0.00000       A     3.31483e-01     4.13348e-01    ;  uncertainty sigma = 0.000014, epsilon = 0.000564
 c4bf                                   6      0.0000       0.00000       A     3.31516e-01     4.13560e-01    ;  uncertainty sigma = 0.000008, epsilon = 0.000547
 c5bf                                   6      0.0000       0.00000       A     3.31536e-01     4.13002e-01    ;  uncertainty sigma = 0.000011, epsilon = 0.001100
 o6bf                                   8      0.0000       0.00000       A     3.15588e-01     3.03723e-01    ;  uncertainty sigma = 0.000014, epsilon = 0.002217
 c7bf                                   6      0.0000       0.00000       A     3.31515e-01     4.13655e-01    ;  uncertainty sigma = 0.000010, epsilon = 0.000761
 c8bf                                   6      0.0000       0.00000       A     3.31516e-01     4.13683e-01    ;  uncertainty sigma = 0.000004, epsilon = 0.000819
 c9bf                                   6      0.0000       0.00000       A     3.31508e-01     4.13333e-01    ;  uncertainty sigma = 0.000007, epsilon = 0.000485
 c10bf                                  6      0.0000       0.00000       A     3.31534e-01     4.13575e-01    ;  uncertainty sigma = 0.000007, epsilon = 0.000519
 c11bf                                  6      0.0000       0.00000       A     3.31517e-01     4.13124e-01    ;  uncertainty sigma = 0.000007, epsilon = 0.000564
 cl12bf                                17      0.0000       0.00000       A     3.46589e-01     1.10398e+00    ;  uncertainty sigma = 0.000015, epsilon = 0.001735
 c13bf                                  6      0.0000       0.00000       A     3.31523e-01     4.13449e-01    ;  uncertainty sigma = 0.000004, epsilon = 0.000663
 s14bf                                 16      0.0000       0.00000       A     4.05887e-01     2.61278e-01    ;  uncertainty sigma = 0.000067, epsilon = 0.003045
 o15bf                                  8      0.0000       0.00000       A     3.04759e-01     6.10451e-01    ;  uncertainty sigma = 0.000049, epsilon = 0.000882
 o16bf                                  8      0.0000       0.00000       A     3.04759e-01     6.10451e-01    ;  uncertainty sigma = 0.000049, epsilon = 0.000882
 c17bf                                  6      0.0000       0.00000       A     3.39831e-01     4.48562e-01    ;  uncertainty sigma = 0.000060, epsilon = 0.002485
 f18bf                                  9      0.0000       0.00000       A     3.03433e-01     3.48313e-01    ;  uncertainty sigma = 0.000031, epsilon = 0.002377
 f19bf                                  9      0.0000       0.00000       A     3.03433e-01     3.48313e-01    ;  uncertainty sigma = 0.000031, epsilon = 0.002377
 c20bf                                  6      0.0000       0.00000       A     3.39742e-01     4.50274e-01    ;  uncertainty sigma = 0.000019, epsilon = 0.001033
 f21bf                                  9      0.0000       0.00000       A     3.03419e-01     3.47947e-01    ;  uncertainty sigma = 0.000007, epsilon = 0.000666
 f22bf                                  9      0.0000       0.00000       A     3.03433e-01     3.48313e-01    ;  uncertainty sigma = 0.000031, epsilon = 0.002377
 f23bf                                  9      0.0000       0.00000       A     3.03458e-01     3.48218e-01    ;  uncertainty sigma = 0.000015, epsilon = 0.000526
 f24bf                                  9      0.0000       0.00000       A     3.03458e-01     3.48219e-01    ;  uncertainty sigma = 0.000015, epsilon = 0.000526
 h25bf                                  1      0.0000       0.00000       A     2.62564e-01     6.72894e-02    ;  uncertainty sigma = 0.000023, epsilon = 0.000681
 h26bf                                  1      0.0000       0.00000       A     2.62558e-01     6.71768e-02    ;  uncertainty sigma = 0.000018, epsilon = 0.000655
 h27bf                                  1      0.0000       0.00000       A     2.62556e-01     6.70922e-02    ;  uncertainty sigma = 0.000006, epsilon = 0.000392
 h28bf                                  1      0.0000       0.00000       A     2.62552e-01     6.72490e-02    ;  uncertainty sigma = 0.000007, epsilon = 0.000350
 h29bf                                  1      0.0000       0.00000       A     2.62576e-01     6.72706e-02    ;  uncertainty sigma = 0.000009, epsilon = 0.000517
 h30bf                                  1      0.0000       0.00000       A     2.62563e-01     6.72159e-02    ;  uncertainty sigma = 0.000003, epsilon = 0.000466
 h31bf                                  1      0.0000       0.00000       A     2.24460e-01     8.73566e-02    ;  uncertainty sigma = 0.000159, epsilon = 0.000866

[ moleculetype ]
;name             nrexcl
 MOL                   3

[ atoms ]
;       nr            type      resi   res      atom      cgnr      charge          mass ; qtot
         1            c0bf         1   UNL        c0         1    -0.19271       12.0110 ; qtot   -0.193
         2            c1bf         1   UNL        c1         2     0.04933       12.0110 ; qtot   -0.143
         3            c2bf         1   UNL        c2         3    -0.27700       12.0110 ; qtot   -0.420
         4            c3bf         1   UNL        c3         4     0.01652       12.0110 ; qtot   -0.404
         5            c4bf         1   UNL        c4         5    -0.17759       12.0110 ; qtot   -0.581
         6            c5bf         1   UNL        c5         6     0.18847       12.0110 ; qtot   -0.393
         7            o6bf         1   UNL        o6         7    -0.24776       15.9990 ; qtot   -0.641
         8            c7bf         1   UNL        c7         8     0.16173       12.0110 ; qtot   -0.479
         9            c8bf         1   UNL        c8         9    -0.20553       12.0110 ; qtot   -0.685
        10            c9bf         1   UNL        c9        10     0.16392       12.0110 ; qtot   -0.521
        11           c10bf         1   UNL       c10        11    -0.17850       12.0110 ; qtot   -0.699
        12           c11bf         1   UNL       c11        12     0.07882       12.0110 ; qtot   -0.620
        13          cl12bf         1   UNL      cl12        13    -0.09983       35.4530 ; qtot   -0.720
        14           c13bf         1   UNL       c13        14    -0.17204       12.0110 ; qtot   -0.892
        15           s14bf         1   UNL       s14        15     0.98703       32.0670 ; qtot    0.095
        16           o15bf         1   UNL       o15        16    -0.52437       15.9990 ; qtot   -0.430
        17           o16bf         1   UNL       o16        17    -0.52437       15.9990 ; qtot   -0.954
        18           c17bf         1   UNL       c17        18     0.63852       12.0110 ; qtot   -0.315
        19           f18bf         1   UNL       f18        19    -0.21202       18.9980 ; qtot   -0.527
        20           f19bf         1   UNL       f19        20    -0.21202       18.9980 ; qtot   -0.739
        21           c20bf         1   UNL       c20        21     0.47213       12.0110 ; qtot   -0.267
        22           f21bf         1   UNL       f21        22    -0.13588       18.9980 ; qtot   -0.403
        23           f22bf         1   UNL       f22        23    -0.21202       18.9980 ; qtot   -0.615
        24           f23bf         1   UNL       f23        24    -0.24035       18.9980 ; qtot   -0.856
        25           f24bf         1   UNL       f24        25    -0.24035       18.9980 ; qtot   -1.096
        26           h25bf         1   UNL       h25        26     0.17705        1.0080 ; qtot   -0.919
        27           h26bf         1   UNL       h26        27     0.16569        1.0080 ; qtot   -0.753
        28           h27bf         1   UNL       h27        28     0.15913        1.0080 ; qtot   -0.594
        29           h28bf         1   UNL       h28        29     0.17158        1.0080 ; qtot   -0.422
        30           h29bf         1   UNL       h29        30     0.17092        1.0080 ; qtot   -0.251
        31           h30bf         1   UNL       h30        31     0.16950        1.0080 ; qtot   -0.082
        32           h31bf         1   UNL       h31        32     0.08200        1.0080 ; qtot    0.000

[ bonds ]
;       ai        aj funct               r               k
         1         2     1        0.138467   345317.210889    ;  uncertainty r = 0.000063, k = 9.177364
         1         6     1        0.139836   344560.827246    ;  uncertainty r = 0.000061, k = 6.221062
         1        21     1        0.150651   214976.136621    ;  uncertainty r = 0.000161, k = 12.260113
         2         3     1        0.138961   344169.215674    ;  uncertainty r = 0.000064, k = 6.622605
         2        26     1        0.108455   328314.680078    ;  uncertainty r = 0.000009, k = 2.020132
         3         4     1        0.139118   347566.596094    ;  uncertainty r = 0.000067, k = 7.816955
         3        15     1        0.176876   131513.623413    ;  uncertainty r = 0.000191, k = 16.331365
         4         5     1        0.138710   365991.058691    ;  uncertainty r = 0.000053, k = 3.062052
         4        27     1        0.108483   329287.924854    ;  uncertainty r = 0.000021, k = 1.295527
         5         6     1        0.139529   350984.738184    ;  uncertainty r = 0.000063, k = 4.572001
         5        28     1        0.108765   335796.925439    ;  uncertainty r = 0.000042, k = 1.116699
         6         7     1        0.138176   317378.489600    ;  uncertainty r = 0.000091, k = 4.533635
         7         8     1        0.137842   318274.024951    ;  uncertainty r = 0.000067, k = 4.670972
         8         9     1        0.139528   361261.279590    ;  uncertainty r = 0.000034, k = 2.901399
         8        14     1        0.139500   357193.626660    ;  uncertainty r = 0.000019, k = 1.937531
         9        10     1        0.138903   362933.270752    ;  uncertainty r = 0.000022, k = 2.327819
         9        29     1        0.108796   339585.253467    ;  uncertainty r = 0.000020, k = 1.174444
        10        11     1        0.139015   361949.300391    ;  uncertainty r = 0.000049, k = 3.307020
        10        22     1        0.135256   340052.735791    ;  uncertainty r = 0.000049, k = 2.087966
        11        12     1        0.139473   365943.585205    ;  uncertainty r = 0.000030, k = 2.878139
        11        30     1        0.108675   338128.974268    ;  uncertainty r = 0.000014, k = 0.350222
        12        13     1        0.175206   198763.315381    ;  uncertainty r = 0.000067, k = 1.577622
        12        14     1        0.139323   360643.153857    ;  uncertainty r = 0.000043, k = 3.846580
        14        31     1        0.108726   338068.706689    ;  uncertainty r = 0.000011, k = 1.356593
        15        16     1        0.146578   483894.871191    ;  uncertainty r = 0.000066, k = 8.014200
        15        17     1        0.146578   483895.024414    ;  uncertainty r = 0.000066, k = 8.014185
        15        18     1        0.186405   147887.136914    ;  uncertainty r = 0.000148, k = 25.020206
        18        19     1        0.133071   300884.274951    ;  uncertainty r = 0.000092, k = 5.648088
        18        20     1        0.133071   300884.274951    ;  uncertainty r = 0.000092, k = 5.648088
        18        23     1        0.133071   300884.274951    ;  uncertainty r = 0.000092, k = 5.648088
        21        24     1        0.137920   312071.801660    ;  uncertainty r = 0.000084, k = 8.175363
        21        25     1        0.137920   312071.801660    ;  uncertainty r = 0.000084, k = 8.175337
        21        32     1        0.109335   317499.969629    ;  uncertainty r = 0.000059, k = 3.526039

[ angles ]
;       ai        aj        ak funct           theta             cth
         1         2         3     1      121.230240      490.895576    ;  uncertainty theta = 0.001930, k = 0.117770
         1         2        26     1      117.436378      265.802492    ;  uncertainty theta = 0.002314, k = 0.077494
         1         6         5     1      123.454346      378.430529    ;  uncertainty theta = 0.006304, k = 0.175241
         1         6         7     1      115.636734      443.621375    ;  uncertainty theta = 0.003864, k = 0.134808
         1        21        24     1      110.750046      693.253929    ;  uncertainty theta = 0.003217, k = 0.121500
         1        21        25     1      110.750046      693.253929    ;  uncertainty theta = 0.003217, k = 0.121500
         1        21        32     1      112.801620      385.497573    ;  uncertainty theta = 0.001673, k = 0.069529
         2         1         6     1      121.902977      454.644053    ;  uncertainty theta = 0.003948, k = 0.079836
         2         1        21     1      117.868591      389.973941    ;  uncertainty theta = 0.004405, k = 0.155994
         2         3         4     1      123.696915      444.011263    ;  uncertainty theta = 0.008562, k = 0.079432
         2         3        15     1      116.132034      330.851639    ;  uncertainty theta = 0.006464, k = 0.226475
         3         2        26     1      119.298584      264.932347    ;  uncertainty theta = 0.003320, k = 0.068885
         3         4         5     1      119.244118      491.974551    ;  uncertainty theta = 0.003255, k = 0.082676
         3         4        27     1      119.354004      265.334493    ;  uncertainty theta = 0.003230, k = 0.093600
         3        15        16     1      115.494606      669.044302    ;  uncertainty theta = 0.008179, k = 0.124307
         3        15        17     1      115.494606      669.044302    ;  uncertainty theta = 0.008179, k = 0.124307
         3        15        18     1      101.705284      504.145505    ;  uncertainty theta = 0.008270, k = 0.383128
         4         3        15     1      116.643936      330.294291    ;  uncertainty theta = 0.005575, k = 0.151381
         4         5         6     1      119.938133      510.369920    ;  uncertainty theta = 0.001790, k = 0.028994
         4         5        28     1      120.377747      277.042427    ;  uncertainty theta = 0.001804, k = 0.077668
         5         4        27     1      120.503845      280.284332    ;  uncertainty theta = 0.002332, k = 0.078794
         5         6         7     1      119.873085      432.551740    ;  uncertainty theta = 0.004151, k = 0.113871
         6         1        21     1      118.290222      378.249152    ;  uncertainty theta = 0.004022, k = 0.193061
         6         5        28     1      119.634911      276.282252    ;  uncertainty theta = 0.001680, k = 0.061438
         6         7         8     1      112.867004      460.875874    ;  uncertainty theta = 0.002596, k = 0.116167
         7         8         9     1      118.835129      415.341005    ;  uncertainty theta = 0.004278, k = 0.042154
         7         8        14     1      118.868324      411.679974    ;  uncertainty theta = 0.003697, k = 0.032435
         8         9        10     1      116.721596      503.906861    ;  uncertainty theta = 0.002689, k = 0.149363
         8         9        29     1      121.896423      272.907363    ;  uncertainty theta = 0.002525, k = 0.084252
         8        14        12     1      117.207092      514.355178    ;  uncertainty theta = 0.000927, k = 0.103129
         8        14        31     1      121.266037      274.917772    ;  uncertainty theta = 0.002120, k = 0.067648
         9         8        14     1      122.516479      385.043428    ;  uncertainty theta = 0.004279, k = 0.155803
         9        10        11     1      123.806297      364.500419    ;  uncertainty theta = 0.004306, k = 0.146256
         9        10        22     1      118.451439      494.877003    ;  uncertainty theta = 0.001652, k = 0.037194
        10         9        29     1      121.721214      284.045756    ;  uncertainty theta = 0.002101, k = 0.037191
        10        11        12     1      115.803238      478.705054    ;  uncertainty theta = 0.001376, k = 0.113134
        10        11        30     1      121.638588      280.640095    ;  uncertainty theta = 0.002111, k = 0.042509
        11        10        22     1      118.552078      502.703680    ;  uncertainty theta = 0.002488, k = 0.039641
        11        12        13     1      120.101097      446.309443    ;  uncertainty theta = 0.001191, k = 0.064103
        11        12        14     1      122.655418      367.353457    ;  uncertainty theta = 0.001241, k = 0.091485
        12        11        30     1      122.502640      281.974441    ;  uncertainty theta = 0.001614, k = 0.034256
        12        14        31     1      121.894081      287.924141    ;  uncertainty theta = 0.001267, k = 0.028231
        13        12        14     1      120.061806      441.218429    ;  uncertainty theta = 0.001566, k = 0.104726
        15        18        19     1      108.206985      431.433534    ;  uncertainty theta = 0.004192, k = 0.145677
        15        18        20     1      108.206985      431.433534    ;  uncertainty theta = 0.004192, k = 0.145677
        15        18        23     1      108.206985      431.433534    ;  uncertainty theta = 0.004192, k = 0.145677
        16        15        17     1      125.800621      844.598586    ;  uncertainty theta = 0.003071, k = 0.118798
        16        15        18     1      104.512840      474.013376    ;  uncertainty theta = 0.010678, k = 0.164637
        17        15        18     1      104.512840      474.013504    ;  uncertainty theta = 0.010678, k = 0.164636
        19        18        20     1      110.860825      787.490396    ;  uncertainty theta = 0.002292, k = 0.075721
        19        18        23     1      110.860825      787.490396    ;  uncertainty theta = 0.002292, k = 0.075721
        20        18        23     1      110.860825      787.490396    ;  uncertainty theta = 0.002292, k = 0.075721
        24        21        25     1      107.954933      837.189569    ;  uncertainty theta = 0.001695, k = 0.039479
        24        21        32     1      108.844078      505.984560    ;  uncertainty theta = 0.002695, k = 0.102332
        25        21        32     1      108.844078      505.984560    ;  uncertainty theta = 0.002695, k = 0.102332

[ dihedrals ] ; propers for gromacs 4.5 or higher, use funct 9
;       ai        aj        ak        al funct           phase               k        pn
         1         2         3         4     9        0.000000       -0.089318         1    ;  uncertainty k = 0.168814
         1         2         3         4     9      180.000000        9.820948         2    ;  uncertainty k = 0.620150
         1         2         3         4     9        0.000000       -0.428886         3    ;  uncertainty k = 0.333784
         1         2         3         4     9      180.000000        1.015749         4    ;  uncertainty k = 0.282169
         1         2         3        15     9        0.000000        0.353587         1    ;  uncertainty k = 0.483726
         1         2         3        15     9      180.000000        9.051978         2    ;  uncertainty k = 0.877367
         1         2         3        15     9        0.000000        1.408436         3    ;  uncertainty k = 0.287653
         1         2         3        15     9      180.000000        1.693800         4    ;  uncertainty k = 0.236745
         1         6         5         4     9        0.000000        0.276864         1    ;  uncertainty k = 0.286503
         1         6         5         4     9      180.000000        7.693939         2    ;  uncertainty k = 0.587996
         1         6         5         4     9        0.000000        0.428410         3    ;  uncertainty k = 0.356552
         1         6         5         4     9      180.000000        1.360688         4    ;  uncertainty k = 0.288965
         1         6         5        28     9        0.000000        0.210489         1    ;  uncertainty k = 0.336994
         1         6         5        28     9      180.000000        6.114942         2    ;  uncertainty k = 0.632628
         1         6         5        28     9        0.000000        1.352247         3    ;  uncertainty k = 0.456711
         1         6         5        28     9      180.000000        1.568122         4    ;  uncertainty k = 0.125372
         1         6         7         8     9        0.000000        3.094130         1    ;  uncertainty k = 0.311458
         1         6         7         8     9      180.000000        6.460757         2    ;  uncertainty k = 0.483753
         1         6         7         8     9        0.000000        0.241566         3    ;  uncertainty k = 0.316483
         1         6         7         8     9      180.000000        0.143274         4    ;  uncertainty k = 0.108961
         2         1         6         5     9        0.000000       -0.038874         1    ;  uncertainty k = 0.258951
         2         1         6         5     9      180.000000        6.617700         2    ;  uncertainty k = 0.740081
         2         1         6         5     9        0.000000        0.407113         3    ;  uncertainty k = 0.356818
         2         1         6         5     9      180.000000        1.249651         4    ;  uncertainty k = 0.300223
         2         1         6         7     9        0.000000        0.393739         1    ;  uncertainty k = 0.404567
         2         1         6         7     9      180.000000        9.319395         2    ;  uncertainty k = 0.388234
         2         1         6         7     9        0.000000        1.390983         3    ;  uncertainty k = 0.261946
         2         1         6         7     9      180.000000        1.674906         4    ;  uncertainty k = 0.110056
         2         1        21        24     9        0.000000        0.845563         1    ;  uncertainty k = 0.657045
         2         1        21        24     9      180.000000        2.496455         2    ;  uncertainty k = 0.352648
         2         1        21        24     9        0.000000        0.117735         3    ;  uncertainty k = 0.185512
         2         1        21        24     9      180.000000        0.192757         4    ;  uncertainty k = 0.063956
         2         1        21        25     9        0.000000        0.845562         1    ;  uncertainty k = 0.657044
         2         1        21        25     9      180.000000        2.496454         2    ;  uncertainty k = 0.352648
         2         1        21        25     9        0.000000        0.117735         3    ;  uncertainty k = 0.185512
         2         1        21        25     9      180.000000        0.192757         4    ;  uncertainty k = 0.063956
         2         1        21        32     9        0.000000       -1.161884         1    ;  uncertainty k = 0.672489
         2         1        21        32     9      180.000000        2.003727         2    ;  uncertainty k = 0.255904
         2         1        21        32     9        0.000000        0.204177         3    ;  uncertainty k = 0.227669
         2         1        21        32     9      180.000000       -0.049784         4    ;  uncertainty k = 0.096876
         2         3         4         5     9        0.000000       -0.116357         1    ;  uncertainty k = 0.270874
         2         3         4         5     9      180.000000       10.908236         2    ;  uncertainty k = 0.669714
         2         3         4         5     9        0.000000       -0.794577         3    ;  uncertainty k = 0.352558
         2         3         4         5     9      180.000000        0.866908         4    ;  uncertainty k = 0.412186
         2         3         4        27     9        0.000000        0.176308         1    ;  uncertainty k = 0.235064
         2         3         4        27     9      180.000000        6.747432         2    ;  uncertainty k = 0.474910
         2         3         4        27     9        0.000000        1.219257         3    ;  uncertainty k = 0.307916
         2         3         4        27     9      180.000000        1.456764         4    ;  uncertainty k = 0.194102
         2         3        15        16     9        0.000000       -1.102938         1    ;  uncertainty k = 1.178743
         2         3        15        16     9      180.000000        1.581552         2    ;  uncertainty k = 0.463378
         2         3        15        16     9        0.000000        0.423295         3    ;  uncertainty k = 0.217327
         2         3        15        16     9      180.000000        0.036727         4    ;  uncertainty k = 0.106520
         2         3        15        17     9        0.000000       -1.102940         1    ;  uncertainty k = 1.178743
         2         3        15        17     9      180.000000        1.581553         2    ;  uncertainty k = 0.463377
         2         3        15        17     9        0.000000        0.423295         3    ;  uncertainty k = 0.217327
         2         3        15        17     9      180.000000        0.036727         4    ;  uncertainty k = 0.106520
         2         3        15        18     9        0.000000        3.166238         1    ;  uncertainty k = 0.754876
         2         3        15        18     9      180.000000       -0.654397         2    ;  uncertainty k = 0.686906
         2         3        15        18     9        0.000000       -0.010920         3    ;  uncertainty k = 0.593870
         2         3        15        18     9      180.000000        0.162623         4    ;  uncertainty k = 0.145221
         3         2         1         6     9        0.000000       -0.017722         1    ;  uncertainty k = 0.323633
         3         2         1         6     9      180.000000       10.446322         2    ;  uncertainty k = 0.529241
         3         2         1         6     9        0.000000        0.197957         3    ;  uncertainty k = 0.318404
         3         2         1         6     9      180.000000        1.138496         4    ;  uncertainty k = 0.417007
         3         2         1        21     9        0.000000        0.146954         1    ;  uncertainty k = 0.516735
         3         2         1        21     9      180.000000       10.910296         2    ;  uncertainty k = 0.792666
         3         2         1        21     9        0.000000        1.377864         3    ;  uncertainty k = 0.245780
         3         2         1        21     9      180.000000        1.701296         4    ;  uncertainty k = 0.458270
         3         4         5         6     9        0.000000       -0.070923         1    ;  uncertainty k = 0.344322
         3         4         5         6     9      180.000000       12.989551         2    ;  uncertainty k = 0.481577
         3         4         5         6     9        0.000000       -0.764034         3    ;  uncertainty k = 0.584048
         3         4         5         6     9      180.000000        0.814438         4    ;  uncertainty k = 0.446691
         3         4         5        28     9        0.000000       -0.085567         1    ;  uncertainty k = 0.376914
         3         4         5        28     9      180.000000        8.471731         2    ;  uncertainty k = 0.250007
         3         4         5        28     9        0.000000        1.187294         3    ;  uncertainty k = 0.246215
         3         4         5        28     9      180.000000        1.706420         4    ;  uncertainty k = 0.234759
         3        15        18        19     9        0.000000        0.464918         1    ;  uncertainty k = 1.261242
         3        15        18        19     9      180.000000       -0.251253         2    ;  uncertainty k = 0.905617
         3        15        18        19     9        0.000000        0.263071         3    ;  uncertainty k = 0.249161
         3        15        18        19     9      180.000000       -0.226088         4    ;  uncertainty k = 0.108011
         3        15        18        20     9        0.000000        0.464918         1    ;  uncertainty k = 1.261242
         3        15        18        20     9      180.000000       -0.251253         2    ;  uncertainty k = 0.905617
         3        15        18        20     9        0.000000        0.263071         3    ;  uncertainty k = 0.249161
         3        15        18        20     9      180.000000       -0.226088         4    ;  uncertainty k = 0.108011
         3        15        18        23     9        0.000000        0.464918         1    ;  uncertainty k = 1.261242
         3        15        18        23     9      180.000000       -0.251253         2    ;  uncertainty k = 0.905617
         3        15        18        23     9        0.000000        0.263071         3    ;  uncertainty k = 0.249161
         3        15        18        23     9      180.000000       -0.226088         4    ;  uncertainty k = 0.108011
         4         3         2        26     9        0.000000        0.142159         1    ;  uncertainty k = 0.220244
         4         3         2        26     9      180.000000        6.672552         2    ;  uncertainty k = 0.490923
         4         3         2        26     9        0.000000        1.255189         3    ;  uncertainty k = 0.216615
         4         3         2        26     9      180.000000        1.482916         4    ;  uncertainty k = 0.244881
         4         3        15        16     9        0.000000       -1.509172         1    ;  uncertainty k = 1.123640
         4         3        15        16     9      180.000000        1.573633         2    ;  uncertainty k = 0.446841
         4         3        15        16     9        0.000000        0.447297         3    ;  uncertainty k = 0.256385
         4         3        15        16     9      180.000000       -0.013609         4    ;  uncertainty k = 0.145311
         4         3        15        17     9        0.000000       -1.509172         1    ;  uncertainty k = 1.123637
         4         3        15        17     9      180.000000        1.573633         2    ;  uncertainty k = 0.446841
         4         3        15        17     9        0.000000        0.447296         3    ;  uncertainty k = 0.256385
         4         3        15        17     9      180.000000       -0.013609         4    ;  uncertainty k = 0.145312
         4         3        15        18     9        0.000000        3.128579         1    ;  uncertainty k = 0.711266
         4         3        15        18     9      180.000000       -0.619073         2    ;  uncertainty k = 0.756787
         4         3        15        18     9        0.000000        0.025696         3    ;  uncertainty k = 0.542852
         4         3        15        18     9      180.000000        0.139871         4    ;  uncertainty k = 0.123540
         4         5         6         7     9        0.000000       -0.110907         1    ;  uncertainty k = 0.152250
         4         5         6         7     9      180.000000       10.626487         2    ;  uncertainty k = 0.459034
         4         5         6         7     9        0.000000        1.470756         3    ;  uncertainty k = 0.247767
         4         5         6         7     9      180.000000        1.692657         4    ;  uncertainty k = 0.207855
         5         4         3        15     9        0.000000        0.334139         1    ;  uncertainty k = 0.285377
         5         4         3        15     9      180.000000        9.019897         2    ;  uncertainty k = 0.712148
         5         4         3        15     9        0.000000        1.369491         3    ;  uncertainty k = 0.331173
         5         4         3        15     9      180.000000        1.833411         4    ;  uncertainty k = 0.196743
         5         6         1        21     9        0.000000        0.303439         1    ;  uncertainty k = 0.071151
         5         6         1        21     9      180.000000        7.618996         2    ;  uncertainty k = 0.320960
         5         6         1        21     9        0.000000        1.182164         3    ;  uncertainty k = 0.375430
         5         6         1        21     9      180.000000        1.743061         4    ;  uncertainty k = 0.164136
         5         6         7         8     9        0.000000        5.523054         1    ;  uncertainty k = 0.397362
         5         6         7         8     9      180.000000        6.357104         2    ;  uncertainty k = 0.229688
         5         6         7         8     9        0.000000        0.335659         3    ;  uncertainty k = 0.097797
         5         6         7         8     9      180.000000        0.190010         4    ;  uncertainty k = 0.079267
         6         1         2        26     9        0.000000        0.097595         1    ;  uncertainty k = 0.260115
         6         1         2        26     9      180.000000        8.305466         2    ;  uncertainty k = 0.466744
         6         1         2        26     9        0.000000        1.122817         3    ;  uncertainty k = 0.281460
         6         1         2        26     9      180.000000        1.643812         4    ;  uncertainty k = 0.084818
         6         1        21        24     9        0.000000       -1.145163         1    ;  uncertainty k = 0.656691
         6         1        21        24     9      180.000000        2.602835         2    ;  uncertainty k = 0.234995
         6         1        21        24     9        0.000000        0.805757         3    ;  uncertainty k = 0.240836
         6         1        21        24     9      180.000000        0.262346         4    ;  uncertainty k = 0.113921
         6         1        21        25     9        0.000000       -1.145162         1    ;  uncertainty k = 0.656691
         6         1        21        25     9      180.000000        2.602834         2    ;  uncertainty k = 0.234996
         6         1        21        25     9        0.000000        0.805757         3    ;  uncertainty k = 0.240835
         6         1        21        25     9      180.000000        0.262346         4    ;  uncertainty k = 0.113921
         6         1        21        32     9        0.000000        1.485839         1    ;  uncertainty k = 0.780215
         6         1        21        32     9      180.000000        1.586566         2    ;  uncertainty k = 0.354329
         6         1        21        32     9        0.000000        0.234319         3    ;  uncertainty k = 0.321495
         6         1        21        32     9      180.000000        0.090009         4    ;  uncertainty k = 0.202356
         6         5         4        27     9        0.000000       -0.052388         1    ;  uncertainty k = 0.308375
         6         5         4        27     9      180.000000        7.805221         2    ;  uncertainty k = 0.317736
         6         5         4        27     9        0.000000        1.169754         3    ;  uncertainty k = 0.154585
         6         5         4        27     9      180.000000        1.691018         4    ;  uncertainty k = 0.073660
         6         7         8         9     9        0.000000        4.527385         1    ;  uncertainty k = 0.275031
         6         7         8         9     9      180.000000        5.005721         2    ;  uncertainty k = 0.163033
         6         7         8         9     9        0.000000        0.441304         3    ;  uncertainty k = 0.093712
         6         7         8         9     9      180.000000        0.159100         4    ;  uncertainty k = 0.044945
         6         7         8        14     9        0.000000        4.446405         1    ;  uncertainty k = 0.282281
         6         7         8        14     9      180.000000        4.961526         2    ;  uncertainty k = 0.117179
         6         7         8        14     9        0.000000        0.448489         3    ;  uncertainty k = 0.092057
         6         7         8        14     9      180.000000        0.155768         4    ;  uncertainty k = 0.042932
         7         6         1        21     9        0.000000        0.197473         1    ;  uncertainty k = 0.192601
         7         6         1        21     9      180.000000       11.355299         2    ;  uncertainty k = 0.535475
         7         6         1        21     9        0.000000        0.989675         3    ;  uncertainty k = 0.245794
         7         6         1        21     9      180.000000        1.464283         4    ;  uncertainty k = 0.422796
         7         6         5        28     9        0.000000       -0.023280         1    ;  uncertainty k = 0.116066
         7         6         5        28     9      180.000000        8.916978         2    ;  uncertainty k = 0.408515
         7         6         5        28     9        0.000000        0.786390         3    ;  uncertainty k = 0.207165
         7         6         5        28     9      180.000000        1.185687         4    ;  uncertainty k = 0.181023
         7         8         9        10     9        0.000000        0.064680         1    ;  uncertainty k = 0.222739
         7         8         9        10     9      180.000000       10.521898         2    ;  uncertainty k = 0.298826
         7         8         9        10     9        0.000000        1.326395         3    ;  uncertainty k = 0.181169
         7         8         9        10     9      180.000000        1.626448         4    ;  uncertainty k = 0.125517
         7         8         9        29     9        0.000000       -0.097560         1    ;  uncertainty k = 0.065317
         7         8         9        29     9      180.000000        8.219914         2    ;  uncertainty k = 0.260164
         7         8         9        29     9        0.000000        0.821091         3    ;  uncertainty k = 0.234180
         7         8         9        29     9      180.000000        1.092747         4    ;  uncertainty k = 0.090600
         7         8        14        12     9        0.000000        0.079318         1    ;  uncertainty k = 0.182471
         7         8        14        12     9      180.000000       10.721222         2    ;  uncertainty k = 0.305079
         7         8        14        12     9        0.000000        1.307361         3    ;  uncertainty k = 0.122896
         7         8        14        12     9      180.000000        1.605882         4    ;  uncertainty k = 0.112888
         7         8        14        31     9        0.000000       -0.104044         1    ;  uncertainty k = 0.080957
         7         8        14        31     9      180.000000        8.363348         2    ;  uncertainty k = 0.297606
         7         8        14        31     9        0.000000        0.823889         3    ;  uncertainty k = 0.245148
         7         8        14        31     9      180.000000        1.113998         4    ;  uncertainty k = 0.096143
         8         9        10        11     9        0.000000       -0.072952         1    ;  uncertainty k = 0.194089
         8         9        10        11     9      180.000000        9.171957         2    ;  uncertainty k = 0.472785
         8         9        10        11     9        0.000000        0.005342         3    ;  uncertainty k = 0.505155
         8         9        10        11     9      180.000000        1.304440         4    ;  uncertainty k = 0.246736
         8         9        10        22     9        0.000000        0.034163         1    ;  uncertainty k = 0.064116
         8         9        10        22     9      180.000000       12.619132         2    ;  uncertainty k = 0.563969
         8         9        10        22     9        0.000000        1.495979         3    ;  uncertainty k = 0.351941
         8         9        10        22     9      180.000000        1.496737         4    ;  uncertainty k = 0.252379
         8        14        12        11     9        0.000000       -0.105475         1    ;  uncertainty k = 0.243520
         8        14        12        11     9      180.000000       10.231596         2    ;  uncertainty k = 0.355762
         8        14        12        11     9        0.000000       -0.051106         3    ;  uncertainty k = 0.507451
         8        14        12        11     9      180.000000        1.251987         4    ;  uncertainty k = 0.284642
         8        14        12        13     9        0.000000       -0.034223         1    ;  uncertainty k = 0.242189
         8        14        12        13     9      180.000000        9.411996         2    ;  uncertainty k = 0.567129
         8        14        12        13     9        0.000000        1.422566         3    ;  uncertainty k = 0.436705
         8        14        12        13     9      180.000000        1.662708         4    ;  uncertainty k = 0.167768
         9         8        14        12     9        0.000000       -0.021462         1    ;  uncertainty k = 0.058283
         9         8        14        12     9      180.000000        9.707310         2    ;  uncertainty k = 0.491059
         9         8        14        12     9        0.000000       -0.144169         3    ;  uncertainty k = 0.485591
         9         8        14        12     9      180.000000        1.197879         4    ;  uncertainty k = 0.249688
         9         8        14        31     9        0.000000        0.178410         1    ;  uncertainty k = 0.292057
         9         8        14        31     9      180.000000        6.023481         2    ;  uncertainty k = 0.729602
         9         8        14        31     9        0.000000        1.457610         3    ;  uncertainty k = 0.375998
         9         8        14        31     9      180.000000        1.615015         4    ;  uncertainty k = 0.183710
         9        10        11        12     9        0.000000        0.047486         1    ;  uncertainty k = 0.248760
         9        10        11        12     9      180.000000        9.416472         2    ;  uncertainty k = 0.526005
         9        10        11        12     9        0.000000       -0.239532         3    ;  uncertainty k = 0.531742
         9        10        11        12     9      180.000000        1.226113         4    ;  uncertainty k = 0.215921
         9        10        11        30     9        0.000000       -0.008574         1    ;  uncertainty k = 0.228759
         9        10        11        30     9      180.000000        5.767531         2    ;  uncertainty k = 0.692671
         9        10        11        30     9        0.000000        1.336882         3    ;  uncertainty k = 0.331722
         9        10        11        30     9      180.000000        1.519252         4    ;  uncertainty k = 0.146559
        10         9         8        14     9        0.000000       -0.047045         1    ;  uncertainty k = 0.149882
        10         9         8        14     9      180.000000        9.280148         2    ;  uncertainty k = 0.510079
        10         9         8        14     9        0.000000       -0.076704         3    ;  uncertainty k = 0.515150
        10         9         8        14     9      180.000000        1.248631         4    ;  uncertainty k = 0.282599
        10        11        12        13     9        0.000000       -0.120810         1    ;  uncertainty k = 0.217842
        10        11        12        13     9      180.000000        9.585633         2    ;  uncertainty k = 0.591761
        10        11        12        13     9        0.000000        1.435653         3    ;  uncertainty k = 0.460779
        10        11        12        13     9      180.000000        1.610631         4    ;  uncertainty k = 0.199813
        10        11        12        14     9        0.000000       -0.074759         1    ;  uncertainty k = 0.164619
        10        11        12        14     9      180.000000       10.120848         2    ;  uncertainty k = 0.321603
        10        11        12        14     9        0.000000       -0.232417         3    ;  uncertainty k = 0.526890
        10        11        12        14     9      180.000000        1.177551         4    ;  uncertainty k = 0.278640
        11        10         9        29     9        0.000000        0.097362         1    ;  uncertainty k = 0.138155
        11        10         9        29     9      180.000000        5.789141         2    ;  uncertainty k = 0.666333
        11        10         9        29     9        0.000000        1.373190         3    ;  uncertainty k = 0.344295
        11        10         9        29     9      180.000000        1.545921         4    ;  uncertainty k = 0.139384
        11        12        14        31     9        0.000000        0.070590         1    ;  uncertainty k = 0.269502
        11        12        14        31     9      180.000000        6.364456         2    ;  uncertainty k = 0.646991
        11        12        14        31     9        0.000000        1.459776         3    ;  uncertainty k = 0.395621
        11        12        14        31     9      180.000000        1.597906         4    ;  uncertainty k = 0.181675
        12        11        10        22     9        0.000000       -0.133658         1    ;  uncertainty k = 0.245809
        12        11        10        22     9      180.000000       13.025528         2    ;  uncertainty k = 0.672205
        12        11        10        22     9        0.000000        1.510910         3    ;  uncertainty k = 0.188872
        12        11        10        22     9      180.000000        1.466769         4    ;  uncertainty k = 0.282670
        13        12        11        30     9        0.000000       -0.190971         1    ;  uncertainty k = 0.157958
        13        12        11        30     9      180.000000        7.171864         2    ;  uncertainty k = 0.264032
        13        12        11        30     9        0.000000        0.606438         3    ;  uncertainty k = 0.410119
        13        12        11        30     9      180.000000        0.951445         4    ;  uncertainty k = 0.198495
        13        12        14        31     9        0.000000       -0.223833         1    ;  uncertainty k = 0.237150
        13        12        14        31     9      180.000000        7.290616         2    ;  uncertainty k = 0.395620
        13        12        14        31     9        0.000000        0.620961         3    ;  uncertainty k = 0.413847
        13        12        14        31     9      180.000000        0.978574         4    ;  uncertainty k = 0.215978
        14         8         9        29     9        0.000000        0.192080         1    ;  uncertainty k = 0.292405
        14         8         9        29     9      180.000000        5.954392         2    ;  uncertainty k = 0.758274
        14         8         9        29     9        0.000000        1.460884         3    ;  uncertainty k = 0.377855
        14         8         9        29     9      180.000000        1.568697         4    ;  uncertainty k = 0.165697
        14        12        11        30     9        0.000000        0.045113         1    ;  uncertainty k = 0.301275
        14        12        11        30     9      180.000000        6.321343         2    ;  uncertainty k = 0.669805
        14        12        11        30     9        0.000000        1.422732         3    ;  uncertainty k = 0.416345
        14        12        11        30     9      180.000000        1.507689         4    ;  uncertainty k = 0.200107
        15         3         2        26     9        0.000000       -0.587504         1    ;  uncertainty k = 0.706650
        15         3         2        26     9      180.000000        6.928618         2    ;  uncertainty k = 0.494347
        15         3         2        26     9        0.000000        0.836322         3    ;  uncertainty k = 0.191118
        15         3         2        26     9      180.000000        1.074202         4    ;  uncertainty k = 0.169259
        15         3         4        27     9        0.000000       -0.626067         1    ;  uncertainty k = 0.654463
        15         3         4        27     9      180.000000        6.750149         2    ;  uncertainty k = 0.471187
        15         3         4        27     9        0.000000        0.796844         3    ;  uncertainty k = 0.161457
        15         3         4        27     9      180.000000        1.016306         4    ;  uncertainty k = 0.158888
        16        15        18        19     9        0.000000        1.329367         1    ;  uncertainty k = 0.648171
        16        15        18        19     9      180.000000       -0.513223         2    ;  uncertainty k = 0.419219
        16        15        18        19     9        0.000000        0.469671         3    ;  uncertainty k = 0.117047
        16        15        18        19     9      180.000000       -0.001615         4    ;  uncertainty k = 0.162685
        16        15        18        20     9        0.000000        1.329367         1    ;  uncertainty k = 0.648171
        16        15        18        20     9      180.000000       -0.513223         2    ;  uncertainty k = 0.419219
        16        15        18        20     9        0.000000        0.469671         3    ;  uncertainty k = 0.117047
        16        15        18        20     9      180.000000       -0.001615         4    ;  uncertainty k = 0.162685
        16        15        18        23     9        0.000000        1.329367         1    ;  uncertainty k = 0.648171
        16        15        18        23     9      180.000000       -0.513223         2    ;  uncertainty k = 0.419219
        16        15        18        23     9        0.000000        0.469671         3    ;  uncertainty k = 0.117047
        16        15        18        23     9      180.000000       -0.001615         4    ;  uncertainty k = 0.162685
        17        15        18        19     9        0.000000        1.329365         1    ;  uncertainty k = 0.648168
        17        15        18        19     9      180.000000       -0.513223         2    ;  uncertainty k = 0.419218
        17        15        18        19     9        0.000000        0.469670         3    ;  uncertainty k = 0.117047
        17        15        18        19     9      180.000000       -0.001614         4    ;  uncertainty k = 0.162685
        17        15        18        20     9        0.000000        1.329365         1    ;  uncertainty k = 0.648168
        17        15        18        20     9      180.000000       -0.513223         2    ;  uncertainty k = 0.419218
        17        15        18        20     9        0.000000        0.469670         3    ;  uncertainty k = 0.117047
        17        15        18        20     9      180.000000       -0.001614         4    ;  uncertainty k = 0.162685
        17        15        18        23     9        0.000000        1.329365         1    ;  uncertainty k = 0.648168
        17        15        18        23     9      180.000000       -0.513223         2    ;  uncertainty k = 0.419218
        17        15        18        23     9        0.000000        0.469670         3    ;  uncertainty k = 0.117047
        17        15        18        23     9      180.000000       -0.001614         4    ;  uncertainty k = 0.162685
        21         1         2        26     9        0.000000        0.078066         1    ;  uncertainty k = 0.473982
        21         1         2        26     9      180.000000        8.354575         2    ;  uncertainty k = 0.447512
        21         1         2        26     9        0.000000        0.743365         3    ;  uncertainty k = 0.241667
        21         1         2        26     9      180.000000        1.239070         4    ;  uncertainty k = 0.131283
        22        10         9        29     9        0.000000       -0.303893         1    ;  uncertainty k = 0.235298
        22        10         9        29     9      180.000000        8.730511         2    ;  uncertainty k = 0.332123
        22        10         9        29     9        0.000000        0.825030         3    ;  uncertainty k = 0.278075
        22        10         9        29     9      180.000000        1.031686         4    ;  uncertainty k = 0.191208
        22        10        11        30     9        0.000000       -0.316626         1    ;  uncertainty k = 0.211117
        22        10        11        30     9      180.000000        8.754317         2    ;  uncertainty k = 0.309942
        22        10        11        30     9        0.000000        0.803769         3    ;  uncertainty k = 0.290383
        22        10        11        30     9      180.000000        0.987725         4    ;  uncertainty k = 0.177351
        27         4         5        28     9        0.000000       -0.106636         1    ;  uncertainty k = 0.205039
        27         4         5        28     9      180.000000        7.610546         2    ;  uncertainty k = 0.364359
        27         4         5        28     9        0.000000       -0.341765         3    ;  uncertainty k = 0.371039
        27         4         5        28     9      180.000000        0.218117         4    ;  uncertainty k = 0.149521

[ dihedrals ] ; impropers
;       ai        aj        ak        al funct           phase               k        pn
         1         2         6        21     4      180.000000        7.651786         2    ;  uncertainty k = 0.081779
         1         6        21         2     4      180.000000        7.651786         2    ;  uncertainty k = 0.081779
         1        21         2         6     4      180.000000        7.651786         2    ;  uncertainty k = 0.081779
         2         1         3        26     4      180.000000        6.043011         2    ;  uncertainty k = 0.276904
         2         3        26         1     4      180.000000        6.043011         2    ;  uncertainty k = 0.276904
         2        26         1         3     4      180.000000        6.043011         2    ;  uncertainty k = 0.276904
         3         2         4        15     4      180.000000        3.739398         2    ;  uncertainty k = 0.703653
         3         4        15         2     4      180.000000        3.739398         2    ;  uncertainty k = 0.703653
         3        15         2         4     4      180.000000        3.739398         2    ;  uncertainty k = 0.703653
         4         3         5        27     4      180.000000        5.865897         2    ;  uncertainty k = 0.313544
         4         5        27         3     4      180.000000        5.865897         2    ;  uncertainty k = 0.313544
         4        27         3         5     4      180.000000        5.865897         2    ;  uncertainty k = 0.313544
         5         4         6        28     4      180.000000        2.501663         2    ;  uncertainty k = 0.193256
         5         6        28         4     4      180.000000        2.501663         2    ;  uncertainty k = 0.193256
         5        28         4         6     4      180.000000        2.501663         2    ;  uncertainty k = 0.193256
         6         1         5         7     4      180.000000       18.955001         2    ;  uncertainty k = 0.097421
         6         5         7         1     4      180.000000       18.955001         2    ;  uncertainty k = 0.097421
         6         7         1         5     4      180.000000       18.955001         2    ;  uncertainty k = 0.097421
         8         7         9        14     4      180.000000       19.242868         2    ;  uncertainty k = 0.028796
         8         9        14         7     4      180.000000       19.242868         2    ;  uncertainty k = 0.028796
         8        14         7         9     4      180.000000       19.242868         2    ;  uncertainty k = 0.028796
         9         8        10        29     4      180.000000        1.292525         2    ;  uncertainty k = 0.210132
         9        10        29         8     4      180.000000        1.292525         2    ;  uncertainty k = 0.210132
         9        29         8        10     4      180.000000        1.292525         2    ;  uncertainty k = 0.210132
        10         9        11        22     4      180.000000       18.155448         2    ;  uncertainty k = 0.046061
        10        11        22         9     4      180.000000       18.155448         2    ;  uncertainty k = 0.046061
        10        22         9        11     4      180.000000       18.155448         2    ;  uncertainty k = 0.046061
        11        10        12        30     4      180.000000        1.443253         2    ;  uncertainty k = 0.472598
        11        12        30        10     4      180.000000        1.443253         2    ;  uncertainty k = 0.472598
        11        30        10        12     4      180.000000        1.443253         2    ;  uncertainty k = 0.472598
        12        11        13        14     4      180.000000       14.475914         2    ;  uncertainty k = 0.105171
        12        13        14        11     4      180.000000       14.475914         2    ;  uncertainty k = 0.105171
        12        14        11        13     4      180.000000       14.475914         2    ;  uncertainty k = 0.105171
        14         8        12        31     4      180.000000        1.662425         2    ;  uncertainty k = 0.503027
        14        12        31         8     4      180.000000        1.662425         2    ;  uncertainty k = 0.503027
        14        31         8        12     4      180.000000        1.662425         2    ;  uncertainty k = 0.503027

[ pairs ]
;       ai        aj funct
         1         4     1
         1         8     1
         1        15     1
         1        28     1
         2         5     1
         2         7     1
         2        16     1
         2        17     1
         2        18     1
         2        24     1
         2        25     1
         2        27     1
         2        32     1
         3         6     1
         3        19     1
         3        20     1
         3        21     1
         3        23     1
         3        28     1
         4         7     1
         4        16     1
         4        17     1
         4        18     1
         4        26     1
         5         8     1
         5        15     1
         5        21     1
         6         9     1
         6        14     1
         6        24     1
         6        25     1
         6        26     1
         6        27     1
         6        32     1
         7        10     1
         7        12     1
         7        21     1
         7        28     1
         7        29     1
         7        31     1
         8        11     1
         8        13     1
         8        22     1
         9        12     1
         9        30     1
         9        31     1
        10        13     1
        10        14     1
        11        29     1
        11        31     1
        12        22     1
        13        30     1
        13        31     1
        14        29     1
        14        30     1
        15        26     1
        15        27     1
        16        19     1
        16        20     1
        16        23     1
        17        19     1
        17        20     1
        17        23     1
        21        26     1
        22        29     1
        22        30     1
        27        28     1
