; ITP file created by ByteFF-joint-25, 2026-02-17 09:19:55.740895

[ atomtypes ]
;name           bonded.type        at.num        mass        charge   ptype           sigma         epsilon
 o0bf                                   8      0.0000       0.00000       A     3.24314e-01     3.87820e-01    ;  uncertainty sigma = 0.000033, epsilon = 0.000883
 c1bf                                   6      0.0000       0.00000       A     3.39735e-01     4.50327e-01    ;  uncertainty sigma = 0.000031, epsilon = 0.001400
 c2bf                                   6      0.0000       0.00000       A     3.39804e-01     4.51139e-01    ;  uncertainty sigma = 0.000023, epsilon = 0.001153
 c3bf                                   6      0.0000       0.00000       A     3.39790e-01     4.50784e-01    ;  uncertainty sigma = 0.000016, epsilon = 0.000744
 c4bf                                   6      0.0000       0.00000       A     3.31546e-01     4.13508e-01    ;  uncertainty sigma = 0.000009, epsilon = 0.000938
 c5bf                                   6      0.0000       0.00000       A     3.31549e-01     4.12690e-01    ;  uncertainty sigma = 0.000027, epsilon = 0.001506
 c6bf                                   6      0.0000       0.00000       A     3.31545e-01     4.12842e-01    ;  uncertainty sigma = 0.000019, epsilon = 0.002025
 c7bf                                   6      0.0000       0.00000       A     3.31488e-01     4.13281e-01    ;  uncertainty sigma = 0.000016, epsilon = 0.000289
 c8bf                                   6      0.0000       0.00000       A     3.31528e-01     4.13628e-01    ;  uncertainty sigma = 0.000009, epsilon = 0.000546
 c9bf                                   6      0.0000       0.00000       A     3.31531e-01     4.13205e-01    ;  uncertainty sigma = 0.000015, epsilon = 0.000623
 o10bf                                  8      0.0000       0.00000       A     3.15560e-01     3.01903e-01    ;  uncertainty sigma = 0.000035, epsilon = 0.001496
 c11bf                                  6      0.0000       0.00000       A     3.31495e-01     4.13941e-01    ;  uncertainty sigma = 0.000010, epsilon = 0.001010
 c12bf                                  6      0.0000       0.00000       A     3.31520e-01     4.13586e-01    ;  uncertainty sigma = 0.000002, epsilon = 0.000805
 c13bf                                  6      0.0000       0.00000       A     3.31497e-01     4.13352e-01    ;  uncertainty sigma = 0.000008, epsilon = 0.000492
 f14bf                                  9      0.0000       0.00000       A     3.03420e-01     3.47893e-01    ;  uncertainty sigma = 0.000010, epsilon = 0.000765
 c15bf                                  6      0.0000       0.00000       A     3.31510e-01     4.13401e-01    ;  uncertainty sigma = 0.000009, epsilon = 0.000546
 c16bf                                  6      0.0000       0.00000       A     3.31508e-01     4.13715e-01    ;  uncertainty sigma = 0.000016, epsilon = 0.000826
 c17bf                                  6      0.0000       0.00000       A     3.47927e-01     6.68046e-01    ;  uncertainty sigma = 0.000023, epsilon = 0.001608
 c18bf                                  6      0.0000       0.00000       A     3.31520e-01     4.13321e-01    ;  uncertainty sigma = 0.000008, epsilon = 0.000748
 s19bf                                 16      0.0000       0.00000       A     4.05952e-01     2.57052e-01    ;  uncertainty sigma = 0.000036, epsilon = 0.005064
 o20bf                                  8      0.0000       0.00000       A     3.04753e-01     6.10946e-01    ;  uncertainty sigma = 0.000057, epsilon = 0.002055
 o21bf                                  8      0.0000       0.00000       A     3.04753e-01     6.10946e-01    ;  uncertainty sigma = 0.000057, epsilon = 0.002055
 c22bf                                  6      0.0000       0.00000       A     3.39859e-01     4.51367e-01    ;  uncertainty sigma = 0.000048, epsilon = 0.003815
 f23bf                                  9      0.0000       0.00000       A     3.03556e-01     3.47331e-01    ;  uncertainty sigma = 0.000038, epsilon = 0.002391
 f24bf                                  9      0.0000       0.00000       A     3.03556e-01     3.47331e-01    ;  uncertainty sigma = 0.000038, epsilon = 0.002391
 f25bf                                  9      0.0000       0.00000       A     3.03449e-01     3.47672e-01    ;  uncertainty sigma = 0.000012, epsilon = 0.001616
 f26bf                                  9      0.0000       0.00000       A     3.03449e-01     3.47672e-01    ;  uncertainty sigma = 0.000012, epsilon = 0.001616
 n27bf                                  7      0.0000       0.00000       A     3.27375e-01     4.59084e-01    ;  uncertainty sigma = 0.000021, epsilon = 0.000492
 h28bf                                  1      0.0000       0.00000       A     5.38093e-02     1.93077e-02    ;  uncertainty sigma = 0.000062, epsilon = 0.000926
 h29bf                                  1      0.0000       0.00000       A     2.42326e-01     8.68829e-02    ;  uncertainty sigma = 0.000128, epsilon = 0.000858
 h30bf                                  1      0.0000       0.00000       A     2.60052e-01     8.67184e-02    ;  uncertainty sigma = 0.000035, epsilon = 0.000545
 h31bf                                  1      0.0000       0.00000       A     2.60052e-01     8.67184e-02    ;  uncertainty sigma = 0.000035, epsilon = 0.000545
 h32bf                                  1      0.0000       0.00000       A     2.62567e-01     6.72430e-02    ;  uncertainty sigma = 0.000020, epsilon = 0.000765
 h33bf                                  1      0.0000       0.00000       A     2.62556e-01     6.70855e-02    ;  uncertainty sigma = 0.000006, epsilon = 0.000381
 h34bf                                  1      0.0000       0.00000       A     2.62552e-01     6.72491e-02    ;  uncertainty sigma = 0.000007, epsilon = 0.000350
 h35bf                                  1      0.0000       0.00000       A     2.62545e-01     6.70249e-02    ;  uncertainty sigma = 0.000017, epsilon = 0.000507
 h36bf                                  1      0.0000       0.00000       A     2.62547e-01     6.71166e-02    ;  uncertainty sigma = 0.000014, epsilon = 0.000743
 h37bf                                  1      0.0000       0.00000       A     2.06486e-01     8.66134e-02    ;  uncertainty sigma = 0.000324, epsilon = 0.003096

[ moleculetype ]
;name             nrexcl
 MOL                   3

[ atoms ]
;       nr            type      resi   res      atom      cgnr      charge          mass ; qtot
         1            o0bf         1   UNL        o0         1    -0.57153       15.9990 ; qtot   -0.572
         2            c1bf         1   UNL        c1         2     0.16308       12.0110 ; qtot   -0.408
         3            c2bf         1   UNL        c2         3     0.38805       12.0110 ; qtot   -0.020
         4            c3bf         1   UNL        c3         4    -0.05626       12.0110 ; qtot   -0.077
         5            c4bf         1   UNL        c4         5    -0.10015       12.0110 ; qtot   -0.177
         6            c5bf         1   UNL        c5         6     0.01490       12.0110 ; qtot   -0.162
         7            c6bf         1   UNL        c6         7    -0.22035       12.0110 ; qtot   -0.382
         8            c7bf         1   UNL        c7         8     0.00023       12.0110 ; qtot   -0.382
         9            c8bf         1   UNL        c8         9    -0.17688       12.0110 ; qtot   -0.559
        10            c9bf         1   UNL        c9        10     0.16711       12.0110 ; qtot   -0.392
        11           o10bf         1   UNL       o10        11    -0.24701       15.9990 ; qtot   -0.639
        12           c11bf         1   UNL       c11        12     0.15098       12.0110 ; qtot   -0.488
        13           c12bf         1   UNL       c12        13    -0.18271       12.0110 ; qtot   -0.671
        14           c13bf         1   UNL       c13        14     0.15843       12.0110 ; qtot   -0.512
        15           f14bf         1   UNL       f14        15    -0.12713       18.9980 ; qtot   -0.639
        16           c15bf         1   UNL       c15        16    -0.15485       12.0110 ; qtot   -0.794
        17           c16bf         1   UNL       c16        17     0.03943       12.0110 ; qtot   -0.755
        18           c17bf         1   UNL       c17        18     0.22805       12.0110 ; qtot   -0.527
        19           c18bf         1   UNL       c18        19    -0.13883       12.0110 ; qtot   -0.665
        20           s19bf         1   UNL       s19        20     0.95167       32.0670 ; qtot    0.286
        21           o20bf         1   UNL       o20        21    -0.54108       15.9990 ; qtot   -0.255
        22           o21bf         1   UNL       o21        22    -0.54108       15.9990 ; qtot   -0.796
        23           c22bf         1   UNL       c22        23     0.39889       12.0110 ; qtot   -0.397
        24           f23bf         1   UNL       f23        24    -0.20936       18.9980 ; qtot   -0.606
        25           f24bf         1   UNL       f24        25    -0.20936       18.9980 ; qtot   -0.816
        26           f25bf         1   UNL       f25        26    -0.22758       18.9980 ; qtot   -1.043
        27           f26bf         1   UNL       f26        27    -0.22758       18.9980 ; qtot   -1.271
        28           n27bf         1   UNL       n27        28    -0.34869       14.0070 ; qtot   -1.620
        29           h28bf         1   UNL       h28        29     0.41807        1.0080 ; qtot   -1.202
        30           h29bf         1   UNL       h29        30     0.09251        1.0080 ; qtot   -1.109
        31           h30bf         1   UNL       h30        31     0.09141        1.0080 ; qtot   -1.018
        32           h31bf         1   UNL       h31        32     0.09141        1.0080 ; qtot   -0.926
        33           h32bf         1   UNL       h32        33     0.16754        1.0080 ; qtot   -0.759
        34           h33bf         1   UNL       h33        34     0.15782        1.0080 ; qtot   -0.601
        35           h34bf         1   UNL       h34        35     0.16858        1.0080 ; qtot   -0.432
        36           h35bf         1   UNL       h35        36     0.16624        1.0080 ; qtot   -0.266
        37           h36bf         1   UNL       h36        37     0.16647        1.0080 ; qtot   -0.100
        38           h37bf         1   UNL       h37        38     0.09956        1.0080 ; qtot   -0.000

[ bonds ]
;       ai        aj funct               r               k
         1         2     1        0.141341   266784.598340    ;  uncertainty r = 0.000175, k = 15.524028
         1        29     1        0.097120   457921.536914    ;  uncertainty r = 0.000049, k = 2.604885
         2         3     1        0.154750   188145.853564    ;  uncertainty r = 0.000252, k = 8.551885
         2         6     1        0.151714   243204.627490    ;  uncertainty r = 0.000132, k = 21.912760
         2        30     1        0.109523   308370.759473    ;  uncertainty r = 0.000079, k = 3.008190
         3         4     1        0.153436   201677.482617    ;  uncertainty r = 0.000098, k = 9.661873
         3        26     1        0.137560   301163.370020    ;  uncertainty r = 0.000061, k = 5.585031
         3        27     1        0.137560   301163.370020    ;  uncertainty r = 0.000061, k = 5.585031
         4         5     1        0.151090   252656.524561    ;  uncertainty r = 0.000114, k = 18.986535
         4        31     1        0.109406   310072.348145    ;  uncertainty r = 0.000044, k = 1.784813
         4        32     1        0.109406   310072.348145    ;  uncertainty r = 0.000044, k = 1.784813
         5         6     1        0.139459   361509.244922    ;  uncertainty r = 0.000132, k = 18.774077
         5        10     1        0.138874   352248.390967    ;  uncertainty r = 0.000123, k = 4.466178
         6         7     1        0.139363   334313.423682    ;  uncertainty r = 0.000173, k = 10.460803
         7         8     1        0.139237   347441.234424    ;  uncertainty r = 0.000199, k = 4.708881
         7        20     1        0.177739   134181.459692    ;  uncertainty r = 0.000101, k = 16.597954
         8         9     1        0.139047   365888.144141    ;  uncertainty r = 0.000089, k = 4.428435
         8        33     1        0.108451   328724.754980    ;  uncertainty r = 0.000029, k = 1.039879
         9        10     1        0.139689   352955.794434    ;  uncertainty r = 0.000048, k = 6.725251
         9        34     1        0.108753   336163.893701    ;  uncertainty r = 0.000031, k = 1.172871
        10        11     1        0.138287   316815.907080    ;  uncertainty r = 0.000141, k = 11.446028
        11        12     1        0.137077   316895.097656    ;  uncertainty r = 0.000110, k = 9.258264
        12        13     1        0.139427   359163.303906    ;  uncertainty r = 0.000040, k = 4.028925
        12        19     1        0.139179   355512.646436    ;  uncertainty r = 0.000043, k = 0.656935
        13        14     1        0.138903   360755.951270    ;  uncertainty r = 0.000040, k = 3.414912
        13        35     1        0.108801   339525.062500    ;  uncertainty r = 0.000019, k = 1.519211
        14        15     1        0.134939   340193.470801    ;  uncertainty r = 0.000095, k = 3.973496
        14        16     1        0.138772   359379.322314    ;  uncertainty r = 0.000049, k = 1.285215
        16        17     1        0.140293   363423.557715    ;  uncertainty r = 0.000073, k = 1.983955
        16        36     1        0.108643   335847.029248    ;  uncertainty r = 0.000020, k = 0.933262
        17        18     1        0.143666   316064.886230    ;  uncertainty r = 0.000041, k = 3.494324
        17        19     1        0.140042   357603.165283    ;  uncertainty r = 0.000048, k = 4.155025
        18        28     1        0.116625  1127949.809766    ;  uncertainty r = 0.000026, k = 2.900562
        19        37     1        0.108681   335495.357715    ;  uncertainty r = 0.000025, k = 1.572342
        20        21     1        0.146996   488142.509668    ;  uncertainty r = 0.000109, k = 11.850675
        20        22     1        0.146996   488142.509668    ;  uncertainty r = 0.000109, k = 11.850675
        20        23     1        0.186536   142705.031763    ;  uncertainty r = 0.000116, k = 23.071414
        23        24     1        0.134863   311074.398779    ;  uncertainty r = 0.000139, k = 4.314222
        23        25     1        0.134863   311074.398779    ;  uncertainty r = 0.000139, k = 4.314222
        23        38     1        0.109695   322431.670654    ;  uncertainty r = 0.000162, k = 6.852620

[ angles ]
;       ai        aj        ak funct           theta             cth
         1         2         3     1      107.410141      628.438511    ;  uncertainty theta = 0.008670, k = 0.247901
         1         2         6     1      112.066589      671.595587    ;  uncertainty theta = 0.005529, k = 0.196698
         1         2        30     1      108.003479      442.344519    ;  uncertainty theta = 0.007986, k = 0.200175
         2         1        29     1      107.329124      457.634098    ;  uncertainty theta = 0.001447, k = 0.131498
         2         3         4     1      111.123581      611.251015    ;  uncertainty theta = 0.003918, k = 0.280397
         2         3        26     1      109.530434      593.873012    ;  uncertainty theta = 0.003178, k = 0.146818
         2         3        27     1      109.530434      593.873012    ;  uncertainty theta = 0.003178, k = 0.146818
         2         6         5     1      115.482101      508.084796    ;  uncertainty theta = 0.005046, k = 0.165689
         2         6         7     1      124.767944      356.487385    ;  uncertainty theta = 0.006571, k = 0.206169
         3         2         6     1      104.668800      715.487622    ;  uncertainty theta = 0.005918, k = 0.229144
         3         2        30     1      107.064758      384.815956    ;  uncertainty theta = 0.005442, k = 0.198908
         3         4         5     1      103.987465      711.936176    ;  uncertainty theta = 0.005472, k = 0.351798
         3         4        31     1      107.225937      380.179694    ;  uncertainty theta = 0.002622, k = 0.088553
         3         4        32     1      107.225937      380.179694    ;  uncertainty theta = 0.002622, k = 0.088553
         4         3        26     1      111.588036      659.455501    ;  uncertainty theta = 0.002894, k = 0.086543
         4         3        27     1      111.588036      659.455501    ;  uncertainty theta = 0.002894, k = 0.086543
         4         5         6     1      115.273758      535.434880    ;  uncertainty theta = 0.004642, k = 0.061409
         4         5        10     1      125.782852      387.701394    ;  uncertainty theta = 0.006394, k = 0.185200
         5         4        31     1      110.505722      380.194250    ;  uncertainty theta = 0.002396, k = 0.102521
         5         4        32     1      110.505722      380.194250    ;  uncertainty theta = 0.002396, k = 0.102521
         5         6         7     1      121.409523      426.243436    ;  uncertainty theta = 0.005962, k = 0.166432
         5        10         9     1      120.340919      383.447390    ;  uncertainty theta = 0.004246, k = 0.224386
         5        10        11     1      118.107956      403.477741    ;  uncertainty theta = 0.007451, k = 0.369876
         6         2        30     1      109.731972      377.005750    ;  uncertainty theta = 0.004453, k = 0.172263
         6         5        10     1      119.449722      420.706480    ;  uncertainty theta = 0.002002, k = 0.139134
         6         7         8     1      123.116066      445.327765    ;  uncertainty theta = 0.005659, k = 0.170630
         6         7        20     1      116.791275      336.735836    ;  uncertainty theta = 0.008800, k = 0.302163
         7         8         9     1      121.432945      489.586672    ;  uncertainty theta = 0.005626, k = 0.102524
         7         8        33     1      118.614845      263.130640    ;  uncertainty theta = 0.003009, k = 0.105928
         7        20        21     1      115.391090      628.816460    ;  uncertainty theta = 0.008709, k = 0.083356
         7        20        22     1      115.391090      628.816460    ;  uncertainty theta = 0.008709, k = 0.083356
         7        20        23     1      104.522888      508.977765    ;  uncertainty theta = 0.007629, k = 0.328333
         8         7        20     1      115.957886      352.467110    ;  uncertainty theta = 0.010104, k = 0.220153
         8         9        10     1      119.912781      511.170541    ;  uncertainty theta = 0.002532, k = 0.035678
         8         9        34     1      120.069801      277.121241    ;  uncertainty theta = 0.001669, k = 0.045307
         9         8        33     1      120.480507      283.263427    ;  uncertainty theta = 0.002371, k = 0.063445
         9        10        11     1      120.826584      434.003685    ;  uncertainty theta = 0.002615, k = 0.200703
        10         9        34     1      120.189857      275.876978    ;  uncertainty theta = 0.002292, k = 0.072971
        10        11        12     1      112.663620      472.674785    ;  uncertainty theta = 0.002352, k = 0.096123
        11        12        13     1      119.026627      419.851465    ;  uncertainty theta = 0.002706, k = 0.052294
        11        12        19     1      119.290588      404.135418    ;  uncertainty theta = 0.003651, k = 0.053296
        12        13        14     1      117.038597      502.569227    ;  uncertainty theta = 0.003445, k = 0.110867
        12        13        35     1      121.702477      272.440034    ;  uncertainty theta = 0.003455, k = 0.132527
        12        19        17     1      118.761208      522.894787    ;  uncertainty theta = 0.001489, k = 0.068180
        12        19        37     1      120.905983      280.332437    ;  uncertainty theta = 0.002004, k = 0.062093
        13        12        19     1      122.428162      385.560203    ;  uncertainty theta = 0.005403, k = 0.175952
        13        14        15     1      118.267052      494.604714    ;  uncertainty theta = 0.001988, k = 0.058359
        13        14        16     1      123.726730      369.147375    ;  uncertainty theta = 0.006010, k = 0.127235
        14        13        35     1      121.505081      285.104493    ;  uncertainty theta = 0.003243, k = 0.069272
        14        16        17     1      117.400681      493.697380    ;  uncertainty theta = 0.001506, k = 0.173040
        14        16        36     1      121.339279      286.173157    ;  uncertainty theta = 0.003120, k = 0.038569
        15        14        16     1      118.689796      499.274046    ;  uncertainty theta = 0.003051, k = 0.052524
        16        17        18     1      119.117836      375.204905    ;  uncertainty theta = 0.002733, k = 0.097877
        16        17        19     1      122.566833      457.580470    ;  uncertainty theta = 0.002293, k = 0.135282
        17        16        36     1      121.185242      278.472122    ;  uncertainty theta = 0.003138, k = 0.095958
        17        18        28     1      180.000000      233.555922    ;  uncertainty theta = 0.000000, k = 0.675784
        17        19        37     1      120.586197      284.638441    ;  uncertainty theta = 0.004219, k = 0.089604
        18        17        19     1      118.919228      375.151182    ;  uncertainty theta = 0.002637, k = 0.097444
        20        23        24     1      105.975853      511.799615    ;  uncertainty theta = 0.002875, k = 0.156926
        20        23        25     1      105.975853      511.799615    ;  uncertainty theta = 0.002875, k = 0.156926
        20        23        38     1      112.107346      381.893489    ;  uncertainty theta = 0.010585, k = 0.201519
        21        20        22     1      125.136795      859.031267    ;  uncertainty theta = 0.002708, k = 0.070467
        21        20        23     1      107.842819      525.272867    ;  uncertainty theta = 0.005343, k = 0.249030
        22        20        23     1      107.842819      525.272867    ;  uncertainty theta = 0.005343, k = 0.249030
        24        23        25     1      109.505371      835.368900    ;  uncertainty theta = 0.003942, k = 0.097215
        24        23        38     1      112.536720      472.683372    ;  uncertainty theta = 0.005070, k = 0.120464
        25        23        38     1      112.536720      472.683372    ;  uncertainty theta = 0.005070, k = 0.120464
        26         3        27     1      107.133316      788.630883    ;  uncertainty theta = 0.004222, k = 0.140640
        31         4        32     1      105.669456      291.017323    ;  uncertainty theta = 0.002858, k = 0.056928

[ dihedrals ] ; propers for gromacs 4.5 or higher, use funct 9
;       ai        aj        ak        al funct           phase               k        pn
         1         2         3         4     9        0.000000       -2.647338         1    ;  uncertainty k = 0.986579
         1         2         3         4     9      180.000000        1.652150         2    ;  uncertainty k = 0.518109
         1         2         3         4     9        0.000000        1.033401         3    ;  uncertainty k = 0.310740
         1         2         3         4     9      180.000000        0.042296         4    ;  uncertainty k = 0.270326
         1         2         3        26     9        0.000000       -0.282027         1    ;  uncertainty k = 1.406562
         1         2         3        26     9      180.000000        0.319715         2    ;  uncertainty k = 0.697098
         1         2         3        26     9        0.000000        1.460301         3    ;  uncertainty k = 0.368849
         1         2         3        26     9      180.000000        0.083291         4    ;  uncertainty k = 0.260871
         1         2         3        27     9        0.000000       -0.282027         1    ;  uncertainty k = 1.406562
         1         2         3        27     9      180.000000        0.319715         2    ;  uncertainty k = 0.697098
         1         2         3        27     9        0.000000        1.460301         3    ;  uncertainty k = 0.368849
         1         2         3        27     9      180.000000        0.083291         4    ;  uncertainty k = 0.260871
         1         2         6         5     9        0.000000       -4.190876         1    ;  uncertainty k = 2.353799
         1         2         6         5     9      180.000000        4.951563         2    ;  uncertainty k = 1.130322
         1         2         6         5     9        0.000000        1.071859         3    ;  uncertainty k = 0.706679
         1         2         6         5     9      180.000000        0.606400         4    ;  uncertainty k = 0.229408
         1         2         6         7     9        0.000000       -0.943621         1    ;  uncertainty k = 0.984383
         1         2         6         7     9      180.000000        3.603945         2    ;  uncertainty k = 0.208039
         1         2         6         7     9        0.000000       -0.171603         3    ;  uncertainty k = 0.275307
         1         2         6         7     9      180.000000        0.490059         4    ;  uncertainty k = 0.197339
         2         3         4         5     9        0.000000       -0.343517         1    ;  uncertainty k = 1.847992
         2         3         4         5     9      180.000000        1.882240         2    ;  uncertainty k = 0.624184
         2         3         4         5     9        0.000000       -0.007238         3    ;  uncertainty k = 0.517955
         2         3         4         5     9      180.000000       -0.165939         4    ;  uncertainty k = 0.372661
         2         3         4        31     9        0.000000       -0.273391         1    ;  uncertainty k = 0.290130
         2         3         4        31     9      180.000000       -0.226858         2    ;  uncertainty k = 0.647078
         2         3         4        31     9        0.000000       -0.001285         3    ;  uncertainty k = 0.213938
         2         3         4        31     9      180.000000       -0.023110         4    ;  uncertainty k = 0.191048
         2         3         4        32     9        0.000000       -0.273391         1    ;  uncertainty k = 0.290130
         2         3         4        32     9      180.000000       -0.226858         2    ;  uncertainty k = 0.647078
         2         3         4        32     9        0.000000       -0.001285         3    ;  uncertainty k = 0.213938
         2         3         4        32     9      180.000000       -0.023110         4    ;  uncertainty k = 0.191048
         2         6         5         4     9        0.000000        0.511988         1    ;  uncertainty k = 0.600405
         2         6         5         4     9      180.000000       11.969283         2    ;  uncertainty k = 0.653020
         2         6         5         4     9        0.000000       -0.487008         3    ;  uncertainty k = 0.905776
         2         6         5         4     9      180.000000        1.207176         4    ;  uncertainty k = 0.296538
         2         6         5        10     9        0.000000        0.575919         1    ;  uncertainty k = 0.489515
         2         6         5        10     9      180.000000        8.656100         2    ;  uncertainty k = 0.368232
         2         6         5        10     9        0.000000        0.666130         3    ;  uncertainty k = 0.254305
         2         6         5        10     9      180.000000        1.271499         4    ;  uncertainty k = 0.190423
         2         6         7         8     9        0.000000        0.266864         1    ;  uncertainty k = 0.519488
         2         6         7         8     9      180.000000        6.814833         2    ;  uncertainty k = 0.132650
         2         6         7         8     9        0.000000        1.224627         3    ;  uncertainty k = 0.246508
         2         6         7         8     9      180.000000        1.549771         4    ;  uncertainty k = 0.139338
         2         6         7        20     9        0.000000       -0.058744         1    ;  uncertainty k = 0.438707
         2         6         7        20     9      180.000000        6.778028         2    ;  uncertainty k = 0.674714
         2         6         7        20     9        0.000000        1.097226         3    ;  uncertainty k = 0.175426
         2         6         7        20     9      180.000000        1.202690         4    ;  uncertainty k = 0.217219
         3         2         1        29     9        0.000000       13.878324         1    ;  uncertainty k = 0.471464
         3         2         1        29     9      180.000000       -4.488746         2    ;  uncertainty k = 0.235496
         3         2         1        29     9        0.000000        1.023469         3    ;  uncertainty k = 0.242500
         3         2         1        29     9      180.000000        0.093198         4    ;  uncertainty k = 0.074143
         3         2         6         5     9        0.000000       -0.734157         1    ;  uncertainty k = 2.146318
         3         2         6         5     9      180.000000        8.453884         2    ;  uncertainty k = 0.974915
         3         2         6         5     9        0.000000       -1.069185         3    ;  uncertainty k = 0.488885
         3         2         6         5     9      180.000000        0.879797         4    ;  uncertainty k = 0.256354
         3         2         6         7     9        0.000000       -1.673159         1    ;  uncertainty k = 1.570259
         3         2         6         7     9      180.000000        3.562313         2    ;  uncertainty k = 0.723179
         3         2         6         7     9        0.000000        0.138142         3    ;  uncertainty k = 0.370819
         3         2         6         7     9      180.000000        0.662784         4    ;  uncertainty k = 0.260872
         3         4         5         6     9        0.000000       -2.107341         1    ;  uncertainty k = 1.633444
         3         4         5         6     9      180.000000        9.569408         2    ;  uncertainty k = 0.567106
         3         4         5         6     9        0.000000       -1.783138         3    ;  uncertainty k = 0.403251
         3         4         5         6     9      180.000000        0.927977         4    ;  uncertainty k = 0.121193
         3         4         5        10     9        0.000000       -0.358544         1    ;  uncertainty k = 0.756637
         3         4         5        10     9      180.000000        2.392009         2    ;  uncertainty k = 0.572052
         3         4         5        10     9        0.000000        0.130586         3    ;  uncertainty k = 0.228072
         3         4         5        10     9      180.000000        0.633389         4    ;  uncertainty k = 0.116399
         4         3         2         6     9        0.000000       -0.261565         1    ;  uncertainty k = 1.818525
         4         3         2         6     9      180.000000        1.250530         2    ;  uncertainty k = 0.648866
         4         3         2         6     9        0.000000        0.090776         3    ;  uncertainty k = 0.275660
         4         3         2         6     9      180.000000       -0.055252         4    ;  uncertainty k = 0.266326
         4         3         2        30     9        0.000000       -0.827317         1    ;  uncertainty k = 0.603777
         4         3         2        30     9      180.000000        0.450456         2    ;  uncertainty k = 0.547082
         4         3         2        30     9        0.000000        0.144561         3    ;  uncertainty k = 0.273661
         4         3         2        30     9      180.000000       -0.113838         4    ;  uncertainty k = 0.222036
         4         5         6         7     9        0.000000        0.298296         1    ;  uncertainty k = 0.744054
         4         5         6         7     9      180.000000        8.870144         2    ;  uncertainty k = 0.522051
         4         5         6         7     9        0.000000        0.646047         3    ;  uncertainty k = 0.423740
         4         5         6         7     9      180.000000        1.202370         4    ;  uncertainty k = 0.224730
         4         5        10         9     9        0.000000        0.518459         1    ;  uncertainty k = 0.343130
         4         5        10         9     9      180.000000        6.344712         2    ;  uncertainty k = 0.275591
         4         5        10         9     9        0.000000        1.307764         3    ;  uncertainty k = 0.252094
         4         5        10         9     9      180.000000        1.607039         4    ;  uncertainty k = 0.311378
         4         5        10        11     9        0.000000       -0.257660         1    ;  uncertainty k = 0.669531
         4         5        10        11     9      180.000000        8.945578         2    ;  uncertainty k = 0.234197
         4         5        10        11     9        0.000000        1.031989         3    ;  uncertainty k = 0.243259
         4         5        10        11     9      180.000000        1.251300         4    ;  uncertainty k = 0.160527
         5         4         3        26     9        0.000000       -0.911684         1    ;  uncertainty k = 0.942710
         5         4         3        26     9      180.000000        0.727772         2    ;  uncertainty k = 0.486490
         5         4         3        26     9        0.000000        1.114750         3    ;  uncertainty k = 0.312374
         5         4         3        26     9      180.000000        0.251148         4    ;  uncertainty k = 0.035387
         5         4         3        27     9        0.000000       -0.911684         1    ;  uncertainty k = 0.942710
         5         4         3        27     9      180.000000        0.727772         2    ;  uncertainty k = 0.486490
         5         4         3        27     9        0.000000        1.114750         3    ;  uncertainty k = 0.312374
         5         4         3        27     9      180.000000        0.251148         4    ;  uncertainty k = 0.035387
         5         6         2        30     9        0.000000       -0.760214         1    ;  uncertainty k = 0.658938
         5         6         2        30     9      180.000000        3.226615         2    ;  uncertainty k = 0.727454
         5         6         2        30     9        0.000000        0.790680         3    ;  uncertainty k = 0.174907
         5         6         2        30     9      180.000000        0.223562         4    ;  uncertainty k = 0.140828
         5         6         7         8     9        0.000000       -0.340577         1    ;  uncertainty k = 0.541147
         5         6         7         8     9      180.000000       10.040703         2    ;  uncertainty k = 0.524497
         5         6         7         8     9        0.000000       -0.676298         3    ;  uncertainty k = 0.423585
         5         6         7         8     9      180.000000        0.871702         4    ;  uncertainty k = 0.245427
         5         6         7        20     9        0.000000        0.627748         1    ;  uncertainty k = 0.889788
         5         6         7        20     9      180.000000        8.020375         2    ;  uncertainty k = 0.913445
         5         6         7        20     9        0.000000        1.412632         3    ;  uncertainty k = 0.541062
         5         6         7        20     9      180.000000        1.624502         4    ;  uncertainty k = 0.250626
         5        10         9         8     9        0.000000        0.287156         1    ;  uncertainty k = 0.211362
         5        10         9         8     9      180.000000        9.019568         2    ;  uncertainty k = 0.394901
         5        10         9         8     9        0.000000        0.258542         3    ;  uncertainty k = 0.418096
         5        10         9         8     9      180.000000        1.323905         4    ;  uncertainty k = 0.309554
         5        10         9        34     9        0.000000        0.158717         1    ;  uncertainty k = 0.363089
         5        10         9        34     9      180.000000        6.833378         2    ;  uncertainty k = 0.494089
         5        10         9        34     9        0.000000        1.376457         3    ;  uncertainty k = 0.512680
         5        10         9        34     9      180.000000        1.599173         4    ;  uncertainty k = 0.100053
         5        10        11        12     9        0.000000        4.406622         1    ;  uncertainty k = 0.673853
         5        10        11        12     9      180.000000        4.923066         2    ;  uncertainty k = 0.276197
         5        10        11        12     9        0.000000        0.710107         3    ;  uncertainty k = 0.032223
         5        10        11        12     9      180.000000        0.153279         4    ;  uncertainty k = 0.078226
         6         2         1        29     9        0.000000       14.356372         1    ;  uncertainty k = 0.378293
         6         2         1        29     9      180.000000       -3.879969         2    ;  uncertainty k = 0.646583
         6         2         1        29     9        0.000000        1.017986         3    ;  uncertainty k = 0.166477
         6         2         1        29     9      180.000000        0.075934         4    ;  uncertainty k = 0.060629
         6         2         3        26     9        0.000000        0.087965         1    ;  uncertainty k = 1.040093
         6         2         3        26     9      180.000000        0.593782         2    ;  uncertainty k = 0.971166
         6         2         3        26     9        0.000000        0.922706         3    ;  uncertainty k = 0.180242
         6         2         3        26     9      180.000000        0.256322         4    ;  uncertainty k = 0.070584
         6         2         3        27     9        0.000000        0.087965         1    ;  uncertainty k = 1.040093
         6         2         3        27     9      180.000000        0.593782         2    ;  uncertainty k = 0.971166
         6         2         3        27     9        0.000000        0.922706         3    ;  uncertainty k = 0.180242
         6         2         3        27     9      180.000000        0.256322         4    ;  uncertainty k = 0.070584
         6         5         4        31     9        0.000000       -0.186948         1    ;  uncertainty k = 0.396030
         6         5         4        31     9      180.000000        1.719655         2    ;  uncertainty k = 0.330316
         6         5         4        31     9        0.000000        0.268349         3    ;  uncertainty k = 0.103203
         6         5         4        31     9      180.000000        0.226818         4    ;  uncertainty k = 0.104600
         6         5         4        32     9        0.000000       -0.186948         1    ;  uncertainty k = 0.396030
         6         5         4        32     9      180.000000        1.719655         2    ;  uncertainty k = 0.330316
         6         5         4        32     9        0.000000        0.268349         3    ;  uncertainty k = 0.103203
         6         5         4        32     9      180.000000        0.226818         4    ;  uncertainty k = 0.104600
         6         5        10         9     9        0.000000       -0.226040         1    ;  uncertainty k = 0.177823
         6         5        10         9     9      180.000000        8.211109         2    ;  uncertainty k = 0.567623
         6         5        10         9     9        0.000000       -0.428949         3    ;  uncertainty k = 0.452070
         6         5        10         9     9      180.000000        1.064643         4    ;  uncertainty k = 0.289450
         6         5        10        11     9        0.000000        0.011302         1    ;  uncertainty k = 0.246500
         6         5        10        11     9      180.000000        9.750737         2    ;  uncertainty k = 0.344466
         6         5        10        11     9        0.000000        1.386946         3    ;  uncertainty k = 0.261544
         6         5        10        11     9      180.000000        1.503377         4    ;  uncertainty k = 0.176882
         6         7         8         9     9        0.000000       -0.226947         1    ;  uncertainty k = 0.404292
         6         7         8         9     9      180.000000       10.314664         2    ;  uncertainty k = 0.587043
         6         7         8         9     9        0.000000       -0.330955         3    ;  uncertainty k = 0.465185
         6         7         8         9     9      180.000000        1.017660         4    ;  uncertainty k = 0.482669
         6         7         8        33     9        0.000000       -0.010302         1    ;  uncertainty k = 0.443253
         6         7         8        33     9      180.000000        7.414769         2    ;  uncertainty k = 0.590876
         6         7         8        33     9        0.000000        1.235409         3    ;  uncertainty k = 0.453819
         6         7         8        33     9      180.000000        1.590886         4    ;  uncertainty k = 0.078520
         6         7        20        21     9        0.000000       -2.153512         1    ;  uncertainty k = 2.129441
         6         7        20        21     9      180.000000        0.900499         2    ;  uncertainty k = 0.553458
         6         7        20        21     9        0.000000        0.424678         3    ;  uncertainty k = 0.280730
         6         7        20        21     9      180.000000       -0.005323         4    ;  uncertainty k = 0.204672
         6         7        20        22     9        0.000000       -2.153512         1    ;  uncertainty k = 2.129441
         6         7        20        22     9      180.000000        0.900499         2    ;  uncertainty k = 0.553458
         6         7        20        22     9        0.000000        0.424678         3    ;  uncertainty k = 0.280730
         6         7        20        22     9      180.000000       -0.005323         4    ;  uncertainty k = 0.204672
         6         7        20        23     9        0.000000        2.161405         1    ;  uncertainty k = 2.075161
         6         7        20        23     9      180.000000       -0.581943         2    ;  uncertainty k = 0.486064
         6         7        20        23     9        0.000000        0.252313         3    ;  uncertainty k = 0.308742
         6         7        20        23     9      180.000000        0.268466         4    ;  uncertainty k = 0.152262
         7         6         2        30     9        0.000000        1.507443         1    ;  uncertainty k = 0.697949
         7         6         2        30     9      180.000000        2.145621         2    ;  uncertainty k = 0.614276
         7         6         2        30     9        0.000000       -0.092308         3    ;  uncertainty k = 0.094693
         7         6         2        30     9      180.000000        0.183518         4    ;  uncertainty k = 0.174580
         7         6         5        10     9        0.000000        0.028326         1    ;  uncertainty k = 0.622297
         7         6         5        10     9      180.000000        8.379210         2    ;  uncertainty k = 0.318180
         7         6         5        10     9        0.000000        0.099207         3    ;  uncertainty k = 0.253796
         7         6         5        10     9      180.000000        1.143346         4    ;  uncertainty k = 0.283800
         7         8         9        10     9        0.000000        0.095550         1    ;  uncertainty k = 0.384125
         7         8         9        10     9      180.000000       12.128433         2    ;  uncertainty k = 0.434566
         7         8         9        10     9        0.000000       -0.869409         3    ;  uncertainty k = 0.646322
         7         8         9        10     9      180.000000        0.877380         4    ;  uncertainty k = 0.389393
         7         8         9        34     9        0.000000       -0.043885         1    ;  uncertainty k = 0.454486
         7         8         9        34     9      180.000000        8.355380         2    ;  uncertainty k = 0.252444
         7         8         9        34     9        0.000000        1.196734         3    ;  uncertainty k = 0.243667
         7         8         9        34     9      180.000000        1.698049         4    ;  uncertainty k = 0.125988
         7        20        23        24     9        0.000000        1.441309         1    ;  uncertainty k = 0.924177
         7        20        23        24     9      180.000000       -1.205125         2    ;  uncertainty k = 0.344521
         7        20        23        24     9        0.000000        0.330592         3    ;  uncertainty k = 0.328898
         7        20        23        24     9      180.000000       -0.139189         4    ;  uncertainty k = 0.235318
         7        20        23        25     9        0.000000        1.441309         1    ;  uncertainty k = 0.924177
         7        20        23        25     9      180.000000       -1.205125         2    ;  uncertainty k = 0.344521
         7        20        23        25     9        0.000000        0.330592         3    ;  uncertainty k = 0.328898
         7        20        23        25     9      180.000000       -0.139189         4    ;  uncertainty k = 0.235318
         7        20        23        38     9        0.000000        1.359243         1    ;  uncertainty k = 0.473485
         7        20        23        38     9      180.000000       -1.456803         2    ;  uncertainty k = 0.903688
         7        20        23        38     9        0.000000        0.113912         3    ;  uncertainty k = 0.245910
         7        20        23        38     9      180.000000       -0.148458         4    ;  uncertainty k = 0.185857
         8         7        20        21     9        0.000000       -1.511816         1    ;  uncertainty k = 0.903397
         8         7        20        21     9      180.000000        1.089544         2    ;  uncertainty k = 0.911583
         8         7        20        21     9        0.000000        0.214062         3    ;  uncertainty k = 0.293667
         8         7        20        21     9      180.000000        0.000729         4    ;  uncertainty k = 0.222476
         8         7        20        22     9        0.000000       -1.511816         1    ;  uncertainty k = 0.903397
         8         7        20        22     9      180.000000        1.089544         2    ;  uncertainty k = 0.911583
         8         7        20        22     9        0.000000        0.214062         3    ;  uncertainty k = 0.293667
         8         7        20        22     9      180.000000        0.000729         4    ;  uncertainty k = 0.222476
         8         7        20        23     9        0.000000        2.274325         1    ;  uncertainty k = 0.971944
         8         7        20        23     9      180.000000        0.070060         2    ;  uncertainty k = 0.515222
         8         7        20        23     9        0.000000        0.131595         3    ;  uncertainty k = 0.603000
         8         7        20        23     9      180.000000        0.251058         4    ;  uncertainty k = 0.142822
         8         9        10        11     9        0.000000       -0.027258         1    ;  uncertainty k = 0.298633
         8         9        10        11     9      180.000000       10.945151         2    ;  uncertainty k = 0.478021
         8         9        10        11     9        0.000000        1.486903         3    ;  uncertainty k = 0.300035
         8         9        10        11     9      180.000000        1.727475         4    ;  uncertainty k = 0.247797
         9         8         7        20     9        0.000000        0.478818         1    ;  uncertainty k = 0.278926
         9         8         7        20     9      180.000000        8.878854         2    ;  uncertainty k = 0.540055
         9         8         7        20     9        0.000000        1.355362         3    ;  uncertainty k = 0.342113
         9         8         7        20     9      180.000000        1.866266         4    ;  uncertainty k = 0.148778
         9        10        11        12     9        0.000000        5.025463         1    ;  uncertainty k = 0.401377
         9        10        11        12     9      180.000000        5.549552         2    ;  uncertainty k = 0.166981
         9        10        11        12     9        0.000000        0.362215         3    ;  uncertainty k = 0.094990
         9        10        11        12     9      180.000000        0.190778         4    ;  uncertainty k = 0.085737
        10         5         4        31     9        0.000000        0.663847         1    ;  uncertainty k = 0.191361
        10         5         4        31     9      180.000000        1.639551         2    ;  uncertainty k = 0.602386
        10         5         4        31     9        0.000000        0.155149         3    ;  uncertainty k = 0.250583
        10         5         4        31     9      180.000000        0.226015         4    ;  uncertainty k = 0.144143
        10         5         4        32     9        0.000000        0.663847         1    ;  uncertainty k = 0.191361
        10         5         4        32     9      180.000000        1.639551         2    ;  uncertainty k = 0.602386
        10         5         4        32     9        0.000000        0.155149         3    ;  uncertainty k = 0.250583
        10         5         4        32     9      180.000000        0.226015         4    ;  uncertainty k = 0.144143
        10         9         8        33     9        0.000000       -0.108610         1    ;  uncertainty k = 0.345518
        10         9         8        33     9      180.000000        7.858218         2    ;  uncertainty k = 0.142346
        10         9         8        33     9        0.000000        1.060268         3    ;  uncertainty k = 0.220028
        10         9         8        33     9      180.000000        1.722126         4    ;  uncertainty k = 0.063147
        10        11        12        13     9        0.000000        4.215533         1    ;  uncertainty k = 0.350421
        10        11        12        13     9      180.000000        5.366357         2    ;  uncertainty k = 0.291064
        10        11        12        13     9        0.000000        0.432025         3    ;  uncertainty k = 0.135129
        10        11        12        13     9      180.000000        0.162533         4    ;  uncertainty k = 0.097194
        10        11        12        19     9        0.000000        4.241893         1    ;  uncertainty k = 0.379468
        10        11        12        19     9      180.000000        5.622853         2    ;  uncertainty k = 0.281623
        10        11        12        19     9        0.000000        0.386448         3    ;  uncertainty k = 0.154755
        10        11        12        19     9      180.000000        0.145124         4    ;  uncertainty k = 0.118699
        11        10         9        34     9        0.000000       -0.033482         1    ;  uncertainty k = 0.158654
        11        10         9        34     9      180.000000        9.066410         2    ;  uncertainty k = 0.360435
        11        10         9        34     9        0.000000        0.847939         3    ;  uncertainty k = 0.229120
        11        10         9        34     9      180.000000        1.131253         4    ;  uncertainty k = 0.138248
        11        12        13        14     9        0.000000        0.110616         1    ;  uncertainty k = 0.280260
        11        12        13        14     9      180.000000       10.825049         2    ;  uncertainty k = 0.268023
        11        12        13        14     9        0.000000        1.291452         3    ;  uncertainty k = 0.181954
        11        12        13        14     9      180.000000        1.601789         4    ;  uncertainty k = 0.123424
        11        12        13        35     9        0.000000       -0.096546         1    ;  uncertainty k = 0.131039
        11        12        13        35     9      180.000000        8.372996         2    ;  uncertainty k = 0.282068
        11        12        13        35     9        0.000000        0.828749         3    ;  uncertainty k = 0.203572
        11        12        13        35     9      180.000000        1.093044         4    ;  uncertainty k = 0.104496
        11        12        19        17     9        0.000000       -0.066703         1    ;  uncertainty k = 0.256317
        11        12        19        17     9      180.000000       11.317502         2    ;  uncertainty k = 0.454829
        11        12        19        17     9        0.000000        1.188762         3    ;  uncertainty k = 0.073630
        11        12        19        17     9      180.000000        1.617869         4    ;  uncertainty k = 0.138905
        11        12        19        37     9        0.000000        0.114391         1    ;  uncertainty k = 0.181010
        11        12        19        37     9      180.000000        8.496717         2    ;  uncertainty k = 0.306846
        11        12        19        37     9        0.000000        0.848986         3    ;  uncertainty k = 0.295991
        11        12        19        37     9      180.000000        1.147922         4    ;  uncertainty k = 0.169207
        12        13        14        15     9        0.000000        0.029267         1    ;  uncertainty k = 0.076351
        12        13        14        15     9      180.000000       12.681220         2    ;  uncertainty k = 0.591249
        12        13        14        15     9        0.000000        1.486062         3    ;  uncertainty k = 0.376399
        12        13        14        15     9      180.000000        1.475435         4    ;  uncertainty k = 0.279101
        12        13        14        16     9        0.000000       -0.041312         1    ;  uncertainty k = 0.166168
        12        13        14        16     9      180.000000        8.711743         2    ;  uncertainty k = 0.535595
        12        13        14        16     9        0.000000        0.058226         3    ;  uncertainty k = 0.483440
        12        13        14        16     9      180.000000        1.296510         4    ;  uncertainty k = 0.287570
        12        19        17        16     9        0.000000       -0.126135         1    ;  uncertainty k = 0.335758
        12        19        17        16     9      180.000000       11.543728         2    ;  uncertainty k = 0.211528
        12        19        17        16     9        0.000000       -0.409273         3    ;  uncertainty k = 0.525587
        12        19        17        16     9      180.000000        1.114605         4    ;  uncertainty k = 0.265123
        12        19        17        18     9        0.000000        0.008933         1    ;  uncertainty k = 0.224406
        12        19        17        18     9      180.000000       10.110912         2    ;  uncertainty k = 0.333390
        12        19        17        18     9        0.000000        1.306913         3    ;  uncertainty k = 0.264685
        12        19        17        18     9      180.000000        1.637563         4    ;  uncertainty k = 0.199965
        13        12        19        17     9        0.000000       -0.051322         1    ;  uncertainty k = 0.175220
        13        12        19        17     9      180.000000        9.609478         2    ;  uncertainty k = 0.403633
        13        12        19        17     9        0.000000        0.176055         3    ;  uncertainty k = 0.389800
        13        12        19        17     9      180.000000        1.259071         4    ;  uncertainty k = 0.358591
        13        12        19        37     9        0.000000        0.319861         1    ;  uncertainty k = 0.231991
        13        12        19        37     9      180.000000        6.318270         2    ;  uncertainty k = 0.750341
        13        12        19        37     9        0.000000        1.465273         3    ;  uncertainty k = 0.273057
        13        12        19        37     9      180.000000        1.603175         4    ;  uncertainty k = 0.165843
        13        14        16        17     9        0.000000       -0.019167         1    ;  uncertainty k = 0.236218
        13        14        16        17     9      180.000000        9.329732         2    ;  uncertainty k = 0.304985
        13        14        16        17     9        0.000000        0.099008         3    ;  uncertainty k = 0.304607
        13        14        16        17     9      180.000000        1.274852         4    ;  uncertainty k = 0.274241
        13        14        16        36     9        0.000000       -0.000593         1    ;  uncertainty k = 0.199602
        13        14        16        36     9      180.000000        5.887325         2    ;  uncertainty k = 0.750109
        13        14        16        36     9        0.000000        1.321078         3    ;  uncertainty k = 0.278410
        13        14        16        36     9      180.000000        1.516102         4    ;  uncertainty k = 0.088176
        14        13        12        19     9        0.000000        0.083575         1    ;  uncertainty k = 0.184356
        14        13        12        19     9      180.000000        9.069038         2    ;  uncertainty k = 0.673942
        14        13        12        19     9        0.000000        0.004877         3    ;  uncertainty k = 0.505260
        14        13        12        19     9      180.000000        1.219759         4    ;  uncertainty k = 0.386904
        14        16        17        18     9        0.000000        0.042737         1    ;  uncertainty k = 0.291483
        14        16        17        18     9      180.000000        9.815526         2    ;  uncertainty k = 0.311825
        14        16        17        18     9        0.000000        1.325513         3    ;  uncertainty k = 0.249458
        14        16        17        18     9      180.000000        1.659796         4    ;  uncertainty k = 0.165102
        14        16        17        19     9        0.000000       -0.093634         1    ;  uncertainty k = 0.287446
        14        16        17        19     9      180.000000       11.524169         2    ;  uncertainty k = 0.474663
        14        16        17        19     9        0.000000       -0.540684         3    ;  uncertainty k = 0.386751
        14        16        17        19     9      180.000000        1.065656         4    ;  uncertainty k = 0.270989
        15        14        13        35     9        0.000000       -0.266165         1    ;  uncertainty k = 0.229666
        15        14        13        35     9      180.000000        8.750384         2    ;  uncertainty k = 0.391886
        15        14        13        35     9        0.000000        0.839204         3    ;  uncertainty k = 0.231015
        15        14        13        35     9      180.000000        1.056841         4    ;  uncertainty k = 0.208951
        15        14        16        17     9        0.000000       -0.039623         1    ;  uncertainty k = 0.207167
        15        14        16        17     9      180.000000       13.467148         2    ;  uncertainty k = 0.458195
        15        14        16        17     9        0.000000        1.330325         3    ;  uncertainty k = 0.272641
        15        14        16        17     9      180.000000        1.408183         4    ;  uncertainty k = 0.220523
        15        14        16        36     9        0.000000       -0.317019         1    ;  uncertainty k = 0.306342
        15        14        16        36     9      180.000000        8.994255         2    ;  uncertainty k = 0.352455
        15        14        16        36     9        0.000000        0.799840         3    ;  uncertainty k = 0.209801
        15        14        16        36     9      180.000000        1.001169         4    ;  uncertainty k = 0.172439
        16        14        13        35     9        0.000000        0.117728         1    ;  uncertainty k = 0.152876
        16        14        13        35     9      180.000000        5.739162         2    ;  uncertainty k = 0.725581
        16        14        13        35     9        0.000000        1.354805         3    ;  uncertainty k = 0.319905
        16        14        13        35     9      180.000000        1.531360         4    ;  uncertainty k = 0.102992
        16        17        18        28     9        0.000000        0.000000         1    ;  uncertainty k = 0.000000
        16        17        18        28     9      180.000000        0.000000         2    ;  uncertainty k = 0.000000
        16        17        18        28     9        0.000000        0.000000         3    ;  uncertainty k = 0.000000
        16        17        18        28     9      180.000000        0.000000         4    ;  uncertainty k = 0.000000
        16        17        19        37     9        0.000000        0.266901         1    ;  uncertainty k = 0.392933
        16        17        19        37     9      180.000000        6.702181         2    ;  uncertainty k = 0.686766
        16        17        19        37     9        0.000000        1.492380         3    ;  uncertainty k = 0.274536
        16        17        19        37     9      180.000000        1.680830         4    ;  uncertainty k = 0.134103
        18        17        16        36     9        0.000000       -0.401280         1    ;  uncertainty k = 0.467937
        18        17        16        36     9      180.000000        7.099068         2    ;  uncertainty k = 0.224071
        18        17        16        36     9        0.000000        0.520905         3    ;  uncertainty k = 0.112594
        18        17        16        36     9      180.000000        0.955860         4    ;  uncertainty k = 0.230500
        18        17        19        37     9        0.000000       -0.303371         1    ;  uncertainty k = 0.311612
        18        17        19        37     9      180.000000        7.433399         2    ;  uncertainty k = 0.295932
        18        17        19        37     9        0.000000        0.543142         3    ;  uncertainty k = 0.139134
        18        17        19        37     9      180.000000        0.967541         4    ;  uncertainty k = 0.213771
        19        12        13        35     9        0.000000        0.238077         1    ;  uncertainty k = 0.231773
        19        12        13        35     9      180.000000        5.993858         2    ;  uncertainty k = 0.765201
        19        12        13        35     9        0.000000        1.476771         3    ;  uncertainty k = 0.368309
        19        12        13        35     9      180.000000        1.569369         4    ;  uncertainty k = 0.131184
        19        17        16        36     9        0.000000        0.157284         1    ;  uncertainty k = 0.536677
        19        17        16        36     9      180.000000        6.651379         2    ;  uncertainty k = 0.604357
        19        17        16        36     9        0.000000        1.457227         3    ;  uncertainty k = 0.366961
        19        17        16        36     9      180.000000        1.599688         4    ;  uncertainty k = 0.107457
        19        17        18        28     9        0.000000        0.000000         1    ;  uncertainty k = 0.000000
        19        17        18        28     9      180.000000        0.000000         2    ;  uncertainty k = 0.000000
        19        17        18        28     9        0.000000        0.000000         3    ;  uncertainty k = 0.000000
        19        17        18        28     9      180.000000        0.000000         4    ;  uncertainty k = 0.000000
        20         7         8        33     9        0.000000       -0.313535         1    ;  uncertainty k = 0.369075
        20         7         8        33     9      180.000000        6.632871         2    ;  uncertainty k = 0.416125
        20         7         8        33     9        0.000000        0.819053         3    ;  uncertainty k = 0.191711
        20         7         8        33     9      180.000000        1.198579         4    ;  uncertainty k = 0.185303
        21        20        23        24     9        0.000000        0.866315         1    ;  uncertainty k = 0.447985
        21        20        23        24     9      180.000000        0.207300         2    ;  uncertainty k = 0.372008
        21        20        23        24     9        0.000000        0.562711         3    ;  uncertainty k = 0.310237
        21        20        23        24     9      180.000000       -0.021132         4    ;  uncertainty k = 0.176620
        21        20        23        25     9        0.000000        0.866315         1    ;  uncertainty k = 0.447985
        21        20        23        25     9      180.000000        0.207300         2    ;  uncertainty k = 0.372008
        21        20        23        25     9        0.000000        0.562711         3    ;  uncertainty k = 0.310237
        21        20        23        25     9      180.000000       -0.021132         4    ;  uncertainty k = 0.176620
        21        20        23        38     9        0.000000        0.040597         1    ;  uncertainty k = 0.552982
        21        20        23        38     9      180.000000       -0.240104         2    ;  uncertainty k = 0.195524
        21        20        23        38     9        0.000000        0.226848         3    ;  uncertainty k = 0.136800
        21        20        23        38     9      180.000000       -0.103279         4    ;  uncertainty k = 0.122284
        22        20        23        24     9        0.000000        0.866315         1    ;  uncertainty k = 0.447985
        22        20        23        24     9      180.000000        0.207300         2    ;  uncertainty k = 0.372008
        22        20        23        24     9        0.000000        0.562711         3    ;  uncertainty k = 0.310237
        22        20        23        24     9      180.000000       -0.021132         4    ;  uncertainty k = 0.176620
        22        20        23        25     9        0.000000        0.866315         1    ;  uncertainty k = 0.447985
        22        20        23        25     9      180.000000        0.207300         2    ;  uncertainty k = 0.372008
        22        20        23        25     9        0.000000        0.562711         3    ;  uncertainty k = 0.310237
        22        20        23        25     9      180.000000       -0.021132         4    ;  uncertainty k = 0.176620
        22        20        23        38     9        0.000000        0.040597         1    ;  uncertainty k = 0.552982
        22        20        23        38     9      180.000000       -0.240104         2    ;  uncertainty k = 0.195524
        22        20        23        38     9        0.000000        0.226848         3    ;  uncertainty k = 0.136800
        22        20        23        38     9      180.000000       -0.103279         4    ;  uncertainty k = 0.122284
        26         3         2        30     9        0.000000        0.263490         1    ;  uncertainty k = 0.330046
        26         3         2        30     9      180.000000       -0.590095         2    ;  uncertainty k = 0.306729
        26         3         2        30     9        0.000000        0.721400         3    ;  uncertainty k = 0.176946
        26         3         2        30     9      180.000000        0.079587         4    ;  uncertainty k = 0.136498
        26         3         4        31     9        0.000000        0.273367         1    ;  uncertainty k = 0.288473
        26         3         4        31     9      180.000000       -0.700448         2    ;  uncertainty k = 0.314492
        26         3         4        31     9        0.000000        0.866670         3    ;  uncertainty k = 0.217754
        26         3         4        31     9      180.000000        0.036836         4    ;  uncertainty k = 0.054095
        26         3         4        32     9        0.000000        0.273367         1    ;  uncertainty k = 0.288473
        26         3         4        32     9      180.000000       -0.700448         2    ;  uncertainty k = 0.314492
        26         3         4        32     9        0.000000        0.866670         3    ;  uncertainty k = 0.217754
        26         3         4        32     9      180.000000        0.036836         4    ;  uncertainty k = 0.054095
        27         3         2        30     9        0.000000        0.263490         1    ;  uncertainty k = 0.330046
        27         3         2        30     9      180.000000       -0.590095         2    ;  uncertainty k = 0.306729
        27         3         2        30     9        0.000000        0.721400         3    ;  uncertainty k = 0.176946
        27         3         2        30     9      180.000000        0.079587         4    ;  uncertainty k = 0.136498
        27         3         4        31     9        0.000000        0.273367         1    ;  uncertainty k = 0.288473
        27         3         4        31     9      180.000000       -0.700448         2    ;  uncertainty k = 0.314492
        27         3         4        31     9        0.000000        0.866670         3    ;  uncertainty k = 0.217754
        27         3         4        31     9      180.000000        0.036836         4    ;  uncertainty k = 0.054095
        27         3         4        32     9        0.000000        0.273367         1    ;  uncertainty k = 0.288473
        27         3         4        32     9      180.000000       -0.700448         2    ;  uncertainty k = 0.314492
        27         3         4        32     9        0.000000        0.866670         3    ;  uncertainty k = 0.217754
        27         3         4        32     9      180.000000        0.036836         4    ;  uncertainty k = 0.054095
        29         1         2        30     9        0.000000       11.846444         1    ;  uncertainty k = 0.691990
        29         1         2        30     9      180.000000       -0.796076         2    ;  uncertainty k = 0.286325
        29         1         2        30     9        0.000000        0.793237         3    ;  uncertainty k = 0.211936
        29         1         2        30     9      180.000000        0.184424         4    ;  uncertainty k = 0.129099
        33         8         9        34     9        0.000000       -0.148180         1    ;  uncertainty k = 0.424417
        33         8         9        34     9      180.000000        7.608203         2    ;  uncertainty k = 0.385312
        33         8         9        34     9        0.000000       -0.327533         3    ;  uncertainty k = 0.307859
        33         8         9        34     9      180.000000        0.270460         4    ;  uncertainty k = 0.108533

[ dihedrals ] ; impropers
;       ai        aj        ak        al funct           phase               k        pn
         5         4         6        10     4      180.000000        5.386754         2    ;  uncertainty k = 0.344468
         5         6        10         4     4      180.000000        5.386754         2    ;  uncertainty k = 0.344468
         5        10         4         6     4      180.000000        5.386754         2    ;  uncertainty k = 0.344468
         6         2         5         7     4      180.000000        6.199994         2    ;  uncertainty k = 0.188288
         6         5         7         2     4      180.000000        6.199994         2    ;  uncertainty k = 0.188288
         6         7         2         5     4      180.000000        6.199994         2    ;  uncertainty k = 0.188288
         7         6         8        20     4      180.000000        4.719751         2    ;  uncertainty k = 0.474877
         7         8        20         6     4      180.000000        4.719751         2    ;  uncertainty k = 0.474877
         7        20         6         8     4      180.000000        4.719751         2    ;  uncertainty k = 0.474877
         8         7         9        33     4      180.000000        5.256765         2    ;  uncertainty k = 0.201357
         8         9        33         7     4      180.000000        5.256765         2    ;  uncertainty k = 0.201357
         8        33         7         9     4      180.000000        5.256765         2    ;  uncertainty k = 0.201357
         9         8        10        34     4      180.000000        2.008911         2    ;  uncertainty k = 0.112183
         9        10        34         8     4      180.000000        2.008911         2    ;  uncertainty k = 0.112183
         9        34         8        10     4      180.000000        2.008911         2    ;  uncertainty k = 0.112183
        10         5         9        11     4      180.000000       17.483785         2    ;  uncertainty k = 0.095984
        10         9        11         5     4      180.000000       17.483785         2    ;  uncertainty k = 0.095984
        10        11         5         9     4      180.000000       17.483785         2    ;  uncertainty k = 0.095984
        12        11        13        19     4      180.000000       19.053422         2    ;  uncertainty k = 0.038066
        12        13        19        11     4      180.000000       19.053422         2    ;  uncertainty k = 0.038066
        12        19        11        13     4      180.000000       19.053422         2    ;  uncertainty k = 0.038066
        13        12        14        35     4      180.000000        1.848818         2    ;  uncertainty k = 0.255047
        13        14        35        12     4      180.000000        1.848818         2    ;  uncertainty k = 0.255047
        13        35        12        14     4      180.000000        1.848818         2    ;  uncertainty k = 0.255047
        14        13        15        16     4      180.000000       17.880537         2    ;  uncertainty k = 0.047509
        14        15        16        13     4      180.000000       17.880537         2    ;  uncertainty k = 0.047509
        14        16        13        15     4      180.000000       17.880537         2    ;  uncertainty k = 0.047509
        16        14        17        36     4      180.000000        2.461655         2    ;  uncertainty k = 0.340230
        16        17        36        14     4      180.000000        2.461655         2    ;  uncertainty k = 0.340230
        16        36        14        17     4      180.000000        2.461655         2    ;  uncertainty k = 0.340230
        17        16        18        19     4      180.000000       11.727372         2    ;  uncertainty k = 0.187314
        17        18        19        16     4      180.000000       11.727372         2    ;  uncertainty k = 0.187314
        17        19        16        18     4      180.000000       11.727372         2    ;  uncertainty k = 0.187314
        19        12        17        37     4      180.000000        2.852757         2    ;  uncertainty k = 0.269075
        19        17        37        12     4      180.000000        2.852757         2    ;  uncertainty k = 0.269075
        19        37        12        17     4      180.000000        2.852757         2    ;  uncertainty k = 0.269075

[ pairs ]
;       ai        aj funct
         1         4     1
         1         5     1
         1         7     1
         1        26     1
         1        27     1
         2         8     1
         2        10     1
         2        20     1
         2        31     1
         2        32     1
         3         7     1
         3        10     1
         3        29     1
         4         7     1
         4         9     1
         4        11     1
         4        30     1
         5         8     1
         5        12     1
         5        20     1
         5        26     1
         5        27     1
         5        30     1
         5        34     1
         6         9     1
         6        11     1
         6        21     1
         6        22     1
         6        23     1
         6        26     1
         6        27     1
         6        29     1
         6        31     1
         6        32     1
         6        33     1
         7        10     1
         7        24     1
         7        25     1
         7        30     1
         7        34     1
         7        38     1
         8        11     1
         8        21     1
         8        22     1
         8        23     1
         9        12     1
         9        20     1
        10        13     1
        10        19     1
        10        31     1
        10        32     1
        10        33     1
        11        14     1
        11        17     1
        11        34     1
        11        35     1
        11        37     1
        12        15     1
        12        16     1
        12        18     1
        13        17     1
        13        36     1
        13        37     1
        14        18     1
        14        19     1
        15        17     1
        15        35     1
        15        36     1
        16        28     1
        16        35     1
        16        37     1
        18        36     1
        18        37     1
        19        28     1
        19        35     1
        19        36     1
        20        33     1
        21        24     1
        21        25     1
        21        38     1
        22        24     1
        22        25     1
        22        38     1
        26        30     1
        26        31     1
        26        32     1
        27        30     1
        27        31     1
        27        32     1
        29        30     1
        33        34     1
