; ITP file created by ByteFF-joint-25, 2026-02-17 09:18:01.558050

[ atomtypes ]
;name           bonded.type        at.num        mass        charge   ptype           sigma         epsilon
 o0bf                                   8      0.0000       0.00000       A     3.24330e-01     3.89311e-01    ;  uncertainty sigma = 0.000018, epsilon = 0.001661
 c1bf                                   6      0.0000       0.00000       A     3.39703e-01     4.51586e-01    ;  uncertainty sigma = 0.000021, epsilon = 0.001556
 c2bf                                   6      0.0000       0.00000       A     3.39773e-01     4.50315e-01    ;  uncertainty sigma = 0.000014, epsilon = 0.000914
 c3bf                                   6      0.0000       0.00000       A     3.39746e-01     4.50556e-01    ;  uncertainty sigma = 0.000010, epsilon = 0.000500
 c4bf                                   6      0.0000       0.00000       A     3.31554e-01     4.13563e-01    ;  uncertainty sigma = 0.000006, epsilon = 0.000820
 c5bf                                   6      0.0000       0.00000       A     3.31572e-01     4.12464e-01    ;  uncertainty sigma = 0.000028, epsilon = 0.001235
 c6bf                                   6      0.0000       0.00000       A     3.31547e-01     4.12884e-01    ;  uncertainty sigma = 0.000019, epsilon = 0.002001
 c7bf                                   6      0.0000       0.00000       A     3.31488e-01     4.13281e-01    ;  uncertainty sigma = 0.000016, epsilon = 0.000289
 c8bf                                   6      0.0000       0.00000       A     3.31528e-01     4.13628e-01    ;  uncertainty sigma = 0.000009, epsilon = 0.000546
 c9bf                                   6      0.0000       0.00000       A     3.31530e-01     4.13165e-01    ;  uncertainty sigma = 0.000014, epsilon = 0.000565
 o10bf                                  8      0.0000       0.00000       A     3.15560e-01     3.01903e-01    ;  uncertainty sigma = 0.000035, epsilon = 0.001496
 c11bf                                  6      0.0000       0.00000       A     3.31495e-01     4.13941e-01    ;  uncertainty sigma = 0.000010, epsilon = 0.001010
 c12bf                                  6      0.0000       0.00000       A     3.31520e-01     4.13586e-01    ;  uncertainty sigma = 0.000002, epsilon = 0.000805
 c13bf                                  6      0.0000       0.00000       A     3.31497e-01     4.13352e-01    ;  uncertainty sigma = 0.000008, epsilon = 0.000492
 c14bf                                  6      0.0000       0.00000       A     3.31510e-01     4.13401e-01    ;  uncertainty sigma = 0.000009, epsilon = 0.000546
 c15bf                                  6      0.0000       0.00000       A     3.31508e-01     4.13715e-01    ;  uncertainty sigma = 0.000016, epsilon = 0.000826
 c16bf                                  6      0.0000       0.00000       A     3.47927e-01     6.68045e-01    ;  uncertainty sigma = 0.000023, epsilon = 0.001608
 c17bf                                  6      0.0000       0.00000       A     3.31520e-01     4.13321e-01    ;  uncertainty sigma = 0.000008, epsilon = 0.000748
 s18bf                                 16      0.0000       0.00000       A     4.05952e-01     2.57052e-01    ;  uncertainty sigma = 0.000036, epsilon = 0.005064
 o19bf                                  8      0.0000       0.00000       A     3.04753e-01     6.10946e-01    ;  uncertainty sigma = 0.000057, epsilon = 0.002055
 o20bf                                  8      0.0000       0.00000       A     3.04753e-01     6.10946e-01    ;  uncertainty sigma = 0.000057, epsilon = 0.002055
 c21bf                                  6      0.0000       0.00000       A     3.39859e-01     4.51367e-01    ;  uncertainty sigma = 0.000048, epsilon = 0.003815
 f22bf                                  9      0.0000       0.00000       A     3.03556e-01     3.47331e-01    ;  uncertainty sigma = 0.000038, epsilon = 0.002391
 f23bf                                  9      0.0000       0.00000       A     3.03556e-01     3.47331e-01    ;  uncertainty sigma = 0.000038, epsilon = 0.002391
 n24bf                                  7      0.0000       0.00000       A     3.27375e-01     4.59084e-01    ;  uncertainty sigma = 0.000021, epsilon = 0.000492
 f25bf                                  9      0.0000       0.00000       A     3.03420e-01     3.47893e-01    ;  uncertainty sigma = 0.000010, epsilon = 0.000765
 h26bf                                  1      0.0000       0.00000       A     5.37915e-02     1.95462e-02    ;  uncertainty sigma = 0.000136, epsilon = 0.000884
 h27bf                                  1      0.0000       0.00000       A     2.42240e-01     8.61663e-02    ;  uncertainty sigma = 0.000028, epsilon = 0.001739
 h28bf                                  1      0.0000       0.00000       A     2.60017e-01     8.68074e-02    ;  uncertainty sigma = 0.000016, epsilon = 0.000716
 h29bf                                  1      0.0000       0.00000       A     2.60017e-01     8.68074e-02    ;  uncertainty sigma = 0.000016, epsilon = 0.000716
 h30bf                                  1      0.0000       0.00000       A     2.60038e-01     8.69412e-02    ;  uncertainty sigma = 0.000014, epsilon = 0.000529
 h31bf                                  1      0.0000       0.00000       A     2.60038e-01     8.69412e-02    ;  uncertainty sigma = 0.000014, epsilon = 0.000529
 h32bf                                  1      0.0000       0.00000       A     2.62567e-01     6.72430e-02    ;  uncertainty sigma = 0.000020, epsilon = 0.000765
 h33bf                                  1      0.0000       0.00000       A     2.62556e-01     6.70855e-02    ;  uncertainty sigma = 0.000006, epsilon = 0.000381
 h34bf                                  1      0.0000       0.00000       A     2.62552e-01     6.72490e-02    ;  uncertainty sigma = 0.000007, epsilon = 0.000350
 h35bf                                  1      0.0000       0.00000       A     2.62545e-01     6.70250e-02    ;  uncertainty sigma = 0.000017, epsilon = 0.000507
 h36bf                                  1      0.0000       0.00000       A     2.62547e-01     6.71166e-02    ;  uncertainty sigma = 0.000014, epsilon = 0.000743
 h37bf                                  1      0.0000       0.00000       A     2.06486e-01     8.66134e-02    ;  uncertainty sigma = 0.000324, epsilon = 0.003096

[ moleculetype ]
;name             nrexcl
 MOL                   3

[ atoms ]
;       nr            type      resi   res      atom      cgnr      charge          mass ; qtot
         1            o0bf         1   UNL        o0         1    -0.59206       15.9990 ; qtot   -0.592
         2            c1bf         1   UNL        c1         2     0.18404       12.0110 ; qtot   -0.408
         3            c2bf         1   UNL        c2         3    -0.09696       12.0110 ; qtot   -0.505
         4            c3bf         1   UNL        c3         4    -0.02413       12.0110 ; qtot   -0.529
         5            c4bf         1   UNL        c4         5    -0.10181       12.0110 ; qtot   -0.631
         6            c5bf         1   UNL        c5         6     0.00726       12.0110 ; qtot   -0.624
         7            c6bf         1   UNL        c6         7    -0.22515       12.0110 ; qtot   -0.849
         8            c7bf         1   UNL        c7         8    -0.00134       12.0110 ; qtot   -0.850
         9            c8bf         1   UNL        c8         9    -0.17811       12.0110 ; qtot   -1.028
        10            c9bf         1   UNL        c9        10     0.15603       12.0110 ; qtot   -0.872
        11           o10bf         1   UNL       o10        11    -0.24772       15.9990 ; qtot   -1.120
        12           c11bf         1   UNL       c11        12     0.15098       12.0110 ; qtot   -0.969
        13           c12bf         1   UNL       c12        13    -0.18271       12.0110 ; qtot   -1.152
        14           c13bf         1   UNL       c13        14     0.15843       12.0110 ; qtot   -0.993
        15           c14bf         1   UNL       c14        15    -0.15485       12.0110 ; qtot   -1.148
        16           c15bf         1   UNL       c15        16     0.03943       12.0110 ; qtot   -1.109
        17           c16bf         1   UNL       c16        17     0.22805       12.0110 ; qtot   -0.881
        18           c17bf         1   UNL       c17        18    -0.13883       12.0110 ; qtot   -1.019
        19           s18bf         1   UNL       s18        19     0.94928       32.0670 ; qtot   -0.070
        20           o19bf         1   UNL       o19        20    -0.54108       15.9990 ; qtot   -0.611
        21           o20bf         1   UNL       o20        21    -0.54108       15.9990 ; qtot   -1.152
        22           c21bf         1   UNL       c21        22     0.39889       12.0110 ; qtot   -0.753
        23           f22bf         1   UNL       f22        23    -0.20936       18.9980 ; qtot   -0.963
        24           f23bf         1   UNL       f23        24    -0.20936       18.9980 ; qtot   -1.172
        25           n24bf         1   UNL       n24        25    -0.34869       14.0070 ; qtot   -1.521
        26           f25bf         1   UNL       f25        26    -0.12713       18.9980 ; qtot   -1.648
        27           h26bf         1   UNL       h26        27     0.40718        1.0080 ; qtot   -1.241
        28           h27bf         1   UNL       h27        28     0.07414        1.0080 ; qtot   -1.167
        29           h28bf         1   UNL       h28        29     0.05823        1.0080 ; qtot   -1.108
        30           h29bf         1   UNL       h29        30     0.05823        1.0080 ; qtot   -1.050
        31           h30bf         1   UNL       h30        31     0.06200        1.0080 ; qtot   -0.988
        32           h31bf         1   UNL       h31        32     0.06200        1.0080 ; qtot   -0.926
        33           h32bf         1   UNL       h32        33     0.16754        1.0080 ; qtot   -0.759
        34           h33bf         1   UNL       h33        34     0.15782        1.0080 ; qtot   -0.601
        35           h34bf         1   UNL       h34        35     0.16858        1.0080 ; qtot   -0.432
        36           h35bf         1   UNL       h35        36     0.16624        1.0080 ; qtot   -0.266
        37           h36bf         1   UNL       h36        37     0.16647        1.0080 ; qtot   -0.100
        38           h37bf         1   UNL       h37        38     0.09955        1.0080 ; qtot    0.000

[ bonds ]
;       ai        aj funct               r               k
         1         2     1        0.143533   257069.617969    ;  uncertainty r = 0.000166, k = 4.670764
         1        27     1        0.097172   466410.174219    ;  uncertainty r = 0.000041, k = 3.930961
         2         3     1        0.154518   209733.827734    ;  uncertainty r = 0.000061, k = 10.764843
         2         6     1        0.152148   245065.516650    ;  uncertainty r = 0.000147, k = 29.418282
         2        28     1        0.109431   307339.060254    ;  uncertainty r = 0.000027, k = 2.137466
         3         4     1        0.154975   222428.171582    ;  uncertainty r = 0.000050, k = 7.178791
         3        29     1        0.109435   308683.333691    ;  uncertainty r = 0.000016, k = 3.034245
         3        30     1        0.109435   308683.359229    ;  uncertainty r = 0.000016, k = 3.034269
         4         5     1        0.151314   253636.740967    ;  uncertainty r = 0.000070, k = 17.146147
         4        31     1        0.109543   308088.753174    ;  uncertainty r = 0.000021, k = 1.530882
         4        32     1        0.109543   308088.753174    ;  uncertainty r = 0.000021, k = 1.530882
         5         6     1        0.139632   361377.141455    ;  uncertainty r = 0.000117, k = 19.668964
         5        10     1        0.138936   352617.785254    ;  uncertainty r = 0.000105, k = 4.458738
         6         7     1        0.139528   333515.133643    ;  uncertainty r = 0.000160, k = 10.805911
         7         8     1        0.139291   347067.498828    ;  uncertainty r = 0.000169, k = 4.899698
         7        19     1        0.177657   133654.897266    ;  uncertainty r = 0.000105, k = 15.479454
         8         9     1        0.139047   365888.144141    ;  uncertainty r = 0.000089, k = 4.428435
         8        33     1        0.108451   328724.754980    ;  uncertainty r = 0.000029, k = 1.039879
         9        10     1        0.139726   353381.038379    ;  uncertainty r = 0.000053, k = 5.868546
         9        34     1        0.108753   336163.893701    ;  uncertainty r = 0.000031, k = 1.172871
        10        11     1        0.138461   316719.146973    ;  uncertainty r = 0.000123, k = 10.455228
        11        12     1        0.137077   316895.072119    ;  uncertainty r = 0.000110, k = 9.258253
        12        13     1        0.139427   359163.303906    ;  uncertainty r = 0.000040, k = 4.028955
        12        18     1        0.139179   355512.671973    ;  uncertainty r = 0.000043, k = 0.656935
        13        14     1        0.138903   360755.951270    ;  uncertainty r = 0.000040, k = 3.414888
        13        35     1        0.108801   339525.036963    ;  uncertainty r = 0.000019, k = 1.519208
        14        15     1        0.138772   359379.322314    ;  uncertainty r = 0.000049, k = 1.285242
        14        26     1        0.134939   340193.470801    ;  uncertainty r = 0.000095, k = 3.973500
        15        16     1        0.140293   363423.557715    ;  uncertainty r = 0.000073, k = 1.983943
        15        36     1        0.108643   335846.978174    ;  uncertainty r = 0.000020, k = 0.933275
        16        17     1        0.143666   316064.886230    ;  uncertainty r = 0.000041, k = 3.494351
        16        18     1        0.140042   357603.165283    ;  uncertainty r = 0.000048, k = 4.155039
        17        25     1        0.116625  1127949.707617    ;  uncertainty r = 0.000026, k = 2.900587
        18        37     1        0.108681   335495.357715    ;  uncertainty r = 0.000025, k = 1.572335
        19        20     1        0.146996   488142.509668    ;  uncertainty r = 0.000109, k = 11.850747
        19        21     1        0.146996   488142.509668    ;  uncertainty r = 0.000109, k = 11.850675
        19        22     1        0.186536   142705.031763    ;  uncertainty r = 0.000116, k = 23.071414
        22        23     1        0.134863   311074.398779    ;  uncertainty r = 0.000139, k = 4.314222
        22        24     1        0.134863   311074.398779    ;  uncertainty r = 0.000139, k = 4.314222
        22        38     1        0.109695   322431.670654    ;  uncertainty r = 0.000162, k = 6.852620

[ angles ]
;       ai        aj        ak funct           theta             cth
         1         2         3     1      111.449783      673.121494    ;  uncertainty theta = 0.002674, k = 0.263806
         1         2         6     1      111.900185      651.776428    ;  uncertainty theta = 0.004402, k = 0.190576
         1         2        28     1      106.891518      437.961937    ;  uncertainty theta = 0.007090, k = 0.137106
         2         1        27     1      107.588623      459.544465    ;  uncertainty theta = 0.004020, k = 0.056400
         2         3         4     1      106.715515      678.485819    ;  uncertainty theta = 0.004376, k = 0.218757
         2         3        29     1      107.842712      397.967184    ;  uncertainty theta = 0.002119, k = 0.040321
         2         3        30     1      107.842712      397.967152    ;  uncertainty theta = 0.002119, k = 0.040321
         2         6         5     1      115.295250      494.697062    ;  uncertainty theta = 0.004534, k = 0.254475
         2         6         7     1      125.442612      367.036701    ;  uncertainty theta = 0.006058, k = 0.078648
         3         2         6     1      105.235428      723.032369    ;  uncertainty theta = 0.001020, k = 0.217381
         3         2        28     1      109.649307      387.426200    ;  uncertainty theta = 0.002973, k = 0.166893
         3         4         5     1      104.344833      718.666162    ;  uncertainty theta = 0.001502, k = 0.113715
         3         4        31     1      109.754356      400.758709    ;  uncertainty theta = 0.001435, k = 0.054483
         3         4        32     1      109.754356      400.758709    ;  uncertainty theta = 0.001435, k = 0.054483
         4         3        29     1      109.660057      409.426324    ;  uncertainty theta = 0.002536, k = 0.043240
         4         3        30     1      109.660057      409.426324    ;  uncertainty theta = 0.002536, k = 0.043240
         4         5         6     1      115.236778      526.219144    ;  uncertainty theta = 0.002765, k = 0.223441
         4         5        10     1      126.998001      389.468594    ;  uncertainty theta = 0.004444, k = 0.194784
         5         4        31     1      109.538185      391.019909    ;  uncertainty theta = 0.001716, k = 0.094266
         5         4        32     1      109.538185      391.019909    ;  uncertainty theta = 0.001716, k = 0.094266
         5         6         7     1      121.194725      430.981878    ;  uncertainty theta = 0.006619, k = 0.177125
         5        10         9     1      120.704590      383.635280    ;  uncertainty theta = 0.003907, k = 0.219189
         5        10        11     1      118.136330      406.394175    ;  uncertainty theta = 0.008672, k = 0.375366
         6         2        28     1      108.623878      381.438705    ;  uncertainty theta = 0.003222, k = 0.121087
         6         5        10     1      119.321045      421.582626    ;  uncertainty theta = 0.001997, k = 0.107709
         6         7         8     1      123.531410      444.689369    ;  uncertainty theta = 0.005499, k = 0.186575
         6         7        19     1      116.813980      339.381352    ;  uncertainty theta = 0.009516, k = 0.405492
         7         8         9     1      121.438065      491.886256    ;  uncertainty theta = 0.006097, k = 0.120300
         7         8        33     1      118.731361      262.429583    ;  uncertainty theta = 0.003163, k = 0.112635
         7        19        20     1      115.520485      628.484286    ;  uncertainty theta = 0.008620, k = 0.080009
         7        19        21     1      115.520485      628.484286    ;  uncertainty theta = 0.008620, k = 0.080009
         7        19        22     1      104.641113      509.547753    ;  uncertainty theta = 0.007990, k = 0.346227
         8         7        19     1      115.854019      353.190927    ;  uncertainty theta = 0.009759, k = 0.198880
         8         9        10     1      119.936890      510.016614    ;  uncertainty theta = 0.002468, k = 0.044940
         8         9        34     1      120.069801      277.121241    ;  uncertainty theta = 0.001669, k = 0.045307
         9         8        33     1      120.480507      283.263427    ;  uncertainty theta = 0.002371, k = 0.063445
         9        10        11     1      120.757851      433.874148    ;  uncertainty theta = 0.002811, k = 0.202239
        10         9        34     1      120.292114      276.044724    ;  uncertainty theta = 0.002649, k = 0.068495
        10        11        12     1      112.731567      472.909375    ;  uncertainty theta = 0.002270, k = 0.090985
        11        12        13     1      119.026627      419.851465    ;  uncertainty theta = 0.002706, k = 0.052294
        11        12        18     1      119.290588      404.135386    ;  uncertainty theta = 0.003651, k = 0.053296
        12        13        14     1      117.038597      502.569195    ;  uncertainty theta = 0.003445, k = 0.110868
        12        13        35     1      121.702477      272.440002    ;  uncertainty theta = 0.003455, k = 0.132527
        12        18        16     1      118.761208      522.894787    ;  uncertainty theta = 0.001489, k = 0.068180
        12        18        37     1      120.905983      280.332469    ;  uncertainty theta = 0.002004, k = 0.062093
        13        12        18     1      122.428146      385.560171    ;  uncertainty theta = 0.005403, k = 0.175951
        13        14        15     1      123.726746      369.147343    ;  uncertainty theta = 0.006010, k = 0.127236
        13        14        26     1      118.267052      494.604714    ;  uncertainty theta = 0.001988, k = 0.058359
        14        13        35     1      121.505081      285.104493    ;  uncertainty theta = 0.003243, k = 0.069272
        14        15        16     1      117.400681      493.697380    ;  uncertainty theta = 0.001506, k = 0.173040
        14        15        36     1      121.339279      286.173221    ;  uncertainty theta = 0.003120, k = 0.038568
        15        14        26     1      118.689796      499.274078    ;  uncertainty theta = 0.003051, k = 0.052524
        15        16        17     1      119.117844      375.204905    ;  uncertainty theta = 0.002733, k = 0.097876
        15        16        18     1      122.566833      457.580470    ;  uncertainty theta = 0.002293, k = 0.135282
        16        15        36     1      121.185242      278.472122    ;  uncertainty theta = 0.003138, k = 0.095958
        16        17        25     1      180.000000      233.555970    ;  uncertainty theta = 0.000000, k = 0.675784
        16        18        37     1      120.586197      284.638441    ;  uncertainty theta = 0.004219, k = 0.089604
        17        16        18     1      118.919228      375.151213    ;  uncertainty theta = 0.002637, k = 0.097444
        19        22        23     1      105.975853      511.799615    ;  uncertainty theta = 0.002875, k = 0.156926
        19        22        24     1      105.975853      511.799615    ;  uncertainty theta = 0.002875, k = 0.156926
        19        22        38     1      112.107346      381.893489    ;  uncertainty theta = 0.010585, k = 0.201519
        20        19        21     1      125.136795      859.031267    ;  uncertainty theta = 0.002708, k = 0.070467
        20        19        22     1      107.842819      525.272898    ;  uncertainty theta = 0.005343, k = 0.249030
        21        19        22     1      107.842819      525.272867    ;  uncertainty theta = 0.005343, k = 0.249030
        23        22        24     1      109.505371      835.368900    ;  uncertainty theta = 0.003942, k = 0.097215
        23        22        38     1      112.536720      472.683372    ;  uncertainty theta = 0.005070, k = 0.120464
        24        22        38     1      112.536720      472.683372    ;  uncertainty theta = 0.005070, k = 0.120464
        29         3        30     1      106.018265      313.348089    ;  uncertainty theta = 0.003981, k = 0.146063
        31         4        32     1      104.182007      294.463333    ;  uncertainty theta = 0.002010, k = 0.058192

[ dihedrals ] ; propers for gromacs 4.5 or higher, use funct 9
;       ai        aj        ak        al funct           phase               k        pn
         1         2         3         4     9        0.000000       -3.342062         1    ;  uncertainty k = 1.578877
         1         2         3         4     9      180.000000        0.863846         2    ;  uncertainty k = 0.843811
         1         2         3         4     9        0.000000        1.531305         3    ;  uncertainty k = 0.199465
         1         2         3         4     9      180.000000       -0.088753         4    ;  uncertainty k = 0.065010
         1         2         3        29     9        0.000000       -0.901220         1    ;  uncertainty k = 0.547697
         1         2         3        29     9      180.000000       -0.254159         2    ;  uncertainty k = 0.170660
         1         2         3        29     9        0.000000        1.261862         3    ;  uncertainty k = 0.067842
         1         2         3        29     9      180.000000        0.077065         4    ;  uncertainty k = 0.084590
         1         2         3        30     9        0.000000       -0.901222         1    ;  uncertainty k = 0.547698
         1         2         3        30     9      180.000000       -0.254161         2    ;  uncertainty k = 0.170661
         1         2         3        30     9        0.000000        1.261862         3    ;  uncertainty k = 0.067842
         1         2         3        30     9      180.000000        0.077065         4    ;  uncertainty k = 0.084589
         1         2         6         5     9        0.000000       -4.375519         1    ;  uncertainty k = 1.064718
         1         2         6         5     9      180.000000        4.381636         2    ;  uncertainty k = 0.953282
         1         2         6         5     9        0.000000        1.189905         3    ;  uncertainty k = 0.567483
         1         2         6         5     9      180.000000        0.680777         4    ;  uncertainty k = 0.146042
         1         2         6         7     9        0.000000       -0.597402         1    ;  uncertainty k = 1.655658
         1         2         6         7     9      180.000000        3.773367         2    ;  uncertainty k = 0.261104
         1         2         6         7     9        0.000000       -0.157522         3    ;  uncertainty k = 0.216638
         1         2         6         7     9      180.000000        0.546639         4    ;  uncertainty k = 0.248881
         2         3         4         5     9        0.000000       -0.684299         1    ;  uncertainty k = 1.594146
         2         3         4         5     9      180.000000        4.030407         2    ;  uncertainty k = 1.227423
         2         3         4         5     9        0.000000       -0.006086         3    ;  uncertainty k = 0.543343
         2         3         4         5     9      180.000000       -1.342367         4    ;  uncertainty k = 0.437537
         2         3         4        31     9        0.000000       -0.760454         1    ;  uncertainty k = 0.349584
         2         3         4        31     9      180.000000       -0.549408         2    ;  uncertainty k = 0.110970
         2         3         4        31     9        0.000000        0.498132         3    ;  uncertainty k = 0.225801
         2         3         4        31     9      180.000000        0.222890         4    ;  uncertainty k = 0.087989
         2         3         4        32     9        0.000000       -0.760454         1    ;  uncertainty k = 0.349584
         2         3         4        32     9      180.000000       -0.549408         2    ;  uncertainty k = 0.110970
         2         3         4        32     9        0.000000        0.498132         3    ;  uncertainty k = 0.225801
         2         3         4        32     9      180.000000        0.222890         4    ;  uncertainty k = 0.087989
         2         6         5         4     9        0.000000        0.471009         1    ;  uncertainty k = 0.896244
         2         6         5         4     9      180.000000       12.415320         2    ;  uncertainty k = 0.870811
         2         6         5         4     9        0.000000       -0.510868         3    ;  uncertainty k = 0.490341
         2         6         5         4     9      180.000000        1.305700         4    ;  uncertainty k = 0.212889
         2         6         5        10     9        0.000000        0.489005         1    ;  uncertainty k = 0.459422
         2         6         5        10     9      180.000000        8.622011         2    ;  uncertainty k = 0.332117
         2         6         5        10     9        0.000000        0.672400         3    ;  uncertainty k = 0.439813
         2         6         5        10     9      180.000000        1.348201         4    ;  uncertainty k = 0.102087
         2         6         7         8     9        0.000000        0.363349         1    ;  uncertainty k = 0.395580
         2         6         7         8     9      180.000000        6.401265         2    ;  uncertainty k = 0.309684
         2         6         7         8     9        0.000000        1.152721         3    ;  uncertainty k = 0.284573
         2         6         7         8     9      180.000000        1.628962         4    ;  uncertainty k = 0.128668
         2         6         7        19     9        0.000000        0.192368         1    ;  uncertainty k = 0.350270
         2         6         7        19     9      180.000000        6.624675         2    ;  uncertainty k = 0.682002
         2         6         7        19     9        0.000000        1.009291         3    ;  uncertainty k = 0.218752
         2         6         7        19     9      180.000000        1.220791         4    ;  uncertainty k = 0.172920
         3         2         1        27     9        0.000000       13.805087         1    ;  uncertainty k = 0.571622
         3         2         1        27     9      180.000000       -2.266191         2    ;  uncertainty k = 0.366169
         3         2         1        27     9        0.000000        1.130772         3    ;  uncertainty k = 0.169732
         3         2         1        27     9      180.000000        0.349907         4    ;  uncertainty k = 0.090577
         3         2         6         5     9        0.000000       -2.468144         1    ;  uncertainty k = 1.682882
         3         2         6         5     9      180.000000        9.229103         2    ;  uncertainty k = 0.773320
         3         2         6         5     9        0.000000       -0.770570         3    ;  uncertainty k = 0.410688
         3         2         6         5     9      180.000000        0.885938         4    ;  uncertainty k = 0.123884
         3         2         6         7     9        0.000000       -1.645518         1    ;  uncertainty k = 1.317953
         3         2         6         7     9      180.000000        3.204004         2    ;  uncertainty k = 0.464153
         3         2         6         7     9        0.000000        0.396131         3    ;  uncertainty k = 0.502597
         3         2         6         7     9      180.000000        0.576750         4    ;  uncertainty k = 0.126506
         3         4         5         6     9        0.000000       -1.872506         1    ;  uncertainty k = 2.018422
         3         4         5         6     9      180.000000       10.504033         2    ;  uncertainty k = 0.607789
         3         4         5         6     9        0.000000       -1.523921         3    ;  uncertainty k = 0.373874
         3         4         5         6     9      180.000000        0.761803         4    ;  uncertainty k = 0.226175
         3         4         5        10     9        0.000000       -1.161648         1    ;  uncertainty k = 0.921489
         3         4         5        10     9      180.000000        2.437251         2    ;  uncertainty k = 0.205727
         3         4         5        10     9        0.000000        0.566258         3    ;  uncertainty k = 0.315840
         3         4         5        10     9      180.000000        0.576992         4    ;  uncertainty k = 0.156603
         4         3         2         6     9        0.000000       -0.459642         1    ;  uncertainty k = 1.125653
         4         3         2         6     9      180.000000        3.606762         2    ;  uncertainty k = 1.024380
         4         3         2         6     9        0.000000        0.141668         3    ;  uncertainty k = 0.376185
         4         3         2         6     9      180.000000       -1.014413         4    ;  uncertainty k = 0.507124
         4         3         2        28     9        0.000000       -1.418650         1    ;  uncertainty k = 0.646272
         4         3         2        28     9      180.000000        0.816216         2    ;  uncertainty k = 0.436171
         4         3         2        28     9        0.000000        0.532242         3    ;  uncertainty k = 0.277440
         4         3         2        28     9      180.000000       -0.034024         4    ;  uncertainty k = 0.120488
         4         5         6         7     9        0.000000        0.133991         1    ;  uncertainty k = 0.732144
         4         5         6         7     9      180.000000        8.641217         2    ;  uncertainty k = 0.479919
         4         5         6         7     9        0.000000        0.656736         3    ;  uncertainty k = 0.526297
         4         5         6         7     9      180.000000        1.222558         4    ;  uncertainty k = 0.183276
         4         5        10         9     9        0.000000        0.370449         1    ;  uncertainty k = 0.382720
         4         5        10         9     9      180.000000        6.005683         2    ;  uncertainty k = 0.329698
         4         5        10         9     9        0.000000        1.325238         3    ;  uncertainty k = 0.234944
         4         5        10         9     9      180.000000        1.655461         4    ;  uncertainty k = 0.256702
         4         5        10        11     9        0.000000       -0.107850         1    ;  uncertainty k = 0.416558
         4         5        10        11     9      180.000000        8.900308         2    ;  uncertainty k = 0.289330
         4         5        10        11     9        0.000000        0.990026         3    ;  uncertainty k = 0.103546
         4         5        10        11     9      180.000000        1.321184         4    ;  uncertainty k = 0.212051
         5         4         3        29     9        0.000000       -0.910347         1    ;  uncertainty k = 0.467044
         5         4         3        29     9      180.000000       -0.234194         2    ;  uncertainty k = 0.201433
         5         4         3        29     9        0.000000        0.719508         3    ;  uncertainty k = 0.104728
         5         4         3        29     9      180.000000        0.032903         4    ;  uncertainty k = 0.100554
         5         4         3        30     9        0.000000       -0.910347         1    ;  uncertainty k = 0.467044
         5         4         3        30     9      180.000000       -0.234195         2    ;  uncertainty k = 0.201434
         5         4         3        30     9        0.000000        0.719507         3    ;  uncertainty k = 0.104728
         5         4         3        30     9      180.000000        0.032904         4    ;  uncertainty k = 0.100554
         5         6         2        28     9        0.000000       -0.304237         1    ;  uncertainty k = 0.590476
         5         6         2        28     9      180.000000        3.063277         2    ;  uncertainty k = 0.677235
         5         6         2        28     9        0.000000        0.668883         3    ;  uncertainty k = 0.154755
         5         6         2        28     9      180.000000        0.243960         4    ;  uncertainty k = 0.136442
         5         6         7         8     9        0.000000       -0.239570         1    ;  uncertainty k = 0.542882
         5         6         7         8     9      180.000000        9.851152         2    ;  uncertainty k = 0.529224
         5         6         7         8     9        0.000000       -0.636491         3    ;  uncertainty k = 0.446640
         5         6         7         8     9      180.000000        0.889147         4    ;  uncertainty k = 0.233911
         5         6         7        19     9        0.000000        0.557948         1    ;  uncertainty k = 0.942299
         5         6         7        19     9      180.000000        7.829456         2    ;  uncertainty k = 0.822957
         5         6         7        19     9        0.000000        1.404037         3    ;  uncertainty k = 0.486654
         5         6         7        19     9      180.000000        1.640530         4    ;  uncertainty k = 0.212252
         5        10         9         8     9        0.000000        0.229385         1    ;  uncertainty k = 0.155620
         5        10         9         8     9      180.000000        9.074109         2    ;  uncertainty k = 0.410671
         5        10         9         8     9        0.000000        0.191659         3    ;  uncertainty k = 0.401366
         5        10         9         8     9      180.000000        1.296238         4    ;  uncertainty k = 0.299296
         5        10         9        34     9        0.000000        0.191103         1    ;  uncertainty k = 0.285076
         5        10         9        34     9      180.000000        6.713350         2    ;  uncertainty k = 0.491896
         5        10         9        34     9        0.000000        1.376908         3    ;  uncertainty k = 0.474513
         5        10         9        34     9      180.000000        1.630376         4    ;  uncertainty k = 0.119823
         5        10        11        12     9        0.000000        4.574534         1    ;  uncertainty k = 0.575012
         5        10        11        12     9      180.000000        4.729842         2    ;  uncertainty k = 0.354520
         5        10        11        12     9        0.000000        0.799970         3    ;  uncertainty k = 0.048478
         5        10        11        12     9      180.000000        0.165581         4    ;  uncertainty k = 0.088410
         6         2         1        27     9        0.000000       15.248154         1    ;  uncertainty k = 0.598915
         6         2         1        27     9      180.000000       -4.230297         2    ;  uncertainty k = 0.430298
         6         2         1        27     9        0.000000        1.011455         3    ;  uncertainty k = 0.115195
         6         2         1        27     9      180.000000        0.016677         4    ;  uncertainty k = 0.099896
         6         2         3        29     9        0.000000       -0.729378         1    ;  uncertainty k = 0.455231
         6         2         3        29     9      180.000000       -0.350551         2    ;  uncertainty k = 0.297538
         6         2         3        29     9        0.000000        0.584520         3    ;  uncertainty k = 0.081268
         6         2         3        29     9      180.000000       -0.031557         4    ;  uncertainty k = 0.077755
         6         2         3        30     9        0.000000       -0.729378         1    ;  uncertainty k = 0.455230
         6         2         3        30     9      180.000000       -0.350551         2    ;  uncertainty k = 0.297538
         6         2         3        30     9        0.000000        0.584521         3    ;  uncertainty k = 0.081268
         6         2         3        30     9      180.000000       -0.031557         4    ;  uncertainty k = 0.077755
         6         5         4        31     9        0.000000       -0.117593         1    ;  uncertainty k = 0.554956
         6         5         4        31     9      180.000000        1.700297         2    ;  uncertainty k = 0.323746
         6         5         4        31     9        0.000000        0.265121         3    ;  uncertainty k = 0.126165
         6         5         4        31     9      180.000000        0.275540         4    ;  uncertainty k = 0.109177
         6         5         4        32     9        0.000000       -0.117593         1    ;  uncertainty k = 0.554956
         6         5         4        32     9      180.000000        1.700297         2    ;  uncertainty k = 0.323746
         6         5         4        32     9        0.000000        0.265121         3    ;  uncertainty k = 0.126165
         6         5         4        32     9      180.000000        0.275540         4    ;  uncertainty k = 0.109177
         6         5        10         9     9        0.000000       -0.174081         1    ;  uncertainty k = 0.117163
         6         5        10         9     9      180.000000        8.167922         2    ;  uncertainty k = 0.486305
         6         5        10         9     9        0.000000       -0.451961         3    ;  uncertainty k = 0.458835
         6         5        10         9     9      180.000000        1.079102         4    ;  uncertainty k = 0.285640
         6         5        10        11     9        0.000000        0.097427         1    ;  uncertainty k = 0.222783
         6         5        10        11     9      180.000000        9.655290         2    ;  uncertainty k = 0.303340
         6         5        10        11     9        0.000000        1.402765         3    ;  uncertainty k = 0.285201
         6         5        10        11     9      180.000000        1.552060         4    ;  uncertainty k = 0.154601
         6         7         8         9     9        0.000000       -0.269463         1    ;  uncertainty k = 0.316183
         6         7         8         9     9      180.000000       10.374757         2    ;  uncertainty k = 0.575844
         6         7         8         9     9        0.000000       -0.348041         3    ;  uncertainty k = 0.463516
         6         7         8         9     9      180.000000        1.022357         4    ;  uncertainty k = 0.457924
         6         7         8        33     9        0.000000       -0.021501         1    ;  uncertainty k = 0.375569
         6         7         8        33     9      180.000000        7.303385         2    ;  uncertainty k = 0.552712
         6         7         8        33     9        0.000000        1.244254         3    ;  uncertainty k = 0.444033
         6         7         8        33     9      180.000000        1.599047         4    ;  uncertainty k = 0.059411
         6         7        19        20     9        0.000000       -2.407570         1    ;  uncertainty k = 2.128317
         6         7        19        20     9      180.000000        0.866962         2    ;  uncertainty k = 0.584833
         6         7        19        20     9        0.000000        0.459838         3    ;  uncertainty k = 0.350272
         6         7        19        20     9      180.000000       -0.009259         4    ;  uncertainty k = 0.207135
         6         7        19        21     9        0.000000       -2.407568         1    ;  uncertainty k = 2.128318
         6         7        19        21     9      180.000000        0.866962         2    ;  uncertainty k = 0.584833
         6         7        19        21     9        0.000000        0.459838         3    ;  uncertainty k = 0.350271
         6         7        19        21     9      180.000000       -0.009259         4    ;  uncertainty k = 0.207136
         6         7        19        22     9        0.000000        2.442134         1    ;  uncertainty k = 2.238981
         6         7        19        22     9      180.000000       -0.657787         2    ;  uncertainty k = 0.497754
         6         7        19        22     9        0.000000        0.276521         3    ;  uncertainty k = 0.377732
         6         7        19        22     9      180.000000        0.258835         4    ;  uncertainty k = 0.154073
         7         6         2        28     9        0.000000        2.117736         1    ;  uncertainty k = 0.728295
         7         6         2        28     9      180.000000        1.912849         2    ;  uncertainty k = 0.653416
         7         6         2        28     9        0.000000       -0.164220         3    ;  uncertainty k = 0.141561
         7         6         2        28     9      180.000000        0.185938         4    ;  uncertainty k = 0.192722
         7         6         5        10     9        0.000000        0.107464         1    ;  uncertainty k = 0.600029
         7         6         5        10     9      180.000000        8.197778         2    ;  uncertainty k = 0.375946
         7         6         5        10     9        0.000000        0.110949         3    ;  uncertainty k = 0.223731
         7         6         5        10     9      180.000000        1.175209         4    ;  uncertainty k = 0.296975
         7         8         9        10     9        0.000000        0.093444         1    ;  uncertainty k = 0.372700
         7         8         9        10     9      180.000000       12.154237         2    ;  uncertainty k = 0.425078
         7         8         9        10     9        0.000000       -0.873346         3    ;  uncertainty k = 0.661754
         7         8         9        10     9      180.000000        0.878315         4    ;  uncertainty k = 0.373611
         7         8         9        34     9        0.000000       -0.045630         1    ;  uncertainty k = 0.466430
         7         8         9        34     9      180.000000        8.339888         2    ;  uncertainty k = 0.257841
         7         8         9        34     9        0.000000        1.192660         3    ;  uncertainty k = 0.237533
         7         8         9        34     9      180.000000        1.711448         4    ;  uncertainty k = 0.118556
         7        19        22        23     9        0.000000        1.451635         1    ;  uncertainty k = 0.883564
         7        19        22        23     9      180.000000       -1.143214         2    ;  uncertainty k = 0.349318
         7        19        22        23     9        0.000000        0.332364         3    ;  uncertainty k = 0.322707
         7        19        22        23     9      180.000000       -0.135582         4    ;  uncertainty k = 0.236485
         7        19        22        24     9        0.000000        1.451635         1    ;  uncertainty k = 0.883564
         7        19        22        24     9      180.000000       -1.143214         2    ;  uncertainty k = 0.349318
         7        19        22        24     9        0.000000        0.332364         3    ;  uncertainty k = 0.322707
         7        19        22        24     9      180.000000       -0.135582         4    ;  uncertainty k = 0.236485
         7        19        22        38     9        0.000000        1.383761         1    ;  uncertainty k = 0.484162
         7        19        22        38     9      180.000000       -1.451308         2    ;  uncertainty k = 0.884451
         7        19        22        38     9        0.000000        0.114720         3    ;  uncertainty k = 0.244062
         7        19        22        38     9      180.000000       -0.146111         4    ;  uncertainty k = 0.188600
         8         7        19        20     9        0.000000       -1.547439         1    ;  uncertainty k = 0.994293
         8         7        19        20     9      180.000000        1.062238         2    ;  uncertainty k = 0.903337
         8         7        19        20     9        0.000000        0.197461         3    ;  uncertainty k = 0.274258
         8         7        19        20     9      180.000000        0.005180         4    ;  uncertainty k = 0.215014
         8         7        19        21     9        0.000000       -1.547439         1    ;  uncertainty k = 0.994295
         8         7        19        21     9      180.000000        1.062237         2    ;  uncertainty k = 0.903336
         8         7        19        21     9        0.000000        0.197461         3    ;  uncertainty k = 0.274258
         8         7        19        21     9      180.000000        0.005180         4    ;  uncertainty k = 0.215014
         8         7        19        22     9        0.000000        2.250919         1    ;  uncertainty k = 0.909104
         8         7        19        22     9      180.000000        0.054766         2    ;  uncertainty k = 0.527485
         8         7        19        22     9        0.000000        0.117482         3    ;  uncertainty k = 0.623981
         8         7        19        22     9      180.000000        0.247335         4    ;  uncertainty k = 0.140514
         8         9        10        11     9        0.000000       -0.020955         1    ;  uncertainty k = 0.293477
         8         9        10        11     9      180.000000       10.925885         2    ;  uncertainty k = 0.472305
         8         9        10        11     9        0.000000        1.494516         3    ;  uncertainty k = 0.302842
         8         9        10        11     9      180.000000        1.730544         4    ;  uncertainty k = 0.255847
         9         8         7        19     9        0.000000        0.478452         1    ;  uncertainty k = 0.258754
         9         8         7        19     9      180.000000        8.866864         2    ;  uncertainty k = 0.542931
         9         8         7        19     9        0.000000        1.356871         3    ;  uncertainty k = 0.331120
         9         8         7        19     9      180.000000        1.871625         4    ;  uncertainty k = 0.156920
         9        10        11        12     9        0.000000        5.063443         1    ;  uncertainty k = 0.349978
         9        10        11        12     9      180.000000        5.517291         2    ;  uncertainty k = 0.168889
         9        10        11        12     9        0.000000        0.371955         3    ;  uncertainty k = 0.110094
         9        10        11        12     9      180.000000        0.198556         4    ;  uncertainty k = 0.080754
        10         5         4        31     9        0.000000        0.848574         1    ;  uncertainty k = 0.331442
        10         5         4        31     9      180.000000        1.575034         2    ;  uncertainty k = 0.739757
        10         5         4        31     9        0.000000        0.112942         3    ;  uncertainty k = 0.240332
        10         5         4        31     9      180.000000        0.266171         4    ;  uncertainty k = 0.138592
        10         5         4        32     9        0.000000        0.848574         1    ;  uncertainty k = 0.331442
        10         5         4        32     9      180.000000        1.575034         2    ;  uncertainty k = 0.739757
        10         5         4        32     9        0.000000        0.112942         3    ;  uncertainty k = 0.240332
        10         5         4        32     9      180.000000        0.266171         4    ;  uncertainty k = 0.138592
        10         9         8        33     9        0.000000       -0.102891         1    ;  uncertainty k = 0.358161
        10         9         8        33     9      180.000000        7.906713         2    ;  uncertainty k = 0.161171
        10         9         8        33     9        0.000000        1.044741         3    ;  uncertainty k = 0.227932
        10         9         8        33     9      180.000000        1.715008         4    ;  uncertainty k = 0.065854
        10        11        12        13     9        0.000000        4.224176         1    ;  uncertainty k = 0.385338
        10        11        12        13     9      180.000000        5.453712         2    ;  uncertainty k = 0.264297
        10        11        12        13     9        0.000000        0.428637         3    ;  uncertainty k = 0.155520
        10        11        12        13     9      180.000000        0.160154         4    ;  uncertainty k = 0.094859
        10        11        12        18     9        0.000000        4.263510         1    ;  uncertainty k = 0.404417
        10        11        12        18     9      180.000000        5.708796         2    ;  uncertainty k = 0.256924
        10        11        12        18     9        0.000000        0.384330         3    ;  uncertainty k = 0.170537
        10        11        12        18     9      180.000000        0.140727         4    ;  uncertainty k = 0.118264
        11        10         9        34     9        0.000000       -0.019449         1    ;  uncertainty k = 0.162531
        11        10         9        34     9      180.000000        9.039640         2    ;  uncertainty k = 0.355015
        11        10         9        34     9        0.000000        0.850702         3    ;  uncertainty k = 0.237823
        11        10         9        34     9      180.000000        1.130885         4    ;  uncertainty k = 0.140139
        11        12        13        14     9        0.000000        0.110617         1    ;  uncertainty k = 0.280261
        11        12        13        14     9      180.000000       10.825045         2    ;  uncertainty k = 0.268024
        11        12        13        14     9        0.000000        1.291451         3    ;  uncertainty k = 0.181954
        11        12        13        14     9      180.000000        1.601789         4    ;  uncertainty k = 0.123425
        11        12        13        35     9        0.000000       -0.096546         1    ;  uncertainty k = 0.131040
        11        12        13        35     9      180.000000        8.372996         2    ;  uncertainty k = 0.282067
        11        12        13        35     9        0.000000        0.828749         3    ;  uncertainty k = 0.203571
        11        12        13        35     9      180.000000        1.093044         4    ;  uncertainty k = 0.104496
        11        12        18        16     9        0.000000       -0.066702         1    ;  uncertainty k = 0.256318
        11        12        18        16     9      180.000000       11.317504         2    ;  uncertainty k = 0.454828
        11        12        18        16     9        0.000000        1.188762         3    ;  uncertainty k = 0.073630
        11        12        18        16     9      180.000000        1.617869         4    ;  uncertainty k = 0.138905
        11        12        18        37     9        0.000000        0.114390         1    ;  uncertainty k = 0.181008
        11        12        18        37     9      180.000000        8.496717         2    ;  uncertainty k = 0.306845
        11        12        18        37     9        0.000000        0.848986         3    ;  uncertainty k = 0.295991
        11        12        18        37     9      180.000000        1.147922         4    ;  uncertainty k = 0.169206
        12        13        14        15     9        0.000000       -0.041314         1    ;  uncertainty k = 0.166168
        12        13        14        15     9      180.000000        8.711743         2    ;  uncertainty k = 0.535595
        12        13        14        15     9        0.000000        0.058226         3    ;  uncertainty k = 0.483439
        12        13        14        15     9      180.000000        1.296510         4    ;  uncertainty k = 0.287570
        12        13        14        26     9        0.000000        0.029268         1    ;  uncertainty k = 0.076351
        12        13        14        26     9      180.000000       12.681218         2    ;  uncertainty k = 0.591250
        12        13        14        26     9        0.000000        1.486063         3    ;  uncertainty k = 0.376399
        12        13        14        26     9      180.000000        1.475435         4    ;  uncertainty k = 0.279101
        12        18        16        15     9        0.000000       -0.126135         1    ;  uncertainty k = 0.335757
        12        18        16        15     9      180.000000       11.543730         2    ;  uncertainty k = 0.211528
        12        18        16        15     9        0.000000       -0.409273         3    ;  uncertainty k = 0.525587
        12        18        16        15     9      180.000000        1.114605         4    ;  uncertainty k = 0.265123
        12        18        16        17     9        0.000000        0.008933         1    ;  uncertainty k = 0.224406
        12        18        16        17     9      180.000000       10.110914         2    ;  uncertainty k = 0.333389
        12        18        16        17     9        0.000000        1.306913         3    ;  uncertainty k = 0.264685
        12        18        16        17     9      180.000000        1.637564         4    ;  uncertainty k = 0.199966
        13        12        18        16     9        0.000000       -0.051323         1    ;  uncertainty k = 0.175218
        13        12        18        16     9      180.000000        9.609479         2    ;  uncertainty k = 0.403633
        13        12        18        16     9        0.000000        0.176054         3    ;  uncertainty k = 0.389801
        13        12        18        16     9      180.000000        1.259072         4    ;  uncertainty k = 0.358590
        13        12        18        37     9        0.000000        0.319860         1    ;  uncertainty k = 0.231991
        13        12        18        37     9      180.000000        6.318268         2    ;  uncertainty k = 0.750342
        13        12        18        37     9        0.000000        1.465273         3    ;  uncertainty k = 0.273056
        13        12        18        37     9      180.000000        1.603175         4    ;  uncertainty k = 0.165844
        13        14        15        16     9        0.000000       -0.019167         1    ;  uncertainty k = 0.236217
        13        14        15        16     9      180.000000        9.329734         2    ;  uncertainty k = 0.304984
        13        14        15        16     9        0.000000        0.099008         3    ;  uncertainty k = 0.304607
        13        14        15        16     9      180.000000        1.274851         4    ;  uncertainty k = 0.274240
        13        14        15        36     9        0.000000       -0.000591         1    ;  uncertainty k = 0.199600
        13        14        15        36     9      180.000000        5.887324         2    ;  uncertainty k = 0.750109
        13        14        15        36     9        0.000000        1.321078         3    ;  uncertainty k = 0.278410
        13        14        15        36     9      180.000000        1.516102         4    ;  uncertainty k = 0.088176
        14        13        12        18     9        0.000000        0.083575         1    ;  uncertainty k = 0.184357
        14        13        12        18     9      180.000000        9.069040         2    ;  uncertainty k = 0.673942
        14        13        12        18     9        0.000000        0.004877         3    ;  uncertainty k = 0.505261
        14        13        12        18     9      180.000000        1.219759         4    ;  uncertainty k = 0.386904
        14        15        16        17     9        0.000000        0.042739         1    ;  uncertainty k = 0.291484
        14        15        16        17     9      180.000000        9.815523         2    ;  uncertainty k = 0.311826
        14        15        16        17     9        0.000000        1.325514         3    ;  uncertainty k = 0.249458
        14        15        16        17     9      180.000000        1.659796         4    ;  uncertainty k = 0.165102
        14        15        16        18     9        0.000000       -0.093634         1    ;  uncertainty k = 0.287446
        14        15        16        18     9      180.000000       11.524171         2    ;  uncertainty k = 0.474663
        14        15        16        18     9        0.000000       -0.540683         3    ;  uncertainty k = 0.386752
        14        15        16        18     9      180.000000        1.065656         4    ;  uncertainty k = 0.270989
        15        14        13        35     9        0.000000        0.117729         1    ;  uncertainty k = 0.152876
        15        14        13        35     9      180.000000        5.739163         2    ;  uncertainty k = 0.725582
        15        14        13        35     9        0.000000        1.354805         3    ;  uncertainty k = 0.319904
        15        14        13        35     9      180.000000        1.531360         4    ;  uncertainty k = 0.102992
        15        16        17        25     9        0.000000        0.000000         1    ;  uncertainty k = 0.000000
        15        16        17        25     9      180.000000        0.000000         2    ;  uncertainty k = 0.000000
        15        16        17        25     9        0.000000        0.000000         3    ;  uncertainty k = 0.000000
        15        16        17        25     9      180.000000        0.000000         4    ;  uncertainty k = 0.000000
        15        16        18        37     9        0.000000        0.266900         1    ;  uncertainty k = 0.392932
        15        16        18        37     9      180.000000        6.702181         2    ;  uncertainty k = 0.686766
        15        16        18        37     9        0.000000        1.492380         3    ;  uncertainty k = 0.274536
        15        16        18        37     9      180.000000        1.680830         4    ;  uncertainty k = 0.134103
        16        15        14        26     9        0.000000       -0.039625         1    ;  uncertainty k = 0.207169
        16        15        14        26     9      180.000000       13.467149         2    ;  uncertainty k = 0.458195
        16        15        14        26     9        0.000000        1.330325         3    ;  uncertainty k = 0.272641
        16        15        14        26     9      180.000000        1.408183         4    ;  uncertainty k = 0.220522
        17        16        15        36     9        0.000000       -0.401279         1    ;  uncertainty k = 0.467936
        17        16        15        36     9      180.000000        7.099068         2    ;  uncertainty k = 0.224072
        17        16        15        36     9        0.000000        0.520906         3    ;  uncertainty k = 0.112594
        17        16        15        36     9      180.000000        0.955860         4    ;  uncertainty k = 0.230500
        17        16        18        37     9        0.000000       -0.303372         1    ;  uncertainty k = 0.311610
        17        16        18        37     9      180.000000        7.433396         2    ;  uncertainty k = 0.295932
        17        16        18        37     9        0.000000        0.543142         3    ;  uncertainty k = 0.139134
        17        16        18        37     9      180.000000        0.967541         4    ;  uncertainty k = 0.213771
        18        12        13        35     9        0.000000        0.238076         1    ;  uncertainty k = 0.231775
        18        12        13        35     9      180.000000        5.993856         2    ;  uncertainty k = 0.765201
        18        12        13        35     9        0.000000        1.476770         3    ;  uncertainty k = 0.368308
        18        12        13        35     9      180.000000        1.569369         4    ;  uncertainty k = 0.131184
        18        16        15        36     9        0.000000        0.157283         1    ;  uncertainty k = 0.536677
        18        16        15        36     9      180.000000        6.651377         2    ;  uncertainty k = 0.604357
        18        16        15        36     9        0.000000        1.457227         3    ;  uncertainty k = 0.366961
        18        16        15        36     9      180.000000        1.599689         4    ;  uncertainty k = 0.107457
        18        16        17        25     9        0.000000        0.000000         1    ;  uncertainty k = 0.000000
        18        16        17        25     9      180.000000        0.000000         2    ;  uncertainty k = 0.000000
        18        16        17        25     9        0.000000        0.000000         3    ;  uncertainty k = 0.000000
        18        16        17        25     9      180.000000        0.000000         4    ;  uncertainty k = 0.000000
        19         7         8        33     9        0.000000       -0.335449         1    ;  uncertainty k = 0.366430
        19         7         8        33     9      180.000000        6.620997         2    ;  uncertainty k = 0.432137
        19         7         8        33     9        0.000000        0.803446         3    ;  uncertainty k = 0.197781
        19         7         8        33     9      180.000000        1.182948         4    ;  uncertainty k = 0.189544
        20        19        22        23     9        0.000000        0.866316         1    ;  uncertainty k = 0.447984
        20        19        22        23     9      180.000000        0.207300         2    ;  uncertainty k = 0.372009
        20        19        22        23     9        0.000000        0.562711         3    ;  uncertainty k = 0.310237
        20        19        22        23     9      180.000000       -0.021132         4    ;  uncertainty k = 0.176620
        20        19        22        24     9        0.000000        0.866316         1    ;  uncertainty k = 0.447984
        20        19        22        24     9      180.000000        0.207300         2    ;  uncertainty k = 0.372009
        20        19        22        24     9        0.000000        0.562711         3    ;  uncertainty k = 0.310237
        20        19        22        24     9      180.000000       -0.021132         4    ;  uncertainty k = 0.176620
        20        19        22        38     9        0.000000        0.040594         1    ;  uncertainty k = 0.552981
        20        19        22        38     9      180.000000       -0.240104         2    ;  uncertainty k = 0.195523
        20        19        22        38     9        0.000000        0.226848         3    ;  uncertainty k = 0.136800
        20        19        22        38     9      180.000000       -0.103280         4    ;  uncertainty k = 0.122284
        21        19        22        23     9        0.000000        0.866315         1    ;  uncertainty k = 0.447985
        21        19        22        23     9      180.000000        0.207300         2    ;  uncertainty k = 0.372008
        21        19        22        23     9        0.000000        0.562711         3    ;  uncertainty k = 0.310237
        21        19        22        23     9      180.000000       -0.021132         4    ;  uncertainty k = 0.176620
        21        19        22        24     9        0.000000        0.866315         1    ;  uncertainty k = 0.447985
        21        19        22        24     9      180.000000        0.207300         2    ;  uncertainty k = 0.372008
        21        19        22        24     9        0.000000        0.562711         3    ;  uncertainty k = 0.310237
        21        19        22        24     9      180.000000       -0.021132         4    ;  uncertainty k = 0.176620
        21        19        22        38     9        0.000000        0.040597         1    ;  uncertainty k = 0.552982
        21        19        22        38     9      180.000000       -0.240104         2    ;  uncertainty k = 0.195524
        21        19        22        38     9        0.000000        0.226848         3    ;  uncertainty k = 0.136800
        21        19        22        38     9      180.000000       -0.103279         4    ;  uncertainty k = 0.122284
        26        14        13        35     9        0.000000       -0.266163         1    ;  uncertainty k = 0.229667
        26        14        13        35     9      180.000000        8.750384         2    ;  uncertainty k = 0.391886
        26        14        13        35     9        0.000000        0.839204         3    ;  uncertainty k = 0.231015
        26        14        13        35     9      180.000000        1.056841         4    ;  uncertainty k = 0.208950
        26        14        15        36     9        0.000000       -0.317019         1    ;  uncertainty k = 0.306341
        26        14        15        36     9      180.000000        8.994258         2    ;  uncertainty k = 0.352454
        26        14        15        36     9        0.000000        0.799840         3    ;  uncertainty k = 0.209802
        26        14        15        36     9      180.000000        1.001169         4    ;  uncertainty k = 0.172439
        27         1         2        28     9        0.000000       10.854878         1    ;  uncertainty k = 0.649091
        27         1         2        28     9      180.000000       -1.586978         2    ;  uncertainty k = 0.391083
        27         1         2        28     9        0.000000        0.917564         3    ;  uncertainty k = 0.113424
        27         1         2        28     9      180.000000        0.158654         4    ;  uncertainty k = 0.107591
        28         2         3        29     9        0.000000        0.725597         1    ;  uncertainty k = 0.153290
        28         2         3        29     9      180.000000       -0.598048         2    ;  uncertainty k = 0.185185
        28         2         3        29     9        0.000000        0.658388         3    ;  uncertainty k = 0.022633
        28         2         3        29     9      180.000000        0.092971         4    ;  uncertainty k = 0.057888
        28         2         3        30     9        0.000000        0.725597         1    ;  uncertainty k = 0.153292
        28         2         3        30     9      180.000000       -0.598048         2    ;  uncertainty k = 0.185183
        28         2         3        30     9        0.000000        0.658388         3    ;  uncertainty k = 0.022633
        28         2         3        30     9      180.000000        0.092971         4    ;  uncertainty k = 0.057888
        29         3         4        31     9        0.000000        1.132922         1    ;  uncertainty k = 0.276103
        29         3         4        31     9      180.000000       -0.153616         2    ;  uncertainty k = 0.086337
        29         3         4        31     9        0.000000        0.760977         3    ;  uncertainty k = 0.007635
        29         3         4        31     9      180.000000        0.101358         4    ;  uncertainty k = 0.038766
        29         3         4        32     9        0.000000        1.132922         1    ;  uncertainty k = 0.276103
        29         3         4        32     9      180.000000       -0.153616         2    ;  uncertainty k = 0.086337
        29         3         4        32     9        0.000000        0.760977         3    ;  uncertainty k = 0.007635
        29         3         4        32     9      180.000000        0.101358         4    ;  uncertainty k = 0.038766
        30         3         4        31     9        0.000000        1.132922         1    ;  uncertainty k = 0.276104
        30         3         4        31     9      180.000000       -0.153614         2    ;  uncertainty k = 0.086338
        30         3         4        31     9        0.000000        0.760977         3    ;  uncertainty k = 0.007636
        30         3         4        31     9      180.000000        0.101358         4    ;  uncertainty k = 0.038765
        30         3         4        32     9        0.000000        1.132922         1    ;  uncertainty k = 0.276104
        30         3         4        32     9      180.000000       -0.153614         2    ;  uncertainty k = 0.086338
        30         3         4        32     9        0.000000        0.760977         3    ;  uncertainty k = 0.007636
        30         3         4        32     9      180.000000        0.101358         4    ;  uncertainty k = 0.038765
        33         8         9        34     9        0.000000       -0.148180         1    ;  uncertainty k = 0.424417
        33         8         9        34     9      180.000000        7.608203         2    ;  uncertainty k = 0.385312
        33         8         9        34     9        0.000000       -0.327533         3    ;  uncertainty k = 0.307859
        33         8         9        34     9      180.000000        0.270460         4    ;  uncertainty k = 0.108533

[ dihedrals ] ; impropers
;       ai        aj        ak        al funct           phase               k        pn
         5         4         6        10     4      180.000000        5.153940         2    ;  uncertainty k = 0.410005
         5         6        10         4     4      180.000000        5.153940         2    ;  uncertainty k = 0.410005
         5        10         4         6     4      180.000000        5.153940         2    ;  uncertainty k = 0.410005
         6         2         5         7     4      180.000000        6.866542         2    ;  uncertainty k = 0.222673
         6         5         7         2     4      180.000000        6.866542         2    ;  uncertainty k = 0.222673
         6         7         2         5     4      180.000000        6.866542         2    ;  uncertainty k = 0.222673
         7         6         8        19     4      180.000000        4.672410         2    ;  uncertainty k = 0.346801
         7         8        19         6     4      180.000000        4.672410         2    ;  uncertainty k = 0.346801
         7        19         6         8     4      180.000000        4.672410         2    ;  uncertainty k = 0.346801
         8         7         9        33     4      180.000000        5.245782         2    ;  uncertainty k = 0.201089
         8         9        33         7     4      180.000000        5.245782         2    ;  uncertainty k = 0.201089
         8        33         7         9     4      180.000000        5.245782         2    ;  uncertainty k = 0.201089
         9         8        10        34     4      180.000000        1.990856         2    ;  uncertainty k = 0.074670
         9        10        34         8     4      180.000000        1.990856         2    ;  uncertainty k = 0.074670
         9        34         8        10     4      180.000000        1.990856         2    ;  uncertainty k = 0.074670
        10         5         9        11     4      180.000000       17.342736         2    ;  uncertainty k = 0.100112
        10         9        11         5     4      180.000000       17.342736         2    ;  uncertainty k = 0.100112
        10        11         5         9     4      180.000000       17.342736         2    ;  uncertainty k = 0.100112
        12        11        13        18     4      180.000000       19.053425         2    ;  uncertainty k = 0.038066
        12        13        18        11     4      180.000000       19.053425         2    ;  uncertainty k = 0.038066
        12        18        11        13     4      180.000000       19.053425         2    ;  uncertainty k = 0.038066
        13        12        14        35     4      180.000000        1.848822         2    ;  uncertainty k = 0.255050
        13        14        35        12     4      180.000000        1.848822         2    ;  uncertainty k = 0.255050
        13        35        12        14     4      180.000000        1.848822         2    ;  uncertainty k = 0.255050
        14        13        15        26     4      180.000000       17.880539         2    ;  uncertainty k = 0.047509
        14        15        26        13     4      180.000000       17.880539         2    ;  uncertainty k = 0.047509
        14        26        13        15     4      180.000000       17.880539         2    ;  uncertainty k = 0.047509
        15        14        16        36     4      180.000000        2.461660         2    ;  uncertainty k = 0.340228
        15        16        36        14     4      180.000000        2.461660         2    ;  uncertainty k = 0.340228
        15        36        14        16     4      180.000000        2.461660         2    ;  uncertainty k = 0.340228
        16        15        17        18     4      180.000000       11.727381         2    ;  uncertainty k = 0.187313
        16        17        18        15     4      180.000000       11.727381         2    ;  uncertainty k = 0.187313
        16        18        15        17     4      180.000000       11.727381         2    ;  uncertainty k = 0.187313
        18        12        16        37     4      180.000000        2.852753         2    ;  uncertainty k = 0.269074
        18        16        37        12     4      180.000000        2.852753         2    ;  uncertainty k = 0.269074
        18        37        12        16     4      180.000000        2.852753         2    ;  uncertainty k = 0.269074

[ pairs ]
;       ai        aj funct
         1         4     1
         1         5     1
         1         7     1
         1        29     1
         1        30     1
         2         8     1
         2        10     1
         2        19     1
         2        31     1
         2        32     1
         3         7     1
         3        10     1
         3        27     1
         4         7     1
         4         9     1
         4        11     1
         4        28     1
         5         8     1
         5        12     1
         5        19     1
         5        28     1
         5        29     1
         5        30     1
         5        34     1
         6         9     1
         6        11     1
         6        20     1
         6        21     1
         6        22     1
         6        27     1
         6        29     1
         6        30     1
         6        31     1
         6        32     1
         6        33     1
         7        10     1
         7        23     1
         7        24     1
         7        28     1
         7        34     1
         7        38     1
         8        11     1
         8        20     1
         8        21     1
         8        22     1
         9        12     1
         9        19     1
        10        13     1
        10        18     1
        10        31     1
        10        32     1
        10        33     1
        11        14     1
        11        16     1
        11        34     1
        11        35     1
        11        37     1
        12        15     1
        12        17     1
        12        26     1
        13        16     1
        13        36     1
        13        37     1
        14        17     1
        14        18     1
        15        25     1
        15        35     1
        15        37     1
        16        26     1
        17        36     1
        17        37     1
        18        25     1
        18        35     1
        18        36     1
        19        33     1
        20        23     1
        20        24     1
        20        38     1
        21        23     1
        21        24     1
        21        38     1
        26        35     1
        26        36     1
        27        28     1
        28        29     1
        28        30     1
        29        31     1
        29        32     1
        30        31     1
        30        32     1
        33        34     1
