; ITP file created by ByteFF-joint-25, 2026-02-17 09:18:23.554445

[ atomtypes ]
;name           bonded.type        at.num        mass        charge   ptype           sigma         epsilon
 o0bf                                   8      0.0000       0.00000       A     3.24314e-01     3.87820e-01    ;  uncertainty sigma = 0.000033, epsilon = 0.000883
 c1bf                                   6      0.0000       0.00000       A     3.39735e-01     4.50327e-01    ;  uncertainty sigma = 0.000031, epsilon = 0.001400
 c2bf                                   6      0.0000       0.00000       A     3.39804e-01     4.51139e-01    ;  uncertainty sigma = 0.000023, epsilon = 0.001153
 c3bf                                   6      0.0000       0.00000       A     3.39790e-01     4.50784e-01    ;  uncertainty sigma = 0.000016, epsilon = 0.000744
 c4bf                                   6      0.0000       0.00000       A     3.31546e-01     4.13508e-01    ;  uncertainty sigma = 0.000009, epsilon = 0.000938
 c5bf                                   6      0.0000       0.00000       A     3.31549e-01     4.12756e-01    ;  uncertainty sigma = 0.000028, epsilon = 0.001242
 c6bf                                   6      0.0000       0.00000       A     3.31528e-01     4.13040e-01    ;  uncertainty sigma = 0.000031, epsilon = 0.001441
 c7bf                                   6      0.0000       0.00000       A     3.31515e-01     4.13375e-01    ;  uncertainty sigma = 0.000009, epsilon = 0.000608
 c8bf                                   6      0.0000       0.00000       A     3.31528e-01     4.13628e-01    ;  uncertainty sigma = 0.000009, epsilon = 0.000546
 c9bf                                   6      0.0000       0.00000       A     3.31531e-01     4.13205e-01    ;  uncertainty sigma = 0.000015, epsilon = 0.000623
 o10bf                                  8      0.0000       0.00000       A     3.15560e-01     3.01903e-01    ;  uncertainty sigma = 0.000035, epsilon = 0.001496
 c11bf                                  6      0.0000       0.00000       A     3.31495e-01     4.13941e-01    ;  uncertainty sigma = 0.000010, epsilon = 0.001010
 c12bf                                  6      0.0000       0.00000       A     3.31520e-01     4.13586e-01    ;  uncertainty sigma = 0.000002, epsilon = 0.000805
 c13bf                                  6      0.0000       0.00000       A     3.31497e-01     4.13352e-01    ;  uncertainty sigma = 0.000008, epsilon = 0.000492
 f14bf                                  9      0.0000       0.00000       A     3.03420e-01     3.47893e-01    ;  uncertainty sigma = 0.000010, epsilon = 0.000765
 c15bf                                  6      0.0000       0.00000       A     3.31510e-01     4.13401e-01    ;  uncertainty sigma = 0.000009, epsilon = 0.000546
 c16bf                                  6      0.0000       0.00000       A     3.31508e-01     4.13715e-01    ;  uncertainty sigma = 0.000016, epsilon = 0.000826
 c17bf                                  6      0.0000       0.00000       A     3.47927e-01     6.68046e-01    ;  uncertainty sigma = 0.000023, epsilon = 0.001608
 c18bf                                  6      0.0000       0.00000       A     3.31520e-01     4.13321e-01    ;  uncertainty sigma = 0.000008, epsilon = 0.000748
 s19bf                                 16      0.0000       0.00000       A     4.05857e-01     2.55880e-01    ;  uncertainty sigma = 0.000020, epsilon = 0.001911
 o20bf                                  8      0.0000       0.00000       A     3.04791e-01     6.12049e-01    ;  uncertainty sigma = 0.000024, epsilon = 0.000962
 o21bf                                  8      0.0000       0.00000       A     3.04791e-01     6.12049e-01    ;  uncertainty sigma = 0.000024, epsilon = 0.000962
 c22bf                                  6      0.0000       0.00000       A     3.39782e-01     4.50649e-01    ;  uncertainty sigma = 0.000005, epsilon = 0.001022
 f23bf                                  9      0.0000       0.00000       A     3.03449e-01     3.47672e-01    ;  uncertainty sigma = 0.000012, epsilon = 0.001616
 f24bf                                  9      0.0000       0.00000       A     3.03449e-01     3.47672e-01    ;  uncertainty sigma = 0.000012, epsilon = 0.001616
 n25bf                                  7      0.0000       0.00000       A     3.27375e-01     4.59084e-01    ;  uncertainty sigma = 0.000021, epsilon = 0.000492
 h26bf                                  1      0.0000       0.00000       A     5.38093e-02     1.93077e-02    ;  uncertainty sigma = 0.000062, epsilon = 0.000926
 h27bf                                  1      0.0000       0.00000       A     2.42326e-01     8.68827e-02    ;  uncertainty sigma = 0.000128, epsilon = 0.000858
 h28bf                                  1      0.0000       0.00000       A     2.60052e-01     8.67185e-02    ;  uncertainty sigma = 0.000035, epsilon = 0.000545
 h29bf                                  1      0.0000       0.00000       A     2.60052e-01     8.67184e-02    ;  uncertainty sigma = 0.000035, epsilon = 0.000545
 h30bf                                  1      0.0000       0.00000       A     2.62567e-01     6.72430e-02    ;  uncertainty sigma = 0.000020, epsilon = 0.000765
 h31bf                                  1      0.0000       0.00000       A     2.62556e-01     6.70855e-02    ;  uncertainty sigma = 0.000006, epsilon = 0.000381
 h32bf                                  1      0.0000       0.00000       A     2.62552e-01     6.72491e-02    ;  uncertainty sigma = 0.000007, epsilon = 0.000350
 h33bf                                  1      0.0000       0.00000       A     2.62545e-01     6.70249e-02    ;  uncertainty sigma = 0.000017, epsilon = 0.000507
 h34bf                                  1      0.0000       0.00000       A     2.62547e-01     6.71166e-02    ;  uncertainty sigma = 0.000014, epsilon = 0.000743
 h35bf                                  1      0.0000       0.00000       A     2.42169e-01     8.68377e-02    ;  uncertainty sigma = 0.000012, epsilon = 0.000624
 h36bf                                  1      0.0000       0.00000       A     2.42169e-01     8.68377e-02    ;  uncertainty sigma = 0.000012, epsilon = 0.000623
 h37bf                                  1      0.0000       0.00000       A     2.42169e-01     8.68378e-02    ;  uncertainty sigma = 0.000012, epsilon = 0.000623

[ moleculetype ]
;name             nrexcl
 MOL                   3

[ atoms ]
;       nr            type      resi   res      atom      cgnr      charge          mass ; qtot
         1            o0bf         1   UNL        o0         1    -0.57153       15.9990 ; qtot   -0.572
         2            c1bf         1   UNL        c1         2     0.16359       12.0110 ; qtot   -0.408
         3            c2bf         1   UNL        c2         3     0.38805       12.0110 ; qtot   -0.020
         4            c3bf         1   UNL        c3         4    -0.05626       12.0110 ; qtot   -0.076
         5            c4bf         1   UNL        c4         5    -0.10138       12.0110 ; qtot   -0.178
         6            c5bf         1   UNL        c5         6     0.00215       12.0110 ; qtot   -0.175
         7            c6bf         1   UNL        c6         7    -0.22309       12.0110 ; qtot   -0.398
         8            c7bf         1   UNL        c7         8    -0.01424       12.0110 ; qtot   -0.413
         9            c8bf         1   UNL        c8         9    -0.17784       12.0110 ; qtot   -0.591
        10            c9bf         1   UNL        c9        10     0.16711       12.0110 ; qtot   -0.423
        11           o10bf         1   UNL       o10        11    -0.24701       15.9990 ; qtot   -0.670
        12           c11bf         1   UNL       c11        12     0.15098       12.0110 ; qtot   -0.519
        13           c12bf         1   UNL       c12        13    -0.18271       12.0110 ; qtot   -0.702
        14           c13bf         1   UNL       c13        14     0.15843       12.0110 ; qtot   -0.544
        15           f14bf         1   UNL       f14        15    -0.12713       18.9980 ; qtot   -0.671
        16           c15bf         1   UNL       c15        16    -0.15485       12.0110 ; qtot   -0.826
        17           c16bf         1   UNL       c16        17     0.03943       12.0110 ; qtot   -0.786
        18           c17bf         1   UNL       c17        18     0.22805       12.0110 ; qtot   -0.558
        19           c18bf         1   UNL       c18        19    -0.13883       12.0110 ; qtot   -0.697
        20           s19bf         1   UNL       s19        20     1.01909       32.0670 ; qtot    0.322
        21           o20bf         1   UNL       o20        21    -0.57914       15.9990 ; qtot   -0.257
        22           o21bf         1   UNL       o21        22    -0.57914       15.9990 ; qtot   -0.836
        23           c22bf         1   UNL       c22        23    -0.18581       12.0110 ; qtot   -1.022
        24           f23bf         1   UNL       f23        24    -0.22758       18.9980 ; qtot   -1.250
        25           f24bf         1   UNL       f24        25    -0.22758       18.9980 ; qtot   -1.477
        26           n25bf         1   UNL       n25        26    -0.34869       14.0070 ; qtot   -1.826
        27           h26bf         1   UNL       h26        27     0.41807        1.0080 ; qtot   -1.408
        28           h27bf         1   UNL       h27        28     0.09251        1.0080 ; qtot   -1.315
        29           h28bf         1   UNL       h28        29     0.09141        1.0080 ; qtot   -1.224
        30           h29bf         1   UNL       h29        30     0.09141        1.0080 ; qtot   -1.133
        31           h30bf         1   UNL       h30        31     0.16421        1.0080 ; qtot   -0.968
        32           h31bf         1   UNL       h31        32     0.15782        1.0080 ; qtot   -0.811
        33           h32bf         1   UNL       h32        33     0.16858        1.0080 ; qtot   -0.642
        34           h33bf         1   UNL       h33        34     0.16624        1.0080 ; qtot   -0.476
        35           h34bf         1   UNL       h34        35     0.16647        1.0080 ; qtot   -0.309
        36           h35bf         1   UNL       h35        36     0.10307        1.0080 ; qtot   -0.206
        37           h36bf         1   UNL       h36        37     0.10307        1.0080 ; qtot   -0.103
        38           h37bf         1   UNL       h37        38     0.10307        1.0080 ; qtot   -0.000

[ bonds ]
;       ai        aj funct               r               k
         1         2     1        0.141341   266784.598340    ;  uncertainty r = 0.000175, k = 15.524028
         1        27     1        0.097120   457921.536914    ;  uncertainty r = 0.000049, k = 2.604885
         2         3     1        0.154750   188145.853564    ;  uncertainty r = 0.000252, k = 8.551885
         2         6     1        0.151723   244782.718701    ;  uncertainty r = 0.000136, k = 23.418546
         2        28     1        0.109523   308370.733936    ;  uncertainty r = 0.000079, k = 3.008193
         3         4     1        0.153436   201677.482617    ;  uncertainty r = 0.000098, k = 9.661873
         3        24     1        0.137560   301163.370020    ;  uncertainty r = 0.000061, k = 5.585031
         3        25     1        0.137560   301163.370020    ;  uncertainty r = 0.000061, k = 5.585031
         4         5     1        0.151090   252656.524561    ;  uncertainty r = 0.000114, k = 18.986535
         4        29     1        0.109406   310072.348145    ;  uncertainty r = 0.000044, k = 1.784813
         4        30     1        0.109406   310072.348145    ;  uncertainty r = 0.000044, k = 1.784813
         5         6     1        0.139537   361944.039746    ;  uncertainty r = 0.000131, k = 18.927627
         5        10     1        0.138874   352248.390967    ;  uncertainty r = 0.000123, k = 4.466178
         6         7     1        0.139327   334327.341406    ;  uncertainty r = 0.000111, k = 12.556522
         7         8     1        0.139276   348439.020361    ;  uncertainty r = 0.000169, k = 3.228603
         7        20     1        0.179287   144923.465991    ;  uncertainty r = 0.000115, k = 16.512142
         8         9     1        0.139189   367471.240625    ;  uncertainty r = 0.000069, k = 3.496435
         8        31     1        0.108504   328712.497168    ;  uncertainty r = 0.000047, k = 1.273804
         9        10     1        0.139689   352955.794434    ;  uncertainty r = 0.000048, k = 6.725251
         9        32     1        0.108753   336163.893701    ;  uncertainty r = 0.000031, k = 1.172871
        10        11     1        0.138287   316815.907080    ;  uncertainty r = 0.000141, k = 11.446028
        11        12     1        0.137077   316895.097656    ;  uncertainty r = 0.000110, k = 9.258264
        12        13     1        0.139427   359163.303906    ;  uncertainty r = 0.000040, k = 4.028925
        12        19     1        0.139179   355512.646436    ;  uncertainty r = 0.000043, k = 0.656935
        13        14     1        0.138903   360755.951270    ;  uncertainty r = 0.000040, k = 3.414912
        13        33     1        0.108801   339525.062500    ;  uncertainty r = 0.000019, k = 1.519211
        14        15     1        0.134939   340193.470801    ;  uncertainty r = 0.000095, k = 3.973496
        14        16     1        0.138772   359379.322314    ;  uncertainty r = 0.000049, k = 1.285215
        16        17     1        0.140293   363423.557715    ;  uncertainty r = 0.000073, k = 1.983955
        16        34     1        0.108643   335847.029248    ;  uncertainty r = 0.000020, k = 0.933262
        17        18     1        0.143666   316064.886230    ;  uncertainty r = 0.000041, k = 3.494324
        17        19     1        0.140042   357603.165283    ;  uncertainty r = 0.000048, k = 4.155025
        18        26     1        0.116625  1127949.809766    ;  uncertainty r = 0.000026, k = 2.900562
        19        35     1        0.108681   335495.357715    ;  uncertainty r = 0.000025, k = 1.572342
        20        21     1        0.147580   512419.056250    ;  uncertainty r = 0.000065, k = 2.863474
        20        22     1        0.147580   512419.056250    ;  uncertainty r = 0.000065, k = 2.863474
        20        23     1        0.181275   175793.094092    ;  uncertainty r = 0.000034, k = 12.187133
        23        36     1        0.109296   321460.851904    ;  uncertainty r = 0.000032, k = 1.852504
        23        37     1        0.109296   321460.851904    ;  uncertainty r = 0.000032, k = 1.852504
        23        38     1        0.109296   321460.851904    ;  uncertainty r = 0.000032, k = 1.852504

[ angles ]
;       ai        aj        ak funct           theta             cth
         1         2         3     1      107.410141      628.438511    ;  uncertainty theta = 0.008670, k = 0.247901
         1         2         6     1      112.352455      675.991418    ;  uncertainty theta = 0.006094, k = 0.205580
         1         2        28     1      108.003479      442.344456    ;  uncertainty theta = 0.007986, k = 0.200175
         2         1        27     1      107.329124      457.634098    ;  uncertainty theta = 0.001447, k = 0.131498
         2         3         4     1      111.123581      611.251015    ;  uncertainty theta = 0.003918, k = 0.280397
         2         3        24     1      109.530434      593.873012    ;  uncertainty theta = 0.003178, k = 0.146818
         2         3        25     1      109.530434      593.873012    ;  uncertainty theta = 0.003178, k = 0.146818
         2         6         5     1      115.410240      509.777044    ;  uncertainty theta = 0.004426, k = 0.179372
         2         6         7     1      124.912560      357.808547    ;  uncertainty theta = 0.004156, k = 0.180018
         3         2         6     1      104.711624      716.990289    ;  uncertainty theta = 0.005409, k = 0.228032
         3         2        28     1      107.064758      384.815956    ;  uncertainty theta = 0.005442, k = 0.198908
         3         4         5     1      103.987465      711.936176    ;  uncertainty theta = 0.005472, k = 0.351798
         3         4        29     1      107.225937      380.179726    ;  uncertainty theta = 0.002622, k = 0.088553
         3         4        30     1      107.225937      380.179694    ;  uncertainty theta = 0.002622, k = 0.088553
         4         3        24     1      111.588036      659.455501    ;  uncertainty theta = 0.002894, k = 0.086543
         4         3        25     1      111.588036      659.455501    ;  uncertainty theta = 0.002894, k = 0.086543
         4         5         6     1      115.272667      534.571024    ;  uncertainty theta = 0.004942, k = 0.050357
         4         5        10     1      125.782852      387.701394    ;  uncertainty theta = 0.006394, k = 0.185200
         5         4        29     1      110.505714      380.194186    ;  uncertainty theta = 0.002396, k = 0.102522
         5         4        30     1      110.505722      380.194250    ;  uncertainty theta = 0.002396, k = 0.102521
         5         6         7     1      121.489037      426.820000    ;  uncertainty theta = 0.007619, k = 0.189101
         5        10         9     1      120.340919      383.447390    ;  uncertainty theta = 0.004246, k = 0.224386
         5        10        11     1      118.107956      403.477741    ;  uncertainty theta = 0.007451, k = 0.369876
         6         2        28     1      109.860855      376.528781    ;  uncertainty theta = 0.004226, k = 0.163535
         6         5        10     1      119.444565      420.043760    ;  uncertainty theta = 0.001876, k = 0.146348
         6         7         8     1      122.548668      449.343922    ;  uncertainty theta = 0.006027, k = 0.104715
         6         7        20     1      117.495750      336.239394    ;  uncertainty theta = 0.008123, k = 0.211168
         7         8         9     1      121.450378      493.785132    ;  uncertainty theta = 0.005274, k = 0.054584
         7         8        31     1      118.834206      261.929694    ;  uncertainty theta = 0.002619, k = 0.108553
         7        20        21     1      113.082787      606.896235    ;  uncertainty theta = 0.002779, k = 0.245503
         7        20        22     1      113.082787      606.896235    ;  uncertainty theta = 0.002779, k = 0.245503
         7        20        23     1      104.821449      606.977060    ;  uncertainty theta = 0.001301, k = 0.048202
         8         7        20     1      117.068771      360.133031    ;  uncertainty theta = 0.006504, k = 0.156042
         8         9        10     1      120.022095      512.890050    ;  uncertainty theta = 0.001614, k = 0.054349
         8         9        32     1      120.278748      277.936865    ;  uncertainty theta = 0.001417, k = 0.051834
         9         8        31     1      120.454002      281.057659    ;  uncertainty theta = 0.002477, k = 0.059570
         9        10        11     1      120.826584      434.003685    ;  uncertainty theta = 0.002615, k = 0.200703
        10         9        32     1      120.189857      275.876978    ;  uncertainty theta = 0.002292, k = 0.072971
        10        11        12     1      112.663620      472.674785    ;  uncertainty theta = 0.002352, k = 0.096123
        11        12        13     1      119.026627      419.851465    ;  uncertainty theta = 0.002706, k = 0.052294
        11        12        19     1      119.290588      404.135418    ;  uncertainty theta = 0.003651, k = 0.053296
        12        13        14     1      117.038597      502.569227    ;  uncertainty theta = 0.003445, k = 0.110867
        12        13        33     1      121.702477      272.440034    ;  uncertainty theta = 0.003455, k = 0.132527
        12        19        17     1      118.761208      522.894787    ;  uncertainty theta = 0.001489, k = 0.068180
        12        19        35     1      120.905983      280.332437    ;  uncertainty theta = 0.002004, k = 0.062093
        13        12        19     1      122.428162      385.560203    ;  uncertainty theta = 0.005403, k = 0.175952
        13        14        15     1      118.267052      494.604714    ;  uncertainty theta = 0.001988, k = 0.058359
        13        14        16     1      123.726730      369.147375    ;  uncertainty theta = 0.006010, k = 0.127235
        14        13        33     1      121.505081      285.104493    ;  uncertainty theta = 0.003243, k = 0.069272
        14        16        17     1      117.400681      493.697380    ;  uncertainty theta = 0.001506, k = 0.173040
        14        16        34     1      121.339279      286.173157    ;  uncertainty theta = 0.003120, k = 0.038569
        15        14        16     1      118.689796      499.274046    ;  uncertainty theta = 0.003051, k = 0.052524
        16        17        18     1      119.117836      375.204905    ;  uncertainty theta = 0.002733, k = 0.097877
        16        17        19     1      122.566833      457.580470    ;  uncertainty theta = 0.002293, k = 0.135282
        17        16        34     1      121.185242      278.472122    ;  uncertainty theta = 0.003138, k = 0.095958
        17        18        26     1      180.000000      233.555922    ;  uncertainty theta = 0.000000, k = 0.675784
        17        19        35     1      120.586197      284.638441    ;  uncertainty theta = 0.004219, k = 0.089604
        18        17        19     1      118.919228      375.151182    ;  uncertainty theta = 0.002637, k = 0.097444
        20        23        36     1      107.091141      365.748673    ;  uncertainty theta = 0.000911, k = 0.032818
        20        23        37     1      107.091141      365.748673    ;  uncertainty theta = 0.000911, k = 0.032818
        20        23        38     1      107.091141      365.748673    ;  uncertainty theta = 0.000911, k = 0.032818
        21        20        22     1      123.749496      835.305888    ;  uncertainty theta = 0.001537, k = 0.034574
        21        20        23     1      112.725998      740.054959    ;  uncertainty theta = 0.002021, k = 0.038936
        22        20        23     1      112.725998      740.054959    ;  uncertainty theta = 0.002021, k = 0.038936
        24         3        25     1      107.133316      788.630883    ;  uncertainty theta = 0.004222, k = 0.140640
        29         4        30     1      105.669456      291.017291    ;  uncertainty theta = 0.002858, k = 0.056929
        36        23        37     1      108.798363      296.170520    ;  uncertainty theta = 0.002208, k = 0.021202
        36        23        38     1      108.798363      296.170520    ;  uncertainty theta = 0.002208, k = 0.021202
        37        23        38     1      108.798363      296.170520    ;  uncertainty theta = 0.002208, k = 0.021202

[ dihedrals ] ; propers for gromacs 4.5 or higher, use funct 9
;       ai        aj        ak        al funct           phase               k        pn
         1         2         3         4     9        0.000000       -2.647338         1    ;  uncertainty k = 0.986579
         1         2         3         4     9      180.000000        1.652150         2    ;  uncertainty k = 0.518109
         1         2         3         4     9        0.000000        1.033401         3    ;  uncertainty k = 0.310740
         1         2         3         4     9      180.000000        0.042296         4    ;  uncertainty k = 0.270326
         1         2         3        24     9        0.000000       -0.282027         1    ;  uncertainty k = 1.406562
         1         2         3        24     9      180.000000        0.319715         2    ;  uncertainty k = 0.697098
         1         2         3        24     9        0.000000        1.460301         3    ;  uncertainty k = 0.368849
         1         2         3        24     9      180.000000        0.083291         4    ;  uncertainty k = 0.260871
         1         2         3        25     9        0.000000       -0.282027         1    ;  uncertainty k = 1.406562
         1         2         3        25     9      180.000000        0.319715         2    ;  uncertainty k = 0.697098
         1         2         3        25     9        0.000000        1.460301         3    ;  uncertainty k = 0.368849
         1         2         3        25     9      180.000000        0.083291         4    ;  uncertainty k = 0.260871
         1         2         6         5     9        0.000000       -4.179736         1    ;  uncertainty k = 2.250557
         1         2         6         5     9      180.000000        4.857700         2    ;  uncertainty k = 1.174849
         1         2         6         5     9        0.000000        1.077946         3    ;  uncertainty k = 0.695879
         1         2         6         5     9      180.000000        0.597958         4    ;  uncertainty k = 0.215354
         1         2         6         7     9        0.000000       -1.382138         1    ;  uncertainty k = 1.326128
         1         2         6         7     9      180.000000        3.413217         2    ;  uncertainty k = 0.230281
         1         2         6         7     9        0.000000       -0.118282         3    ;  uncertainty k = 0.267426
         1         2         6         7     9      180.000000        0.455005         4    ;  uncertainty k = 0.193326
         2         3         4         5     9        0.000000       -0.343517         1    ;  uncertainty k = 1.847992
         2         3         4         5     9      180.000000        1.882240         2    ;  uncertainty k = 0.624184
         2         3         4         5     9        0.000000       -0.007238         3    ;  uncertainty k = 0.517955
         2         3         4         5     9      180.000000       -0.165939         4    ;  uncertainty k = 0.372661
         2         3         4        29     9        0.000000       -0.273393         1    ;  uncertainty k = 0.290133
         2         3         4        29     9      180.000000       -0.226858         2    ;  uncertainty k = 0.647079
         2         3         4        29     9        0.000000       -0.001285         3    ;  uncertainty k = 0.213938
         2         3         4        29     9      180.000000       -0.023110         4    ;  uncertainty k = 0.191048
         2         3         4        30     9        0.000000       -0.273391         1    ;  uncertainty k = 0.290130
         2         3         4        30     9      180.000000       -0.226858         2    ;  uncertainty k = 0.647078
         2         3         4        30     9        0.000000       -0.001285         3    ;  uncertainty k = 0.213938
         2         3         4        30     9      180.000000       -0.023110         4    ;  uncertainty k = 0.191048
         2         6         5         4     9        0.000000        0.563487         1    ;  uncertainty k = 0.590609
         2         6         5         4     9      180.000000       11.734519         2    ;  uncertainty k = 0.633277
         2         6         5         4     9        0.000000       -0.493617         3    ;  uncertainty k = 0.931182
         2         6         5         4     9      180.000000        1.192741         4    ;  uncertainty k = 0.283697
         2         6         5        10     9        0.000000        0.617855         1    ;  uncertainty k = 0.530567
         2         6         5        10     9      180.000000        8.611012         2    ;  uncertainty k = 0.378628
         2         6         5        10     9        0.000000        0.664604         3    ;  uncertainty k = 0.278590
         2         6         5        10     9      180.000000        1.266824         4    ;  uncertainty k = 0.178525
         2         6         7         8     9        0.000000        0.335835         1    ;  uncertainty k = 0.501372
         2         6         7         8     9      180.000000        6.695341         2    ;  uncertainty k = 0.171193
         2         6         7         8     9        0.000000        1.251482         3    ;  uncertainty k = 0.185553
         2         6         7         8     9      180.000000        1.604439         4    ;  uncertainty k = 0.125628
         2         6         7        20     9        0.000000       -0.111515         1    ;  uncertainty k = 0.818345
         2         6         7        20     9      180.000000        6.715888         2    ;  uncertainty k = 0.509184
         2         6         7        20     9        0.000000        1.013534         3    ;  uncertainty k = 0.150875
         2         6         7        20     9      180.000000        1.216507         4    ;  uncertainty k = 0.199634
         3         2         1        27     9        0.000000       13.878324         1    ;  uncertainty k = 0.471464
         3         2         1        27     9      180.000000       -4.488746         2    ;  uncertainty k = 0.235496
         3         2         1        27     9        0.000000        1.023469         3    ;  uncertainty k = 0.242500
         3         2         1        27     9      180.000000        0.093198         4    ;  uncertainty k = 0.074143
         3         2         6         5     9        0.000000       -0.807527         1    ;  uncertainty k = 2.057160
         3         2         6         5     9      180.000000        8.609249         2    ;  uncertainty k = 1.026915
         3         2         6         5     9        0.000000       -1.068839         3    ;  uncertainty k = 0.488562
         3         2         6         5     9      180.000000        0.867961         4    ;  uncertainty k = 0.265289
         3         2         6         7     9        0.000000       -1.568833         1    ;  uncertainty k = 1.365680
         3         2         6         7     9      180.000000        3.652740         2    ;  uncertainty k = 0.572314
         3         2         6         7     9        0.000000        0.126348         3    ;  uncertainty k = 0.362760
         3         2         6         7     9      180.000000        0.661669         4    ;  uncertainty k = 0.248240
         3         4         5         6     9        0.000000       -2.099061         1    ;  uncertainty k = 1.580695
         3         4         5         6     9      180.000000        9.583122         2    ;  uncertainty k = 0.533021
         3         4         5         6     9        0.000000       -1.807467         3    ;  uncertainty k = 0.398975
         3         4         5         6     9      180.000000        0.941191         4    ;  uncertainty k = 0.130112
         3         4         5        10     9        0.000000       -0.358544         1    ;  uncertainty k = 0.756637
         3         4         5        10     9      180.000000        2.392009         2    ;  uncertainty k = 0.572052
         3         4         5        10     9        0.000000        0.130586         3    ;  uncertainty k = 0.228072
         3         4         5        10     9      180.000000        0.633389         4    ;  uncertainty k = 0.116399
         4         3         2         6     9        0.000000       -0.272332         1    ;  uncertainty k = 1.879280
         4         3         2         6     9      180.000000        1.239633         2    ;  uncertainty k = 0.641064
         4         3         2         6     9        0.000000        0.100530         3    ;  uncertainty k = 0.262273
         4         3         2         6     9      180.000000       -0.058192         4    ;  uncertainty k = 0.267878
         4         3         2        28     9        0.000000       -0.827317         1    ;  uncertainty k = 0.603778
         4         3         2        28     9      180.000000        0.450455         2    ;  uncertainty k = 0.547083
         4         3         2        28     9        0.000000        0.144562         3    ;  uncertainty k = 0.273661
         4         3         2        28     9      180.000000       -0.113838         4    ;  uncertainty k = 0.222036
         4         5         6         7     9        0.000000        0.254001         1    ;  uncertainty k = 0.553112
         4         5         6         7     9      180.000000        8.737780         2    ;  uncertainty k = 0.455120
         4         5         6         7     9        0.000000        0.699279         3    ;  uncertainty k = 0.417427
         4         5         6         7     9      180.000000        1.196896         4    ;  uncertainty k = 0.235929
         4         5        10         9     9        0.000000        0.518459         1    ;  uncertainty k = 0.343130
         4         5        10         9     9      180.000000        6.344712         2    ;  uncertainty k = 0.275591
         4         5        10         9     9        0.000000        1.307764         3    ;  uncertainty k = 0.252094
         4         5        10         9     9      180.000000        1.607039         4    ;  uncertainty k = 0.311378
         4         5        10        11     9        0.000000       -0.257660         1    ;  uncertainty k = 0.669531
         4         5        10        11     9      180.000000        8.945578         2    ;  uncertainty k = 0.234197
         4         5        10        11     9        0.000000        1.031989         3    ;  uncertainty k = 0.243259
         4         5        10        11     9      180.000000        1.251300         4    ;  uncertainty k = 0.160527
         5         4         3        24     9        0.000000       -0.911684         1    ;  uncertainty k = 0.942710
         5         4         3        24     9      180.000000        0.727772         2    ;  uncertainty k = 0.486490
         5         4         3        24     9        0.000000        1.114750         3    ;  uncertainty k = 0.312374
         5         4         3        24     9      180.000000        0.251148         4    ;  uncertainty k = 0.035387
         5         4         3        25     9        0.000000       -0.911684         1    ;  uncertainty k = 0.942710
         5         4         3        25     9      180.000000        0.727772         2    ;  uncertainty k = 0.486490
         5         4         3        25     9        0.000000        1.114750         3    ;  uncertainty k = 0.312374
         5         4         3        25     9      180.000000        0.251148         4    ;  uncertainty k = 0.035387
         5         6         2        28     9        0.000000       -0.799110         1    ;  uncertainty k = 0.614691
         5         6         2        28     9      180.000000        3.182750         2    ;  uncertainty k = 0.717130
         5         6         2        28     9        0.000000        0.780967         3    ;  uncertainty k = 0.177585
         5         6         2        28     9      180.000000        0.225409         4    ;  uncertainty k = 0.137774
         5         6         7         8     9        0.000000       -0.342500         1    ;  uncertainty k = 0.509769
         5         6         7         8     9      180.000000       10.061614         2    ;  uncertainty k = 0.477879
         5         6         7         8     9        0.000000       -0.634176         3    ;  uncertainty k = 0.383372
         5         6         7         8     9      180.000000        0.880427         4    ;  uncertainty k = 0.249327
         5         6         7        20     9        0.000000        0.616193         1    ;  uncertainty k = 0.976201
         5         6         7        20     9      180.000000        7.610669         2    ;  uncertainty k = 0.833643
         5         6         7        20     9        0.000000        1.514375         3    ;  uncertainty k = 0.544511
         5         6         7        20     9      180.000000        1.631525         4    ;  uncertainty k = 0.214606
         5        10         9         8     9        0.000000        0.280245         1    ;  uncertainty k = 0.258572
         5        10         9         8     9      180.000000        9.122248         2    ;  uncertainty k = 0.404933
         5        10         9         8     9        0.000000        0.207896         3    ;  uncertainty k = 0.442327
         5        10         9         8     9      180.000000        1.318152         4    ;  uncertainty k = 0.318671
         5        10         9        32     9        0.000000        0.158717         1    ;  uncertainty k = 0.363089
         5        10         9        32     9      180.000000        6.833378         2    ;  uncertainty k = 0.494089
         5        10         9        32     9        0.000000        1.376457         3    ;  uncertainty k = 0.512680
         5        10         9        32     9      180.000000        1.599173         4    ;  uncertainty k = 0.100053
         5        10        11        12     9        0.000000        4.406622         1    ;  uncertainty k = 0.673853
         5        10        11        12     9      180.000000        4.923066         2    ;  uncertainty k = 0.276197
         5        10        11        12     9        0.000000        0.710107         3    ;  uncertainty k = 0.032223
         5        10        11        12     9      180.000000        0.153279         4    ;  uncertainty k = 0.078226
         6         2         1        27     9        0.000000       14.766720         1    ;  uncertainty k = 0.394435
         6         2         1        27     9      180.000000       -3.759770         2    ;  uncertainty k = 0.634810
         6         2         1        27     9        0.000000        1.022381         3    ;  uncertainty k = 0.166311
         6         2         1        27     9      180.000000        0.077647         4    ;  uncertainty k = 0.054394
         6         2         3        24     9        0.000000        0.060211         1    ;  uncertainty k = 0.948655
         6         2         3        24     9      180.000000        0.587645         2    ;  uncertainty k = 0.967573
         6         2         3        24     9        0.000000        0.941541         3    ;  uncertainty k = 0.190284
         6         2         3        24     9      180.000000        0.254526         4    ;  uncertainty k = 0.052110
         6         2         3        25     9        0.000000        0.060211         1    ;  uncertainty k = 0.948655
         6         2         3        25     9      180.000000        0.587645         2    ;  uncertainty k = 0.967573
         6         2         3        25     9        0.000000        0.941541         3    ;  uncertainty k = 0.190284
         6         2         3        25     9      180.000000        0.254526         4    ;  uncertainty k = 0.052110
         6         5         4        29     9        0.000000       -0.197047         1    ;  uncertainty k = 0.397255
         6         5         4        29     9      180.000000        1.705944         2    ;  uncertainty k = 0.330542
         6         5         4        29     9        0.000000        0.272656         3    ;  uncertainty k = 0.105170
         6         5         4        29     9      180.000000        0.226928         4    ;  uncertainty k = 0.108175
         6         5         4        30     9        0.000000       -0.197047         1    ;  uncertainty k = 0.397256
         6         5         4        30     9      180.000000        1.705945         2    ;  uncertainty k = 0.330542
         6         5         4        30     9        0.000000        0.272655         3    ;  uncertainty k = 0.105170
         6         5         4        30     9      180.000000        0.226928         4    ;  uncertainty k = 0.108174
         6         5        10         9     9        0.000000       -0.207477         1    ;  uncertainty k = 0.201096
         6         5        10         9     9      180.000000        8.229922         2    ;  uncertainty k = 0.547118
         6         5        10         9     9        0.000000       -0.449906         3    ;  uncertainty k = 0.466078
         6         5        10         9     9      180.000000        1.068029         4    ;  uncertainty k = 0.293923
         6         5        10        11     9        0.000000       -0.005042         1    ;  uncertainty k = 0.232091
         6         5        10        11     9      180.000000        9.748934         2    ;  uncertainty k = 0.348138
         6         5        10        11     9        0.000000        1.383018         3    ;  uncertainty k = 0.262470
         6         5        10        11     9      180.000000        1.503389         4    ;  uncertainty k = 0.176972
         6         7         8         9     9        0.000000       -0.233257         1    ;  uncertainty k = 0.449579
         6         7         8         9     9      180.000000       10.274183         2    ;  uncertainty k = 0.540561
         6         7         8         9     9        0.000000       -0.280207         3    ;  uncertainty k = 0.393771
         6         7         8         9     9      180.000000        1.061252         4    ;  uncertainty k = 0.405907
         6         7         8        31     9        0.000000        0.018528         1    ;  uncertainty k = 0.436800
         6         7         8        31     9      180.000000        7.335572         2    ;  uncertainty k = 0.550583
         6         7         8        31     9        0.000000        1.276814         3    ;  uncertainty k = 0.441951
         6         7         8        31     9      180.000000        1.641330         4    ;  uncertainty k = 0.128830
         6         7        20        21     9        0.000000       -1.760759         1    ;  uncertainty k = 1.511653
         6         7        20        21     9      180.000000        0.641175         2    ;  uncertainty k = 0.243938
         6         7        20        21     9        0.000000        0.467412         3    ;  uncertainty k = 0.117650
         6         7        20        21     9      180.000000       -0.000489         4    ;  uncertainty k = 0.152261
         6         7        20        22     9        0.000000       -1.760759         1    ;  uncertainty k = 1.511653
         6         7        20        22     9      180.000000        0.641175         2    ;  uncertainty k = 0.243938
         6         7        20        22     9        0.000000        0.467412         3    ;  uncertainty k = 0.117650
         6         7        20        22     9      180.000000       -0.000489         4    ;  uncertainty k = 0.152261
         6         7        20        23     9        0.000000        1.890159         1    ;  uncertainty k = 1.390076
         6         7        20        23     9      180.000000        0.002262         2    ;  uncertainty k = 0.309537
         6         7        20        23     9        0.000000        0.482256         3    ;  uncertainty k = 0.446738
         6         7        20        23     9      180.000000        0.325411         4    ;  uncertainty k = 0.139824
         7         6         2        28     9        0.000000        1.551276         1    ;  uncertainty k = 0.896742
         7         6         2        28     9      180.000000        2.266270         2    ;  uncertainty k = 0.595127
         7         6         2        28     9        0.000000       -0.122899         3    ;  uncertainty k = 0.085075
         7         6         2        28     9      180.000000        0.174017         4    ;  uncertainty k = 0.218348
         7         6         5        10     9        0.000000       -0.006697         1    ;  uncertainty k = 0.671054
         7         6         5        10     9      180.000000        8.483752         2    ;  uncertainty k = 0.371347
         7         6         5        10     9        0.000000        0.108114         3    ;  uncertainty k = 0.212778
         7         6         5        10     9      180.000000        1.105140         4    ;  uncertainty k = 0.309860
         7         8         9        10     9        0.000000        0.147324         1    ;  uncertainty k = 0.305377
         7         8         9        10     9      180.000000       12.185240         2    ;  uncertainty k = 0.411442
         7         8         9        10     9        0.000000       -0.923964         3    ;  uncertainty k = 0.681561
         7         8         9        10     9      180.000000        0.867155         4    ;  uncertainty k = 0.362700
         7         8         9        32     9        0.000000       -0.035163         1    ;  uncertainty k = 0.554802
         7         8         9        32     9      180.000000        8.075942         2    ;  uncertainty k = 0.251180
         7         8         9        32     9        0.000000        1.209880         3    ;  uncertainty k = 0.217278
         7         8         9        32     9      180.000000        1.702182         4    ;  uncertainty k = 0.081112
         7        20        23        36     9        0.000000        2.487394         1    ;  uncertainty k = 1.032132
         7        20        23        36     9      180.000000       -2.818561         2    ;  uncertainty k = 0.665280
         7        20        23        36     9        0.000000        0.223573         3    ;  uncertainty k = 0.048188
         7        20        23        36     9      180.000000       -0.012767         4    ;  uncertainty k = 0.114234
         7        20        23        37     9        0.000000        2.487394         1    ;  uncertainty k = 1.032132
         7        20        23        37     9      180.000000       -2.818561         2    ;  uncertainty k = 0.665280
         7        20        23        37     9        0.000000        0.223573         3    ;  uncertainty k = 0.048188
         7        20        23        37     9      180.000000       -0.012767         4    ;  uncertainty k = 0.114234
         7        20        23        38     9        0.000000        2.487394         1    ;  uncertainty k = 1.032132
         7        20        23        38     9      180.000000       -2.818561         2    ;  uncertainty k = 0.665280
         7        20        23        38     9        0.000000        0.223573         3    ;  uncertainty k = 0.048188
         7        20        23        38     9      180.000000       -0.012767         4    ;  uncertainty k = 0.114234
         8         7        20        21     9        0.000000       -1.194620         1    ;  uncertainty k = 0.735994
         8         7        20        21     9      180.000000        0.883060         2    ;  uncertainty k = 0.747681
         8         7        20        21     9        0.000000        0.283093         3    ;  uncertainty k = 0.256703
         8         7        20        21     9      180.000000       -0.079117         4    ;  uncertainty k = 0.168994
         8         7        20        22     9        0.000000       -1.194620         1    ;  uncertainty k = 0.735994
         8         7        20        22     9      180.000000        0.883060         2    ;  uncertainty k = 0.747681
         8         7        20        22     9        0.000000        0.283093         3    ;  uncertainty k = 0.256703
         8         7        20        22     9      180.000000       -0.079117         4    ;  uncertainty k = 0.168994
         8         7        20        23     9        0.000000        1.084553         1    ;  uncertainty k = 1.144114
         8         7        20        23     9      180.000000        0.191807         2    ;  uncertainty k = 0.505016
         8         7        20        23     9        0.000000        0.100706         3    ;  uncertainty k = 0.400963
         8         7        20        23     9      180.000000        0.427495         4    ;  uncertainty k = 0.211814
         8         9        10        11     9        0.000000       -0.031194         1    ;  uncertainty k = 0.265015
         8         9        10        11     9      180.000000       10.936635         2    ;  uncertainty k = 0.457753
         8         9        10        11     9        0.000000        1.456429         3    ;  uncertainty k = 0.282214
         8         9        10        11     9      180.000000        1.741019         4    ;  uncertainty k = 0.232829
         9         8         7        20     9        0.000000        0.424240         1    ;  uncertainty k = 0.342873
         9         8         7        20     9      180.000000        8.761164         2    ;  uncertainty k = 0.424492
         9         8         7        20     9        0.000000        1.427371         3    ;  uncertainty k = 0.328447
         9         8         7        20     9      180.000000        1.836841         4    ;  uncertainty k = 0.100882
         9        10        11        12     9        0.000000        5.025463         1    ;  uncertainty k = 0.401377
         9        10        11        12     9      180.000000        5.549552         2    ;  uncertainty k = 0.166981
         9        10        11        12     9        0.000000        0.362215         3    ;  uncertainty k = 0.094990
         9        10        11        12     9      180.000000        0.190778         4    ;  uncertainty k = 0.085737
        10         5         4        29     9        0.000000        0.663848         1    ;  uncertainty k = 0.191361
        10         5         4        29     9      180.000000        1.639552         2    ;  uncertainty k = 0.602386
        10         5         4        29     9        0.000000        0.155148         3    ;  uncertainty k = 0.250582
        10         5         4        29     9      180.000000        0.226015         4    ;  uncertainty k = 0.144143
        10         5         4        30     9        0.000000        0.663847         1    ;  uncertainty k = 0.191361
        10         5         4        30     9      180.000000        1.639551         2    ;  uncertainty k = 0.602386
        10         5         4        30     9        0.000000        0.155149         3    ;  uncertainty k = 0.250583
        10         5         4        30     9      180.000000        0.226015         4    ;  uncertainty k = 0.144143
        10         9         8        31     9        0.000000       -0.127361         1    ;  uncertainty k = 0.290315
        10         9         8        31     9      180.000000        7.731877         2    ;  uncertainty k = 0.143827
        10         9         8        31     9        0.000000        1.067107         3    ;  uncertainty k = 0.211598
        10         9         8        31     9      180.000000        1.723182         4    ;  uncertainty k = 0.069705
        10        11        12        13     9        0.000000        4.215533         1    ;  uncertainty k = 0.350421
        10        11        12        13     9      180.000000        5.366357         2    ;  uncertainty k = 0.291064
        10        11        12        13     9        0.000000        0.432025         3    ;  uncertainty k = 0.135129
        10        11        12        13     9      180.000000        0.162533         4    ;  uncertainty k = 0.097194
        10        11        12        19     9        0.000000        4.241893         1    ;  uncertainty k = 0.379468
        10        11        12        19     9      180.000000        5.622853         2    ;  uncertainty k = 0.281623
        10        11        12        19     9        0.000000        0.386448         3    ;  uncertainty k = 0.154755
        10        11        12        19     9      180.000000        0.145124         4    ;  uncertainty k = 0.118699
        11        10         9        32     9        0.000000       -0.033482         1    ;  uncertainty k = 0.158654
        11        10         9        32     9      180.000000        9.066410         2    ;  uncertainty k = 0.360435
        11        10         9        32     9        0.000000        0.847939         3    ;  uncertainty k = 0.229120
        11        10         9        32     9      180.000000        1.131253         4    ;  uncertainty k = 0.138248
        11        12        13        14     9        0.000000        0.110616         1    ;  uncertainty k = 0.280260
        11        12        13        14     9      180.000000       10.825049         2    ;  uncertainty k = 0.268023
        11        12        13        14     9        0.000000        1.291452         3    ;  uncertainty k = 0.181954
        11        12        13        14     9      180.000000        1.601789         4    ;  uncertainty k = 0.123424
        11        12        13        33     9        0.000000       -0.096546         1    ;  uncertainty k = 0.131039
        11        12        13        33     9      180.000000        8.372996         2    ;  uncertainty k = 0.282068
        11        12        13        33     9        0.000000        0.828749         3    ;  uncertainty k = 0.203572
        11        12        13        33     9      180.000000        1.093044         4    ;  uncertainty k = 0.104496
        11        12        19        17     9        0.000000       -0.066703         1    ;  uncertainty k = 0.256317
        11        12        19        17     9      180.000000       11.317502         2    ;  uncertainty k = 0.454829
        11        12        19        17     9        0.000000        1.188762         3    ;  uncertainty k = 0.073630
        11        12        19        17     9      180.000000        1.617869         4    ;  uncertainty k = 0.138905
        11        12        19        35     9        0.000000        0.114391         1    ;  uncertainty k = 0.181010
        11        12        19        35     9      180.000000        8.496717         2    ;  uncertainty k = 0.306846
        11        12        19        35     9        0.000000        0.848986         3    ;  uncertainty k = 0.295991
        11        12        19        35     9      180.000000        1.147922         4    ;  uncertainty k = 0.169207
        12        13        14        15     9        0.000000        0.029267         1    ;  uncertainty k = 0.076351
        12        13        14        15     9      180.000000       12.681220         2    ;  uncertainty k = 0.591249
        12        13        14        15     9        0.000000        1.486062         3    ;  uncertainty k = 0.376399
        12        13        14        15     9      180.000000        1.475435         4    ;  uncertainty k = 0.279101
        12        13        14        16     9        0.000000       -0.041312         1    ;  uncertainty k = 0.166168
        12        13        14        16     9      180.000000        8.711743         2    ;  uncertainty k = 0.535595
        12        13        14        16     9        0.000000        0.058226         3    ;  uncertainty k = 0.483440
        12        13        14        16     9      180.000000        1.296510         4    ;  uncertainty k = 0.287570
        12        19        17        16     9        0.000000       -0.126135         1    ;  uncertainty k = 0.335758
        12        19        17        16     9      180.000000       11.543728         2    ;  uncertainty k = 0.211528
        12        19        17        16     9        0.000000       -0.409273         3    ;  uncertainty k = 0.525587
        12        19        17        16     9      180.000000        1.114605         4    ;  uncertainty k = 0.265123
        12        19        17        18     9        0.000000        0.008933         1    ;  uncertainty k = 0.224406
        12        19        17        18     9      180.000000       10.110912         2    ;  uncertainty k = 0.333390
        12        19        17        18     9        0.000000        1.306913         3    ;  uncertainty k = 0.264685
        12        19        17        18     9      180.000000        1.637563         4    ;  uncertainty k = 0.199965
        13        12        19        17     9        0.000000       -0.051322         1    ;  uncertainty k = 0.175220
        13        12        19        17     9      180.000000        9.609478         2    ;  uncertainty k = 0.403633
        13        12        19        17     9        0.000000        0.176055         3    ;  uncertainty k = 0.389800
        13        12        19        17     9      180.000000        1.259071         4    ;  uncertainty k = 0.358591
        13        12        19        35     9        0.000000        0.319861         1    ;  uncertainty k = 0.231991
        13        12        19        35     9      180.000000        6.318270         2    ;  uncertainty k = 0.750341
        13        12        19        35     9        0.000000        1.465273         3    ;  uncertainty k = 0.273057
        13        12        19        35     9      180.000000        1.603175         4    ;  uncertainty k = 0.165843
        13        14        16        17     9        0.000000       -0.019167         1    ;  uncertainty k = 0.236218
        13        14        16        17     9      180.000000        9.329732         2    ;  uncertainty k = 0.304985
        13        14        16        17     9        0.000000        0.099008         3    ;  uncertainty k = 0.304607
        13        14        16        17     9      180.000000        1.274852         4    ;  uncertainty k = 0.274241
        13        14        16        34     9        0.000000       -0.000593         1    ;  uncertainty k = 0.199602
        13        14        16        34     9      180.000000        5.887325         2    ;  uncertainty k = 0.750109
        13        14        16        34     9        0.000000        1.321078         3    ;  uncertainty k = 0.278410
        13        14        16        34     9      180.000000        1.516102         4    ;  uncertainty k = 0.088176
        14        13        12        19     9        0.000000        0.083575         1    ;  uncertainty k = 0.184356
        14        13        12        19     9      180.000000        9.069038         2    ;  uncertainty k = 0.673942
        14        13        12        19     9        0.000000        0.004877         3    ;  uncertainty k = 0.505260
        14        13        12        19     9      180.000000        1.219759         4    ;  uncertainty k = 0.386904
        14        16        17        18     9        0.000000        0.042737         1    ;  uncertainty k = 0.291483
        14        16        17        18     9      180.000000        9.815526         2    ;  uncertainty k = 0.311825
        14        16        17        18     9        0.000000        1.325513         3    ;  uncertainty k = 0.249458
        14        16        17        18     9      180.000000        1.659796         4    ;  uncertainty k = 0.165102
        14        16        17        19     9        0.000000       -0.093634         1    ;  uncertainty k = 0.287446
        14        16        17        19     9      180.000000       11.524169         2    ;  uncertainty k = 0.474663
        14        16        17        19     9        0.000000       -0.540684         3    ;  uncertainty k = 0.386751
        14        16        17        19     9      180.000000        1.065656         4    ;  uncertainty k = 0.270989
        15        14        13        33     9        0.000000       -0.266165         1    ;  uncertainty k = 0.229666
        15        14        13        33     9      180.000000        8.750384         2    ;  uncertainty k = 0.391886
        15        14        13        33     9        0.000000        0.839204         3    ;  uncertainty k = 0.231015
        15        14        13        33     9      180.000000        1.056841         4    ;  uncertainty k = 0.208951
        15        14        16        17     9        0.000000       -0.039623         1    ;  uncertainty k = 0.207167
        15        14        16        17     9      180.000000       13.467148         2    ;  uncertainty k = 0.458195
        15        14        16        17     9        0.000000        1.330325         3    ;  uncertainty k = 0.272641
        15        14        16        17     9      180.000000        1.408183         4    ;  uncertainty k = 0.220523
        15        14        16        34     9        0.000000       -0.317019         1    ;  uncertainty k = 0.306342
        15        14        16        34     9      180.000000        8.994255         2    ;  uncertainty k = 0.352455
        15        14        16        34     9        0.000000        0.799840         3    ;  uncertainty k = 0.209801
        15        14        16        34     9      180.000000        1.001169         4    ;  uncertainty k = 0.172439
        16        14        13        33     9        0.000000        0.117728         1    ;  uncertainty k = 0.152876
        16        14        13        33     9      180.000000        5.739162         2    ;  uncertainty k = 0.725581
        16        14        13        33     9        0.000000        1.354805         3    ;  uncertainty k = 0.319905
        16        14        13        33     9      180.000000        1.531360         4    ;  uncertainty k = 0.102992
        16        17        18        26     9        0.000000        0.000000         1    ;  uncertainty k = 0.000000
        16        17        18        26     9      180.000000        0.000000         2    ;  uncertainty k = 0.000000
        16        17        18        26     9        0.000000        0.000000         3    ;  uncertainty k = 0.000000
        16        17        18        26     9      180.000000        0.000000         4    ;  uncertainty k = 0.000000
        16        17        19        35     9        0.000000        0.266901         1    ;  uncertainty k = 0.392933
        16        17        19        35     9      180.000000        6.702181         2    ;  uncertainty k = 0.686766
        16        17        19        35     9        0.000000        1.492380         3    ;  uncertainty k = 0.274536
        16        17        19        35     9      180.000000        1.680830         4    ;  uncertainty k = 0.134103
        18        17        16        34     9        0.000000       -0.401280         1    ;  uncertainty k = 0.467937
        18        17        16        34     9      180.000000        7.099068         2    ;  uncertainty k = 0.224071
        18        17        16        34     9        0.000000        0.520905         3    ;  uncertainty k = 0.112594
        18        17        16        34     9      180.000000        0.955860         4    ;  uncertainty k = 0.230500
        18        17        19        35     9        0.000000       -0.303371         1    ;  uncertainty k = 0.311612
        18        17        19        35     9      180.000000        7.433399         2    ;  uncertainty k = 0.295932
        18        17        19        35     9        0.000000        0.543142         3    ;  uncertainty k = 0.139134
        18        17        19        35     9      180.000000        0.967541         4    ;  uncertainty k = 0.213771
        19        12        13        33     9        0.000000        0.238077         1    ;  uncertainty k = 0.231773
        19        12        13        33     9      180.000000        5.993858         2    ;  uncertainty k = 0.765201
        19        12        13        33     9        0.000000        1.476771         3    ;  uncertainty k = 0.368309
        19        12        13        33     9      180.000000        1.569369         4    ;  uncertainty k = 0.131184
        19        17        16        34     9        0.000000        0.157284         1    ;  uncertainty k = 0.536677
        19        17        16        34     9      180.000000        6.651379         2    ;  uncertainty k = 0.604357
        19        17        16        34     9        0.000000        1.457227         3    ;  uncertainty k = 0.366961
        19        17        16        34     9      180.000000        1.599688         4    ;  uncertainty k = 0.107457
        19        17        18        26     9        0.000000        0.000000         1    ;  uncertainty k = 0.000000
        19        17        18        26     9      180.000000        0.000000         2    ;  uncertainty k = 0.000000
        19        17        18        26     9        0.000000        0.000000         3    ;  uncertainty k = 0.000000
        19        17        18        26     9      180.000000        0.000000         4    ;  uncertainty k = 0.000000
        20         7         8        31     9        0.000000       -0.410852         1    ;  uncertainty k = 0.419932
        20         7         8        31     9      180.000000        6.701047         2    ;  uncertainty k = 0.507181
        20         7         8        31     9        0.000000        0.717292         3    ;  uncertainty k = 0.239686
        20         7         8        31     9      180.000000        1.151765         4    ;  uncertainty k = 0.225891
        21        20        23        36     9        0.000000       -0.093839         1    ;  uncertainty k = 0.688226
        21        20        23        36     9      180.000000       -0.300703         2    ;  uncertainty k = 0.369926
        21        20        23        36     9        0.000000        0.802296         3    ;  uncertainty k = 0.041185
        21        20        23        36     9      180.000000        0.029328         4    ;  uncertainty k = 0.091442
        21        20        23        37     9        0.000000       -0.093839         1    ;  uncertainty k = 0.688226
        21        20        23        37     9      180.000000       -0.300703         2    ;  uncertainty k = 0.369926
        21        20        23        37     9        0.000000        0.802296         3    ;  uncertainty k = 0.041185
        21        20        23        37     9      180.000000        0.029328         4    ;  uncertainty k = 0.091442
        21        20        23        38     9        0.000000       -0.093839         1    ;  uncertainty k = 0.688226
        21        20        23        38     9      180.000000       -0.300703         2    ;  uncertainty k = 0.369926
        21        20        23        38     9        0.000000        0.802296         3    ;  uncertainty k = 0.041185
        21        20        23        38     9      180.000000        0.029328         4    ;  uncertainty k = 0.091442
        22        20        23        36     9        0.000000       -0.093839         1    ;  uncertainty k = 0.688226
        22        20        23        36     9      180.000000       -0.300703         2    ;  uncertainty k = 0.369926
        22        20        23        36     9        0.000000        0.802296         3    ;  uncertainty k = 0.041185
        22        20        23        36     9      180.000000        0.029328         4    ;  uncertainty k = 0.091442
        22        20        23        37     9        0.000000       -0.093839         1    ;  uncertainty k = 0.688226
        22        20        23        37     9      180.000000       -0.300703         2    ;  uncertainty k = 0.369926
        22        20        23        37     9        0.000000        0.802296         3    ;  uncertainty k = 0.041185
        22        20        23        37     9      180.000000        0.029328         4    ;  uncertainty k = 0.091442
        22        20        23        38     9        0.000000       -0.093839         1    ;  uncertainty k = 0.688226
        22        20        23        38     9      180.000000       -0.300703         2    ;  uncertainty k = 0.369926
        22        20        23        38     9        0.000000        0.802296         3    ;  uncertainty k = 0.041185
        22        20        23        38     9      180.000000        0.029328         4    ;  uncertainty k = 0.091442
        24         3         2        28     9        0.000000        0.263490         1    ;  uncertainty k = 0.330046
        24         3         2        28     9      180.000000       -0.590094         2    ;  uncertainty k = 0.306730
        24         3         2        28     9        0.000000        0.721400         3    ;  uncertainty k = 0.176946
        24         3         2        28     9      180.000000        0.079588         4    ;  uncertainty k = 0.136498
        24         3         4        29     9        0.000000        0.273366         1    ;  uncertainty k = 0.288472
        24         3         4        29     9      180.000000       -0.700450         2    ;  uncertainty k = 0.314491
        24         3         4        29     9        0.000000        0.866669         3    ;  uncertainty k = 0.217754
        24         3         4        29     9      180.000000        0.036836         4    ;  uncertainty k = 0.054095
        24         3         4        30     9        0.000000        0.273367         1    ;  uncertainty k = 0.288473
        24         3         4        30     9      180.000000       -0.700448         2    ;  uncertainty k = 0.314492
        24         3         4        30     9        0.000000        0.866670         3    ;  uncertainty k = 0.217754
        24         3         4        30     9      180.000000        0.036836         4    ;  uncertainty k = 0.054095
        25         3         2        28     9        0.000000        0.263490         1    ;  uncertainty k = 0.330046
        25         3         2        28     9      180.000000       -0.590094         2    ;  uncertainty k = 0.306730
        25         3         2        28     9        0.000000        0.721400         3    ;  uncertainty k = 0.176946
        25         3         2        28     9      180.000000        0.079588         4    ;  uncertainty k = 0.136498
        25         3         4        29     9        0.000000        0.273366         1    ;  uncertainty k = 0.288472
        25         3         4        29     9      180.000000       -0.700450         2    ;  uncertainty k = 0.314491
        25         3         4        29     9        0.000000        0.866669         3    ;  uncertainty k = 0.217754
        25         3         4        29     9      180.000000        0.036836         4    ;  uncertainty k = 0.054095
        25         3         4        30     9        0.000000        0.273367         1    ;  uncertainty k = 0.288473
        25         3         4        30     9      180.000000       -0.700448         2    ;  uncertainty k = 0.314492
        25         3         4        30     9        0.000000        0.866670         3    ;  uncertainty k = 0.217754
        25         3         4        30     9      180.000000        0.036836         4    ;  uncertainty k = 0.054095
        27         1         2        28     9        0.000000       11.846445         1    ;  uncertainty k = 0.691990
        27         1         2        28     9      180.000000       -0.796078         2    ;  uncertainty k = 0.286325
        27         1         2        28     9        0.000000        0.793238         3    ;  uncertainty k = 0.211936
        27         1         2        28     9      180.000000        0.184425         4    ;  uncertainty k = 0.129100
        31         8         9        32     9        0.000000       -0.148347         1    ;  uncertainty k = 0.464573
        31         8         9        32     9      180.000000        7.480539         2    ;  uncertainty k = 0.398475
        31         8         9        32     9        0.000000       -0.315297         3    ;  uncertainty k = 0.269715
        31         8         9        32     9      180.000000        0.257011         4    ;  uncertainty k = 0.091432

[ dihedrals ] ; impropers
;       ai        aj        ak        al funct           phase               k        pn
         5         4         6        10     4      180.000000        5.177914         2    ;  uncertainty k = 0.291489
         5         6        10         4     4      180.000000        5.177914         2    ;  uncertainty k = 0.291489
         5        10         4         6     4      180.000000        5.177914         2    ;  uncertainty k = 0.291489
         6         2         5         7     4      180.000000        6.032675         2    ;  uncertainty k = 0.133123
         6         5         7         2     4      180.000000        6.032675         2    ;  uncertainty k = 0.133123
         6         7         2         5     4      180.000000        6.032675         2    ;  uncertainty k = 0.133123
         7         6         8        20     4      180.000000        4.942433         2    ;  uncertainty k = 0.331484
         7         8        20         6     4      180.000000        4.942433         2    ;  uncertainty k = 0.331484
         7        20         6         8     4      180.000000        4.942433         2    ;  uncertainty k = 0.331484
         8         7         9        31     4      180.000000        4.826789         2    ;  uncertainty k = 0.064410
         8         9        31         7     4      180.000000        4.826789         2    ;  uncertainty k = 0.064410
         8        31         7         9     4      180.000000        4.826789         2    ;  uncertainty k = 0.064410
         9         8        10        32     4      180.000000        1.927774         2    ;  uncertainty k = 0.075887
         9        10        32         8     4      180.000000        1.927774         2    ;  uncertainty k = 0.075887
         9        32         8        10     4      180.000000        1.927774         2    ;  uncertainty k = 0.075887
        10         5         9        11     4      180.000000       17.483785         2    ;  uncertainty k = 0.095984
        10         9        11         5     4      180.000000       17.483785         2    ;  uncertainty k = 0.095984
        10        11         5         9     4      180.000000       17.483785         2    ;  uncertainty k = 0.095984
        12        11        13        19     4      180.000000       19.053422         2    ;  uncertainty k = 0.038066
        12        13        19        11     4      180.000000       19.053422         2    ;  uncertainty k = 0.038066
        12        19        11        13     4      180.000000       19.053422         2    ;  uncertainty k = 0.038066
        13        12        14        33     4      180.000000        1.848818         2    ;  uncertainty k = 0.255047
        13        14        33        12     4      180.000000        1.848818         2    ;  uncertainty k = 0.255047
        13        33        12        14     4      180.000000        1.848818         2    ;  uncertainty k = 0.255047
        14        13        15        16     4      180.000000       17.880537         2    ;  uncertainty k = 0.047509
        14        15        16        13     4      180.000000       17.880537         2    ;  uncertainty k = 0.047509
        14        16        13        15     4      180.000000       17.880537         2    ;  uncertainty k = 0.047509
        16        14        17        34     4      180.000000        2.461655         2    ;  uncertainty k = 0.340230
        16        17        34        14     4      180.000000        2.461655         2    ;  uncertainty k = 0.340230
        16        34        14        17     4      180.000000        2.461655         2    ;  uncertainty k = 0.340230
        17        16        18        19     4      180.000000       11.727372         2    ;  uncertainty k = 0.187314
        17        18        19        16     4      180.000000       11.727372         2    ;  uncertainty k = 0.187314
        17        19        16        18     4      180.000000       11.727372         2    ;  uncertainty k = 0.187314
        19        12        17        35     4      180.000000        2.852757         2    ;  uncertainty k = 0.269075
        19        17        35        12     4      180.000000        2.852757         2    ;  uncertainty k = 0.269075
        19        35        12        17     4      180.000000        2.852757         2    ;  uncertainty k = 0.269075

[ pairs ]
;       ai        aj funct
         1         4     1
         1         5     1
         1         7     1
         1        24     1
         1        25     1
         2         8     1
         2        10     1
         2        20     1
         2        29     1
         2        30     1
         3         7     1
         3        10     1
         3        27     1
         4         7     1
         4         9     1
         4        11     1
         4        28     1
         5         8     1
         5        12     1
         5        20     1
         5        24     1
         5        25     1
         5        28     1
         5        32     1
         6         9     1
         6        11     1
         6        21     1
         6        22     1
         6        23     1
         6        24     1
         6        25     1
         6        27     1
         6        29     1
         6        30     1
         6        31     1
         7        10     1
         7        28     1
         7        32     1
         7        36     1
         7        37     1
         7        38     1
         8        11     1
         8        21     1
         8        22     1
         8        23     1
         9        12     1
         9        20     1
        10        13     1
        10        19     1
        10        29     1
        10        30     1
        10        31     1
        11        14     1
        11        17     1
        11        32     1
        11        33     1
        11        35     1
        12        15     1
        12        16     1
        12        18     1
        13        17     1
        13        34     1
        13        35     1
        14        18     1
        14        19     1
        15        17     1
        15        33     1
        15        34     1
        16        26     1
        16        33     1
        16        35     1
        18        34     1
        18        35     1
        19        26     1
        19        33     1
        19        34     1
        20        31     1
        21        36     1
        21        37     1
        21        38     1
        22        36     1
        22        37     1
        22        38     1
        24        28     1
        24        29     1
        24        30     1
        25        28     1
        25        29     1
        25        30     1
        27        28     1
        31        32     1
