; ITP file created by ByteFF-joint-25, 2026-02-17 09:19:42.141348

[ atomtypes ]
;name           bonded.type        at.num        mass        charge   ptype           sigma         epsilon
 n0bf                                   7      0.0000       0.00000       A     3.64669e-01     1.38701e-01    ;  uncertainty sigma = 0.000086, epsilon = 0.005858
 c1bf                                   6      0.0000       0.00000       A     3.39788e-01     4.50765e-01    ;  uncertainty sigma = 0.000030, epsilon = 0.000757
 c2bf                                   6      0.0000       0.00000       A     3.39809e-01     4.50676e-01    ;  uncertainty sigma = 0.000026, epsilon = 0.001154
 c3bf                                   6      0.0000       0.00000       A     3.39790e-01     4.50746e-01    ;  uncertainty sigma = 0.000019, epsilon = 0.000664
 c4bf                                   6      0.0000       0.00000       A     3.31542e-01     4.13504e-01    ;  uncertainty sigma = 0.000010, epsilon = 0.000985
 c5bf                                   6      0.0000       0.00000       A     3.31552e-01     4.12311e-01    ;  uncertainty sigma = 0.000027, epsilon = 0.001300
 c6bf                                   6      0.0000       0.00000       A     3.31514e-01     4.13018e-01    ;  uncertainty sigma = 0.000032, epsilon = 0.001392
 c7bf                                   6      0.0000       0.00000       A     3.31512e-01     4.13394e-01    ;  uncertainty sigma = 0.000009, epsilon = 0.000570
 c8bf                                   6      0.0000       0.00000       A     3.31528e-01     4.13628e-01    ;  uncertainty sigma = 0.000009, epsilon = 0.000546
 c9bf                                   6      0.0000       0.00000       A     3.31533e-01     4.13174e-01    ;  uncertainty sigma = 0.000015, epsilon = 0.000621
 o10bf                                  8      0.0000       0.00000       A     3.15560e-01     3.01903e-01    ;  uncertainty sigma = 0.000035, epsilon = 0.001496
 c11bf                                  6      0.0000       0.00000       A     3.31495e-01     4.13941e-01    ;  uncertainty sigma = 0.000010, epsilon = 0.001010
 c12bf                                  6      0.0000       0.00000       A     3.31520e-01     4.13586e-01    ;  uncertainty sigma = 0.000002, epsilon = 0.000805
 c13bf                                  6      0.0000       0.00000       A     3.31497e-01     4.13352e-01    ;  uncertainty sigma = 0.000008, epsilon = 0.000492
 f14bf                                  9      0.0000       0.00000       A     3.03420e-01     3.47893e-01    ;  uncertainty sigma = 0.000010, epsilon = 0.000765
 c15bf                                  6      0.0000       0.00000       A     3.31510e-01     4.13401e-01    ;  uncertainty sigma = 0.000009, epsilon = 0.000546
 c16bf                                  6      0.0000       0.00000       A     3.31508e-01     4.13715e-01    ;  uncertainty sigma = 0.000016, epsilon = 0.000826
 c17bf                                  6      0.0000       0.00000       A     3.47927e-01     6.68046e-01    ;  uncertainty sigma = 0.000023, epsilon = 0.001608
 c18bf                                  6      0.0000       0.00000       A     3.31520e-01     4.13321e-01    ;  uncertainty sigma = 0.000008, epsilon = 0.000748
 s19bf                                 16      0.0000       0.00000       A     4.05864e-01     2.55845e-01    ;  uncertainty sigma = 0.000022, epsilon = 0.001968
 o20bf                                  8      0.0000       0.00000       A     3.04791e-01     6.12049e-01    ;  uncertainty sigma = 0.000024, epsilon = 0.000962
 o21bf                                  8      0.0000       0.00000       A     3.04791e-01     6.12049e-01    ;  uncertainty sigma = 0.000024, epsilon = 0.000962
 c22bf                                  6      0.0000       0.00000       A     3.39782e-01     4.50649e-01    ;  uncertainty sigma = 0.000005, epsilon = 0.001022
 f23bf                                  9      0.0000       0.00000       A     3.03496e-01     3.47922e-01    ;  uncertainty sigma = 0.000018, epsilon = 0.001802
 f24bf                                  9      0.0000       0.00000       A     3.03496e-01     3.47922e-01    ;  uncertainty sigma = 0.000018, epsilon = 0.001802
 n25bf                                  7      0.0000       0.00000       A     3.27375e-01     4.59084e-01    ;  uncertainty sigma = 0.000021, epsilon = 0.000492
 h26bf                                  1      0.0000       0.00000       A     1.10674e-01     4.13914e-02    ;  uncertainty sigma = 0.000072, epsilon = 0.000750
 h27bf                                  1      0.0000       0.00000       A     1.10674e-01     4.13914e-02    ;  uncertainty sigma = 0.000072, epsilon = 0.000750
 h28bf                                  1      0.0000       0.00000       A     2.42234e-01     8.72463e-02    ;  uncertainty sigma = 0.000119, epsilon = 0.001121
 h29bf                                  1      0.0000       0.00000       A     2.60052e-01     8.67259e-02    ;  uncertainty sigma = 0.000034, epsilon = 0.000512
 h30bf                                  1      0.0000       0.00000       A     2.60052e-01     8.67259e-02    ;  uncertainty sigma = 0.000034, epsilon = 0.000512
 h31bf                                  1      0.0000       0.00000       A     2.62567e-01     6.72430e-02    ;  uncertainty sigma = 0.000020, epsilon = 0.000765
 h32bf                                  1      0.0000       0.00000       A     2.62556e-01     6.70855e-02    ;  uncertainty sigma = 0.000006, epsilon = 0.000381
 h33bf                                  1      0.0000       0.00000       A     2.62552e-01     6.72491e-02    ;  uncertainty sigma = 0.000007, epsilon = 0.000350
 h34bf                                  1      0.0000       0.00000       A     2.62545e-01     6.70249e-02    ;  uncertainty sigma = 0.000017, epsilon = 0.000507
 h35bf                                  1      0.0000       0.00000       A     2.62547e-01     6.71166e-02    ;  uncertainty sigma = 0.000014, epsilon = 0.000743
 h36bf                                  1      0.0000       0.00000       A     2.42169e-01     8.68377e-02    ;  uncertainty sigma = 0.000012, epsilon = 0.000623
 h37bf                                  1      0.0000       0.00000       A     2.42169e-01     8.68378e-02    ;  uncertainty sigma = 0.000012, epsilon = 0.000623
 h38bf                                  1      0.0000       0.00000       A     2.42169e-01     8.68377e-02    ;  uncertainty sigma = 0.000012, epsilon = 0.000623

[ moleculetype ]
;name             nrexcl
 MOL                   3

[ atoms ]
;       nr            type      resi   res      atom      cgnr      charge          mass ; qtot
         1            n0bf         1   UNL        n0         1    -0.87308       14.0070 ; qtot   -0.873
         2            c1bf         1   UNL        c1         2     0.18711       12.0110 ; qtot   -0.686
         3            c2bf         1   UNL        c2         3     0.39587       12.0110 ; qtot   -0.290
         4            c3bf         1   UNL        c3         4    -0.05673       12.0110 ; qtot   -0.347
         5            c4bf         1   UNL        c4         5    -0.10581       12.0110 ; qtot   -0.453
         6            c5bf         1   UNL        c5         6     0.01044       12.0110 ; qtot   -0.442
         7            c6bf         1   UNL        c6         7    -0.22721       12.0110 ; qtot   -0.669
         8            c7bf         1   UNL        c7         8    -0.01399       12.0110 ; qtot   -0.683
         9            c8bf         1   UNL        c8         9    -0.17891       12.0110 ; qtot   -0.862
        10            c9bf         1   UNL        c9        10     0.16553       12.0110 ; qtot   -0.697
        11           o10bf         1   UNL       o10        11    -0.24731       15.9990 ; qtot   -0.944
        12           c11bf         1   UNL       c11        12     0.15098       12.0110 ; qtot   -0.793
        13           c12bf         1   UNL       c12        13    -0.18271       12.0110 ; qtot   -0.976
        14           c13bf         1   UNL       c13        14     0.15843       12.0110 ; qtot   -0.817
        15           f14bf         1   UNL       f14        15    -0.12713       18.9980 ; qtot   -0.945
        16           c15bf         1   UNL       c15        16    -0.15485       12.0110 ; qtot   -1.099
        17           c16bf         1   UNL       c16        17     0.03943       12.0110 ; qtot   -1.060
        18           c17bf         1   UNL       c17        18     0.22805       12.0110 ; qtot   -0.832
        19           c18bf         1   UNL       c18        19    -0.13883       12.0110 ; qtot   -0.971
        20           s19bf         1   UNL       s19        20     1.01897       32.0670 ; qtot    0.048
        21           o20bf         1   UNL       o20        21    -0.58028       15.9990 ; qtot   -0.532
        22           o21bf         1   UNL       o21        22    -0.58028       15.9990 ; qtot   -1.112
        23           c22bf         1   UNL       c22        23    -0.18585       12.0110 ; qtot   -1.298
        24           f23bf         1   UNL       f23        24    -0.23379       18.9980 ; qtot   -1.532
        25           f24bf         1   UNL       f24        25    -0.23379       18.9980 ; qtot   -1.766
        26           n25bf         1   UNL       n25        26    -0.34869       14.0070 ; qtot   -2.114
        27           h26bf         1   UNL       h26        27     0.35600        1.0080 ; qtot   -1.758
        28           h27bf         1   UNL       h27        28     0.35600        1.0080 ; qtot   -1.402
        29           h28bf         1   UNL       h28        29     0.09058        1.0080 ; qtot   -1.312
        30           h29bf         1   UNL       h29        30     0.08984        1.0080 ; qtot   -1.222
        31           h30bf         1   UNL       h30        31     0.08984        1.0080 ; qtot   -1.132
        32           h31bf         1   UNL       h31        32     0.16388        1.0080 ; qtot   -0.968
        33           h32bf         1   UNL       h32        33     0.15782        1.0080 ; qtot   -0.810
        34           h33bf         1   UNL       h33        34     0.16858        1.0080 ; qtot   -0.642
        35           h34bf         1   UNL       h34        35     0.16624        1.0080 ; qtot   -0.476
        36           h35bf         1   UNL       h35        36     0.16647        1.0080 ; qtot   -0.309
        37           h36bf         1   UNL       h36        37     0.10307        1.0080 ; qtot   -0.206
        38           h37bf         1   UNL       h37        38     0.10307        1.0080 ; qtot   -0.103
        39           h38bf         1   UNL       h38        39     0.10304        1.0080 ; qtot   -0.000

[ bonds ]
;       ai        aj funct               r               k
         1         2     1        0.145304   280283.284521    ;  uncertainty r = 0.000177, k = 27.465021
         1        27     1        0.101787   410939.231348    ;  uncertainty r = 0.000040, k = 3.776685
         1        28     1        0.101787   410939.231348    ;  uncertainty r = 0.000040, k = 3.776685
         2         3     1        0.154612   191463.660352    ;  uncertainty r = 0.000281, k = 6.678487
         2         6     1        0.152149   231852.258740    ;  uncertainty r = 0.000139, k = 16.034468
         2        29     1        0.109557   305480.980176    ;  uncertainty r = 0.000093, k = 0.973660
         3         4     1        0.153435   203490.757837    ;  uncertainty r = 0.000110, k = 11.101313
         3        24     1        0.137954   298960.998633    ;  uncertainty r = 0.000145, k = 7.344386
         3        25     1        0.137954   298960.998633    ;  uncertainty r = 0.000145, k = 7.344386
         4         5     1        0.151061   253521.057861    ;  uncertainty r = 0.000091, k = 19.423751
         4        30     1        0.109419   309914.784180    ;  uncertainty r = 0.000046, k = 1.314228
         4        31     1        0.109419   309914.758643    ;  uncertainty r = 0.000046, k = 1.314221
         5         6     1        0.139690   359676.012451    ;  uncertainty r = 0.000138, k = 22.662526
         5        10     1        0.138880   351955.786768    ;  uncertainty r = 0.000130, k = 5.126436
         6         7     1        0.139485   333257.055615    ;  uncertainty r = 0.000135, k = 13.589028
         7         8     1        0.139328   348279.260205    ;  uncertainty r = 0.000208, k = 3.200043
         7        20     1        0.179291   144149.755420    ;  uncertainty r = 0.000082, k = 14.010610
         8         9     1        0.139179   367456.658936    ;  uncertainty r = 0.000074, k = 4.047112
         8        32     1        0.108504   328523.318262    ;  uncertainty r = 0.000053, k = 1.334712
         9        10     1        0.139662   353088.740625    ;  uncertainty r = 0.000068, k = 6.252786
         9        33     1        0.108753   336163.893701    ;  uncertainty r = 0.000031, k = 1.172871
        10        11     1        0.138323   317259.588818    ;  uncertainty r = 0.000134, k = 10.599069
        11        12     1        0.137077   316895.097656    ;  uncertainty r = 0.000110, k = 9.258264
        12        13     1        0.139427   359163.303906    ;  uncertainty r = 0.000040, k = 4.028925
        12        19     1        0.139179   355512.646436    ;  uncertainty r = 0.000043, k = 0.656935
        13        14     1        0.138903   360755.951270    ;  uncertainty r = 0.000040, k = 3.414912
        13        34     1        0.108801   339525.062500    ;  uncertainty r = 0.000019, k = 1.519211
        14        15     1        0.134939   340193.470801    ;  uncertainty r = 0.000095, k = 3.973496
        14        16     1        0.138772   359379.322314    ;  uncertainty r = 0.000049, k = 1.285215
        16        17     1        0.140293   363423.557715    ;  uncertainty r = 0.000073, k = 1.983955
        16        35     1        0.108643   335847.029248    ;  uncertainty r = 0.000020, k = 0.933262
        17        18     1        0.143666   316064.886230    ;  uncertainty r = 0.000041, k = 3.494324
        17        19     1        0.140042   357603.165283    ;  uncertainty r = 0.000048, k = 4.155025
        18        26     1        0.116625  1127949.809766    ;  uncertainty r = 0.000026, k = 2.900562
        19        36     1        0.108681   335495.357715    ;  uncertainty r = 0.000025, k = 1.572342
        20        21     1        0.147605   513456.986523    ;  uncertainty r = 0.000076, k = 3.403319
        20        22     1        0.147605   513456.986523    ;  uncertainty r = 0.000076, k = 3.403319
        20        23     1        0.181286   175800.729687    ;  uncertainty r = 0.000043, k = 12.059322
        23        37     1        0.109296   321460.851904    ;  uncertainty r = 0.000032, k = 1.852504
        23        38     1        0.109296   321460.851904    ;  uncertainty r = 0.000032, k = 1.852504
        23        39     1        0.109296   321460.851904    ;  uncertainty r = 0.000032, k = 1.852504

[ angles ]
;       ai        aj        ak funct           theta             cth
         1         2         3     1      109.123947      567.568193    ;  uncertainty theta = 0.017586, k = 0.319944
         1         2         6     1      112.599953      611.650160    ;  uncertainty theta = 0.006582, k = 0.273442
         1         2        29     1      107.467369      440.433099    ;  uncertainty theta = 0.008844, k = 0.110174
         2         1        27     1      109.462875      422.768282    ;  uncertainty theta = 0.001932, k = 0.112106
         2         1        28     1      109.462875      422.768282    ;  uncertainty theta = 0.001932, k = 0.112106
         2         3         4     1      111.342796      614.340047    ;  uncertainty theta = 0.003648, k = 0.219856
         2         3        24     1      109.744614      605.962726    ;  uncertainty theta = 0.002593, k = 0.094942
         2         3        25     1      109.744614      605.962726    ;  uncertainty theta = 0.002593, k = 0.094942
         2         6         5     1      115.818565      517.962646    ;  uncertainty theta = 0.005633, k = 0.076236
         2         6         7     1      125.146591      351.104641    ;  uncertainty theta = 0.002890, k = 0.169133
         3         2         6     1      104.046982      710.833739    ;  uncertainty theta = 0.007365, k = 0.220014
         3         2        29     1      106.310196      381.807493    ;  uncertainty theta = 0.004244, k = 0.154837
         3         4         5     1      103.996315      705.220682    ;  uncertainty theta = 0.004627, k = 0.335509
         3         4        30     1      107.358276      379.428807    ;  uncertainty theta = 0.002916, k = 0.098611
         3         4        31     1      107.358276      379.428839    ;  uncertainty theta = 0.002916, k = 0.098611
         4         3        24     1      111.224342      659.450266    ;  uncertainty theta = 0.001734, k = 0.074056
         4         3        25     1      111.224342      659.450266    ;  uncertainty theta = 0.001734, k = 0.074056
         4         5         6     1      115.262047      532.808101    ;  uncertainty theta = 0.005503, k = 0.098057
         4         5        10     1      125.696121      389.293377    ;  uncertainty theta = 0.005881, k = 0.167988
         5         4        30     1      110.523026      380.395099    ;  uncertainty theta = 0.002446, k = 0.102632
         5         4        31     1      110.523026      380.395099    ;  uncertainty theta = 0.002446, k = 0.102632
         5         6         7     1      121.481468      428.347726    ;  uncertainty theta = 0.007424, k = 0.221948
         5        10         9     1      120.416016      383.882415    ;  uncertainty theta = 0.004254, k = 0.232463
         5        10        11     1      118.130203      404.505706    ;  uncertainty theta = 0.007666, k = 0.373680
         6         2        29     1      108.362473      382.294932    ;  uncertainty theta = 0.004179, k = 0.174736
         6         5        10     1      119.585167      419.376954    ;  uncertainty theta = 0.002551, k = 0.178227
         6         7         8     1      123.016823      450.019730    ;  uncertainty theta = 0.005681, k = 0.098318
         6         7        20     1      117.367615      340.255998    ;  uncertainty theta = 0.008125, k = 0.326889
         7         8         9     1      121.535423      492.567363    ;  uncertainty theta = 0.005732, k = 0.049162
         7         8        32     1      118.812210      262.501470    ;  uncertainty theta = 0.002434, k = 0.115205
         7        20        21     1      113.200279      607.485440    ;  uncertainty theta = 0.003575, k = 0.243965
         7        20        22     1      113.200279      607.485440    ;  uncertainty theta = 0.003575, k = 0.243965
         7        20        23     1      104.838402      603.368667    ;  uncertainty theta = 0.001191, k = 0.070931
         8         7        20     1      116.887428      359.028838    ;  uncertainty theta = 0.006736, k = 0.112054
         8         9        10     1      119.879089      510.474622    ;  uncertainty theta = 0.001652, k = 0.062909
         8         9        33     1      120.294846      277.772629    ;  uncertainty theta = 0.001240, k = 0.050273
         9         8        32     1      120.440811      281.491726    ;  uncertainty theta = 0.002503, k = 0.058525
         9        10        11     1      120.844383      433.986990    ;  uncertainty theta = 0.002573, k = 0.199716
        10         9        33     1      120.221359      276.070485    ;  uncertainty theta = 0.002343, k = 0.074966
        10        11        12     1      112.665138      472.363072    ;  uncertainty theta = 0.002387, k = 0.088705
        11        12        13     1      119.026627      419.851465    ;  uncertainty theta = 0.002706, k = 0.052294
        11        12        19     1      119.290588      404.135418    ;  uncertainty theta = 0.003651, k = 0.053296
        12        13        14     1      117.038597      502.569227    ;  uncertainty theta = 0.003445, k = 0.110867
        12        13        34     1      121.702477      272.440034    ;  uncertainty theta = 0.003455, k = 0.132527
        12        19        17     1      118.761208      522.894787    ;  uncertainty theta = 0.001489, k = 0.068180
        12        19        36     1      120.905983      280.332437    ;  uncertainty theta = 0.002004, k = 0.062093
        13        12        19     1      122.428162      385.560203    ;  uncertainty theta = 0.005403, k = 0.175952
        13        14        15     1      118.267052      494.604714    ;  uncertainty theta = 0.001988, k = 0.058359
        13        14        16     1      123.726730      369.147375    ;  uncertainty theta = 0.006010, k = 0.127235
        14        13        34     1      121.505081      285.104493    ;  uncertainty theta = 0.003243, k = 0.069272
        14        16        17     1      117.400681      493.697380    ;  uncertainty theta = 0.001506, k = 0.173040
        14        16        35     1      121.339279      286.173157    ;  uncertainty theta = 0.003120, k = 0.038569
        15        14        16     1      118.689796      499.274046    ;  uncertainty theta = 0.003051, k = 0.052524
        16        17        18     1      119.117836      375.204905    ;  uncertainty theta = 0.002733, k = 0.097877
        16        17        19     1      122.566833      457.580470    ;  uncertainty theta = 0.002293, k = 0.135282
        17        16        35     1      121.185242      278.472122    ;  uncertainty theta = 0.003138, k = 0.095958
        17        18        26     1      180.000000      233.555922    ;  uncertainty theta = 0.000000, k = 0.675784
        17        19        36     1      120.586197      284.638441    ;  uncertainty theta = 0.004219, k = 0.089604
        18        17        19     1      118.919228      375.151182    ;  uncertainty theta = 0.002637, k = 0.097444
        20        23        37     1      107.107010      365.798630    ;  uncertainty theta = 0.000687, k = 0.031446
        20        23        38     1      107.107010      365.798630    ;  uncertainty theta = 0.000687, k = 0.031446
        20        23        39     1      107.107010      365.798630    ;  uncertainty theta = 0.000687, k = 0.031446
        21        20        22     1      123.679283      835.669600    ;  uncertainty theta = 0.001532, k = 0.036705
        21        20        23     1      112.660423      741.628109    ;  uncertainty theta = 0.002077, k = 0.037732
        22        20        23     1      112.660423      741.628109    ;  uncertainty theta = 0.002077, k = 0.037732
        24         3        25     1      106.802628      800.754051    ;  uncertainty theta = 0.004169, k = 0.123577
        27         1        28     1      106.061440      339.913801    ;  uncertainty theta = 0.003323, k = 0.150284
        30         4        31     1      105.642136      291.410690    ;  uncertainty theta = 0.002910, k = 0.059119
        37        23        38     1      108.798363      296.170520    ;  uncertainty theta = 0.002208, k = 0.021202
        37        23        39     1      108.798363      296.170520    ;  uncertainty theta = 0.002208, k = 0.021202
        38        23        39     1      108.798363      296.170520    ;  uncertainty theta = 0.002208, k = 0.021202

[ dihedrals ] ; propers for gromacs 4.5 or higher, use funct 9
;       ai        aj        ak        al funct           phase               k        pn
         1         2         3         4     9        0.000000       -1.637076         1    ;  uncertainty k = 1.813642
         1         2         3         4     9      180.000000        1.778739         2    ;  uncertainty k = 0.635117
         1         2         3         4     9        0.000000        1.224224         3    ;  uncertainty k = 0.350783
         1         2         3         4     9      180.000000        0.256941         4    ;  uncertainty k = 0.379815
         1         2         3        24     9        0.000000       -0.435079         1    ;  uncertainty k = 0.985852
         1         2         3        24     9      180.000000        1.007190         2    ;  uncertainty k = 0.899924
         1         2         3        24     9        0.000000        1.760884         3    ;  uncertainty k = 0.423237
         1         2         3        24     9      180.000000        0.071289         4    ;  uncertainty k = 0.118786
         1         2         3        25     9        0.000000       -0.435079         1    ;  uncertainty k = 0.985852
         1         2         3        25     9      180.000000        1.007190         2    ;  uncertainty k = 0.899924
         1         2         3        25     9        0.000000        1.760884         3    ;  uncertainty k = 0.423237
         1         2         3        25     9      180.000000        0.071289         4    ;  uncertainty k = 0.118786
         1         2         6         5     9        0.000000       -3.417855         1    ;  uncertainty k = 1.879551
         1         2         6         5     9      180.000000        4.022774         2    ;  uncertainty k = 1.883958
         1         2         6         5     9        0.000000        1.127932         3    ;  uncertainty k = 0.651827
         1         2         6         5     9      180.000000        0.576093         4    ;  uncertainty k = 0.185885
         1         2         6         7     9        0.000000       -1.263223         1    ;  uncertainty k = 1.766755
         1         2         6         7     9      180.000000        3.178104         2    ;  uncertainty k = 0.443858
         1         2         6         7     9        0.000000        0.107773         3    ;  uncertainty k = 0.331721
         1         2         6         7     9      180.000000        0.484996         4    ;  uncertainty k = 0.072050
         2         3         4         5     9        0.000000       -0.570251         1    ;  uncertainty k = 1.767224
         2         3         4         5     9      180.000000        1.832378         2    ;  uncertainty k = 0.523595
         2         3         4         5     9        0.000000        0.059130         3    ;  uncertainty k = 0.518666
         2         3         4         5     9      180.000000       -0.166457         4    ;  uncertainty k = 0.364074
         2         3         4        30     9        0.000000       -0.358335         1    ;  uncertainty k = 0.460071
         2         3         4        30     9      180.000000       -0.036364         2    ;  uncertainty k = 0.607128
         2         3         4        30     9        0.000000        0.077755         3    ;  uncertainty k = 0.243090
         2         3         4        30     9      180.000000       -0.019500         4    ;  uncertainty k = 0.168515
         2         3         4        31     9        0.000000       -0.358335         1    ;  uncertainty k = 0.460070
         2         3         4        31     9      180.000000       -0.036364         2    ;  uncertainty k = 0.607126
         2         3         4        31     9        0.000000        0.077755         3    ;  uncertainty k = 0.243089
         2         3         4        31     9      180.000000       -0.019500         4    ;  uncertainty k = 0.168515
         2         6         5         4     9        0.000000        0.366769         1    ;  uncertainty k = 0.763425
         2         6         5         4     9      180.000000       12.228458         2    ;  uncertainty k = 0.682237
         2         6         5         4     9        0.000000       -0.527832         3    ;  uncertainty k = 0.816885
         2         6         5         4     9      180.000000        1.159884         4    ;  uncertainty k = 0.328763
         2         6         5        10     9        0.000000        0.718122         1    ;  uncertainty k = 0.588038
         2         6         5        10     9      180.000000        8.861171         2    ;  uncertainty k = 0.350681
         2         6         5        10     9        0.000000        0.647628         3    ;  uncertainty k = 0.280440
         2         6         5        10     9      180.000000        1.255987         4    ;  uncertainty k = 0.159880
         2         6         7         8     9        0.000000        0.286135         1    ;  uncertainty k = 0.514900
         2         6         7         8     9      180.000000        6.642058         2    ;  uncertainty k = 0.213671
         2         6         7         8     9        0.000000        1.235585         3    ;  uncertainty k = 0.264560
         2         6         7         8     9      180.000000        1.576633         4    ;  uncertainty k = 0.160353
         2         6         7        20     9        0.000000       -0.123486         1    ;  uncertainty k = 0.894265
         2         6         7        20     9      180.000000        6.774389         2    ;  uncertainty k = 0.456802
         2         6         7        20     9        0.000000        1.155271         3    ;  uncertainty k = 0.173147
         2         6         7        20     9      180.000000        1.217679         4    ;  uncertainty k = 0.247464
         3         2         1        27     9        0.000000       10.132728         1    ;  uncertainty k = 0.720354
         3         2         1        27     9      180.000000       -6.633370         2    ;  uncertainty k = 0.586565
         3         2         1        27     9        0.000000        0.934255         3    ;  uncertainty k = 0.172787
         3         2         1        27     9      180.000000        0.074978         4    ;  uncertainty k = 0.041114
         3         2         1        28     9        0.000000       10.132728         1    ;  uncertainty k = 0.720354
         3         2         1        28     9      180.000000       -6.633370         2    ;  uncertainty k = 0.586565
         3         2         1        28     9        0.000000        0.934255         3    ;  uncertainty k = 0.172787
         3         2         1        28     9      180.000000        0.074978         4    ;  uncertainty k = 0.041114
         3         2         6         5     9        0.000000       -1.152083         1    ;  uncertainty k = 2.363222
         3         2         6         5     9      180.000000        8.562768         2    ;  uncertainty k = 1.015075
         3         2         6         5     9        0.000000       -1.053562         3    ;  uncertainty k = 0.373420
         3         2         6         5     9      180.000000        0.933728         4    ;  uncertainty k = 0.216172
         3         2         6         7     9        0.000000       -1.447188         1    ;  uncertainty k = 1.066183
         3         2         6         7     9      180.000000        3.583900         2    ;  uncertainty k = 0.601157
         3         2         6         7     9        0.000000        0.013730         3    ;  uncertainty k = 0.388020
         3         2         6         7     9      180.000000        0.662026         4    ;  uncertainty k = 0.194536
         3         4         5         6     9        0.000000       -1.865110         1    ;  uncertainty k = 1.661346
         3         4         5         6     9      180.000000        9.416447         2    ;  uncertainty k = 0.548963
         3         4         5         6     9        0.000000       -1.701515         3    ;  uncertainty k = 0.401798
         3         4         5         6     9      180.000000        0.921149         4    ;  uncertainty k = 0.185826
         3         4         5        10     9        0.000000       -0.510462         1    ;  uncertainty k = 0.767737
         3         4         5        10     9      180.000000        2.389006         2    ;  uncertainty k = 0.501825
         3         4         5        10     9        0.000000        0.122180         3    ;  uncertainty k = 0.238832
         3         4         5        10     9      180.000000        0.630129         4    ;  uncertainty k = 0.119427
         4         3         2         6     9        0.000000       -0.407130         1    ;  uncertainty k = 1.999538
         4         3         2         6     9      180.000000        1.268754         2    ;  uncertainty k = 0.516230
         4         3         2         6     9        0.000000        0.209454         3    ;  uncertainty k = 0.236751
         4         3         2         6     9      180.000000       -0.094318         4    ;  uncertainty k = 0.224632
         4         3         2        29     9        0.000000       -0.550149         1    ;  uncertainty k = 0.981124
         4         3         2        29     9      180.000000        0.209362         2    ;  uncertainty k = 0.406825
         4         3         2        29     9        0.000000        0.045531         3    ;  uncertainty k = 0.246790
         4         3         2        29     9      180.000000       -0.116965         4    ;  uncertainty k = 0.210473
         4         5         6         7     9        0.000000        0.216743         1    ;  uncertainty k = 0.602119
         4         5         6         7     9      180.000000        8.843860         2    ;  uncertainty k = 0.489404
         4         5         6         7     9        0.000000        0.701301         3    ;  uncertainty k = 0.338749
         4         5         6         7     9      180.000000        1.154762         4    ;  uncertainty k = 0.285531
         4         5        10         9     9        0.000000        0.523874         1    ;  uncertainty k = 0.330467
         4         5        10         9     9      180.000000        6.375702         2    ;  uncertainty k = 0.295302
         4         5        10         9     9        0.000000        1.317716         3    ;  uncertainty k = 0.253092
         4         5        10         9     9      180.000000        1.602561         4    ;  uncertainty k = 0.308694
         4         5        10        11     9        0.000000       -0.278828         1    ;  uncertainty k = 0.609199
         4         5        10        11     9      180.000000        8.985709         2    ;  uncertainty k = 0.232238
         4         5        10        11     9        0.000000        1.022990         3    ;  uncertainty k = 0.245127
         4         5        10        11     9      180.000000        1.245083         4    ;  uncertainty k = 0.168023
         5         4         3        24     9        0.000000       -0.689620         1    ;  uncertainty k = 1.005449
         5         4         3        24     9      180.000000        0.669128         2    ;  uncertainty k = 0.550457
         5         4         3        24     9        0.000000        1.129178         3    ;  uncertainty k = 0.322237
         5         4         3        24     9      180.000000        0.257803         4    ;  uncertainty k = 0.051474
         5         4         3        25     9        0.000000       -0.689620         1    ;  uncertainty k = 1.005449
         5         4         3        25     9      180.000000        0.669128         2    ;  uncertainty k = 0.550457
         5         4         3        25     9        0.000000        1.129178         3    ;  uncertainty k = 0.322237
         5         4         3        25     9      180.000000        0.257803         4    ;  uncertainty k = 0.051474
         5         6         2        29     9        0.000000       -0.484773         1    ;  uncertainty k = 0.756140
         5         6         2        29     9      180.000000        3.213213         2    ;  uncertainty k = 0.446991
         5         6         2        29     9        0.000000        0.727079         3    ;  uncertainty k = 0.213020
         5         6         2        29     9      180.000000        0.190773         4    ;  uncertainty k = 0.104703
         5         6         7         8     9        0.000000       -0.261628         1    ;  uncertainty k = 0.387990
         5         6         7         8     9      180.000000        9.827028         2    ;  uncertainty k = 0.479761
         5         6         7         8     9        0.000000       -0.496797         3    ;  uncertainty k = 0.374782
         5         6         7         8     9      180.000000        0.934794         4    ;  uncertainty k = 0.244690
         5         6         7        20     9        0.000000        0.591613         1    ;  uncertainty k = 0.897225
         5         6         7        20     9      180.000000        7.504290         2    ;  uncertainty k = 0.871070
         5         6         7        20     9        0.000000        1.533325         3    ;  uncertainty k = 0.591755
         5         6         7        20     9      180.000000        1.622640         4    ;  uncertainty k = 0.207671
         5        10         9         8     9        0.000000        0.265585         1    ;  uncertainty k = 0.233911
         5        10         9         8     9      180.000000        9.174994         2    ;  uncertainty k = 0.354555
         5        10         9         8     9        0.000000        0.193246         3    ;  uncertainty k = 0.419324
         5        10         9         8     9      180.000000        1.305231         4    ;  uncertainty k = 0.292281
         5        10         9        33     9        0.000000        0.136211         1    ;  uncertainty k = 0.342787
         5        10         9        33     9      180.000000        6.821172         2    ;  uncertainty k = 0.536821
         5        10         9        33     9        0.000000        1.382404         3    ;  uncertainty k = 0.513611
         5        10         9        33     9      180.000000        1.586698         4    ;  uncertainty k = 0.111614
         5        10        11        12     9        0.000000        4.430781         1    ;  uncertainty k = 0.609612
         5        10        11        12     9      180.000000        4.866793         2    ;  uncertainty k = 0.306221
         5        10        11        12     9        0.000000        0.732807         3    ;  uncertainty k = 0.049289
         5        10        11        12     9      180.000000        0.149592         4    ;  uncertainty k = 0.091941
         6         2         1        27     9        0.000000        9.987703         1    ;  uncertainty k = 0.354983
         6         2         1        27     9      180.000000       -3.473413         2    ;  uncertainty k = 1.336496
         6         2         1        27     9        0.000000        0.920475         3    ;  uncertainty k = 0.316911
         6         2         1        27     9      180.000000        0.174478         4    ;  uncertainty k = 0.241096
         6         2         1        28     9        0.000000        9.987703         1    ;  uncertainty k = 0.354983
         6         2         1        28     9      180.000000       -3.473413         2    ;  uncertainty k = 1.336496
         6         2         1        28     9        0.000000        0.920475         3    ;  uncertainty k = 0.316911
         6         2         1        28     9      180.000000        0.174478         4    ;  uncertainty k = 0.241096
         6         2         3        24     9        0.000000        0.212894         1    ;  uncertainty k = 1.102114
         6         2         3        24     9      180.000000        0.631760         2    ;  uncertainty k = 0.648943
         6         2         3        24     9        0.000000        0.896102         3    ;  uncertainty k = 0.216250
         6         2         3        24     9      180.000000        0.241240         4    ;  uncertainty k = 0.116571
         6         2         3        25     9        0.000000        0.212894         1    ;  uncertainty k = 1.102114
         6         2         3        25     9      180.000000        0.631760         2    ;  uncertainty k = 0.648943
         6         2         3        25     9        0.000000        0.896102         3    ;  uncertainty k = 0.216250
         6         2         3        25     9      180.000000        0.241240         4    ;  uncertainty k = 0.116571
         6         5         4        30     9        0.000000       -0.154229         1    ;  uncertainty k = 0.356651
         6         5         4        30     9      180.000000        1.789120         2    ;  uncertainty k = 0.266425
         6         5         4        30     9        0.000000        0.314900         3    ;  uncertainty k = 0.109862
         6         5         4        30     9      180.000000        0.224070         4    ;  uncertainty k = 0.097225
         6         5         4        31     9        0.000000       -0.154230         1    ;  uncertainty k = 0.356651
         6         5         4        31     9      180.000000        1.789120         2    ;  uncertainty k = 0.266425
         6         5         4        31     9        0.000000        0.314900         3    ;  uncertainty k = 0.109863
         6         5         4        31     9      180.000000        0.224070         4    ;  uncertainty k = 0.097225
         6         5        10         9     9        0.000000       -0.220355         1    ;  uncertainty k = 0.092762
         6         5        10         9     9      180.000000        8.113211         2    ;  uncertainty k = 0.477948
         6         5        10         9     9        0.000000       -0.420923         3    ;  uncertainty k = 0.439147
         6         5        10         9     9      180.000000        1.092561         4    ;  uncertainty k = 0.281807
         6         5        10        11     9        0.000000        0.040778         1    ;  uncertainty k = 0.265030
         6         5        10        11     9      180.000000        9.793220         2    ;  uncertainty k = 0.236339
         6         5        10        11     9        0.000000        1.381557         3    ;  uncertainty k = 0.228477
         6         5        10        11     9      180.000000        1.470470         4    ;  uncertainty k = 0.153418
         6         7         8         9     9        0.000000       -0.223992         1    ;  uncertainty k = 0.419263
         6         7         8         9     9      180.000000       10.255553         2    ;  uncertainty k = 0.468044
         6         7         8         9     9        0.000000       -0.280773         3    ;  uncertainty k = 0.351687
         6         7         8         9     9      180.000000        1.064078         4    ;  uncertainty k = 0.381101
         6         7         8        32     9        0.000000        0.027753         1    ;  uncertainty k = 0.506456
         6         7         8        32     9      180.000000        7.209338         2    ;  uncertainty k = 0.548087
         6         7         8        32     9        0.000000        1.289381         3    ;  uncertainty k = 0.412338
         6         7         8        32     9      180.000000        1.646006         4    ;  uncertainty k = 0.124018
         6         7        20        21     9        0.000000       -2.008732         1    ;  uncertainty k = 1.516281
         6         7        20        21     9      180.000000        0.644543         2    ;  uncertainty k = 0.288278
         6         7        20        21     9        0.000000        0.540770         3    ;  uncertainty k = 0.205625
         6         7        20        21     9      180.000000       -0.038096         4    ;  uncertainty k = 0.167852
         6         7        20        22     9        0.000000       -2.008732         1    ;  uncertainty k = 1.516281
         6         7        20        22     9      180.000000        0.644543         2    ;  uncertainty k = 0.288278
         6         7        20        22     9        0.000000        0.540770         3    ;  uncertainty k = 0.205625
         6         7        20        22     9      180.000000       -0.038096         4    ;  uncertainty k = 0.167852
         6         7        20        23     9        0.000000        1.803631         1    ;  uncertainty k = 1.643332
         6         7        20        23     9      180.000000       -0.028941         2    ;  uncertainty k = 0.352457
         6         7        20        23     9        0.000000        0.525189         3    ;  uncertainty k = 0.393523
         6         7        20        23     9      180.000000        0.324516         4    ;  uncertainty k = 0.153172
         7         6         2        29     9        0.000000        1.596172         1    ;  uncertainty k = 0.823150
         7         6         2        29     9      180.000000        2.247806         2    ;  uncertainty k = 0.720093
         7         6         2        29     9        0.000000       -0.206118         3    ;  uncertainty k = 0.163091
         7         6         2        29     9      180.000000        0.186900         4    ;  uncertainty k = 0.183834
         7         6         5        10     9        0.000000        0.028234         1    ;  uncertainty k = 0.672058
         7         6         5        10     9      180.000000        8.369060         2    ;  uncertainty k = 0.343761
         7         6         5        10     9        0.000000        0.145617         3    ;  uncertainty k = 0.161466
         7         6         5        10     9      180.000000        1.079600         4    ;  uncertainty k = 0.265117
         7         8         9        10     9        0.000000        0.120000         1    ;  uncertainty k = 0.318715
         7         8         9        10     9      180.000000       12.172615         2    ;  uncertainty k = 0.396394
         7         8         9        10     9        0.000000       -0.956883         3    ;  uncertainty k = 0.722413
         7         8         9        10     9      180.000000        0.864255         4    ;  uncertainty k = 0.364678
         7         8         9        33     9        0.000000       -0.046445         1    ;  uncertainty k = 0.601070
         7         8         9        33     9      180.000000        8.095104         2    ;  uncertainty k = 0.210632
         7         8         9        33     9        0.000000        1.201568         3    ;  uncertainty k = 0.200010
         7         8         9        33     9      180.000000        1.700725         4    ;  uncertainty k = 0.072809
         7        20        23        37     9        0.000000        2.465047         1    ;  uncertainty k = 1.061492
         7        20        23        37     9      180.000000       -2.838196         2    ;  uncertainty k = 0.690458
         7        20        23        37     9        0.000000        0.219061         3    ;  uncertainty k = 0.047184
         7        20        23        37     9      180.000000       -0.009699         4    ;  uncertainty k = 0.115866
         7        20        23        38     9        0.000000        2.465047         1    ;  uncertainty k = 1.061492
         7        20        23        38     9      180.000000       -2.838196         2    ;  uncertainty k = 0.690458
         7        20        23        38     9        0.000000        0.219061         3    ;  uncertainty k = 0.047184
         7        20        23        38     9      180.000000       -0.009699         4    ;  uncertainty k = 0.115866
         7        20        23        39     9        0.000000        2.465047         1    ;  uncertainty k = 1.061492
         7        20        23        39     9      180.000000       -2.838196         2    ;  uncertainty k = 0.690458
         7        20        23        39     9        0.000000        0.219061         3    ;  uncertainty k = 0.047184
         7        20        23        39     9      180.000000       -0.009699         4    ;  uncertainty k = 0.115866
         8         7        20        21     9        0.000000       -1.222410         1    ;  uncertainty k = 0.805736
         8         7        20        21     9      180.000000        0.815415         2    ;  uncertainty k = 0.790200
         8         7        20        21     9        0.000000        0.251062         3    ;  uncertainty k = 0.312800
         8         7        20        21     9      180.000000       -0.069861         4    ;  uncertainty k = 0.166346
         8         7        20        22     9        0.000000       -1.222410         1    ;  uncertainty k = 0.805736
         8         7        20        22     9      180.000000        0.815415         2    ;  uncertainty k = 0.790200
         8         7        20        22     9        0.000000        0.251062         3    ;  uncertainty k = 0.312800
         8         7        20        22     9      180.000000       -0.069861         4    ;  uncertainty k = 0.166346
         8         7        20        23     9        0.000000        0.949639         1    ;  uncertainty k = 1.159704
         8         7        20        23     9      180.000000        0.171673         2    ;  uncertainty k = 0.537045
         8         7        20        23     9        0.000000        0.079934         3    ;  uncertainty k = 0.399822
         8         7        20        23     9      180.000000        0.441907         4    ;  uncertainty k = 0.214590
         8         9        10        11     9        0.000000       -0.025378         1    ;  uncertainty k = 0.278857
         8         9        10        11     9      180.000000       10.942220         2    ;  uncertainty k = 0.451091
         8         9        10        11     9        0.000000        1.446832         3    ;  uncertainty k = 0.277010
         8         9        10        11     9      180.000000        1.742757         4    ;  uncertainty k = 0.234581
         9         8         7        20     9        0.000000        0.430581         1    ;  uncertainty k = 0.360136
         9         8         7        20     9      180.000000        8.869391         2    ;  uncertainty k = 0.402358
         9         8         7        20     9        0.000000        1.407091         3    ;  uncertainty k = 0.314684
         9         8         7        20     9      180.000000        1.828026         4    ;  uncertainty k = 0.101007
         9        10        11        12     9        0.000000        5.037866         1    ;  uncertainty k = 0.393151
         9        10        11        12     9      180.000000        5.547499         2    ;  uncertainty k = 0.173923
         9        10        11        12     9        0.000000        0.361188         3    ;  uncertainty k = 0.088221
         9        10        11        12     9      180.000000        0.192538         4    ;  uncertainty k = 0.085505
        10         5         4        30     9        0.000000        0.652234         1    ;  uncertainty k = 0.198647
        10         5         4        30     9      180.000000        1.628000         2    ;  uncertainty k = 0.570813
        10         5         4        30     9        0.000000        0.160914         3    ;  uncertainty k = 0.235573
        10         5         4        30     9      180.000000        0.224519         4    ;  uncertainty k = 0.134052
        10         5         4        31     9        0.000000        0.652235         1    ;  uncertainty k = 0.198647
        10         5         4        31     9      180.000000        1.628000         2    ;  uncertainty k = 0.570812
        10         5         4        31     9        0.000000        0.160914         3    ;  uncertainty k = 0.235574
        10         5         4        31     9      180.000000        0.224519         4    ;  uncertainty k = 0.134052
        10         9         8        32     9        0.000000       -0.135482         1    ;  uncertainty k = 0.297724
        10         9         8        32     9      180.000000        7.736217         2    ;  uncertainty k = 0.146885
        10         9         8        32     9        0.000000        1.063833         3    ;  uncertainty k = 0.214763
        10         9         8        32     9      180.000000        1.721247         4    ;  uncertainty k = 0.072644
        10        11        12        13     9        0.000000        4.238206         1    ;  uncertainty k = 0.356994
        10        11        12        13     9      180.000000        5.381354         2    ;  uncertainty k = 0.286732
        10        11        12        13     9        0.000000        0.427950         3    ;  uncertainty k = 0.130030
        10        11        12        13     9      180.000000        0.164111         4    ;  uncertainty k = 0.099582
        10        11        12        19     9        0.000000        4.264654         1    ;  uncertainty k = 0.399109
        10        11        12        19     9      180.000000        5.638276         2    ;  uncertainty k = 0.278838
        10        11        12        19     9        0.000000        0.379125         3    ;  uncertainty k = 0.150809
        10        11        12        19     9      180.000000        0.146882         4    ;  uncertainty k = 0.122568
        11        10         9        33     9        0.000000       -0.030112         1    ;  uncertainty k = 0.163789
        11        10         9        33     9      180.000000        9.061191         2    ;  uncertainty k = 0.360063
        11        10         9        33     9        0.000000        0.848008         3    ;  uncertainty k = 0.231024
        11        10         9        33     9      180.000000        1.131750         4    ;  uncertainty k = 0.139389
        11        12        13        14     9        0.000000        0.110616         1    ;  uncertainty k = 0.280260
        11        12        13        14     9      180.000000       10.825049         2    ;  uncertainty k = 0.268023
        11        12        13        14     9        0.000000        1.291452         3    ;  uncertainty k = 0.181954
        11        12        13        14     9      180.000000        1.601789         4    ;  uncertainty k = 0.123424
        11        12        13        34     9        0.000000       -0.096546         1    ;  uncertainty k = 0.131039
        11        12        13        34     9      180.000000        8.372996         2    ;  uncertainty k = 0.282068
        11        12        13        34     9        0.000000        0.828749         3    ;  uncertainty k = 0.203572
        11        12        13        34     9      180.000000        1.093044         4    ;  uncertainty k = 0.104496
        11        12        19        17     9        0.000000       -0.066703         1    ;  uncertainty k = 0.256317
        11        12        19        17     9      180.000000       11.317502         2    ;  uncertainty k = 0.454829
        11        12        19        17     9        0.000000        1.188762         3    ;  uncertainty k = 0.073630
        11        12        19        17     9      180.000000        1.617869         4    ;  uncertainty k = 0.138905
        11        12        19        36     9        0.000000        0.114391         1    ;  uncertainty k = 0.181010
        11        12        19        36     9      180.000000        8.496717         2    ;  uncertainty k = 0.306846
        11        12        19        36     9        0.000000        0.848986         3    ;  uncertainty k = 0.295991
        11        12        19        36     9      180.000000        1.147922         4    ;  uncertainty k = 0.169207
        12        13        14        15     9        0.000000        0.029267         1    ;  uncertainty k = 0.076351
        12        13        14        15     9      180.000000       12.681220         2    ;  uncertainty k = 0.591249
        12        13        14        15     9        0.000000        1.486062         3    ;  uncertainty k = 0.376399
        12        13        14        15     9      180.000000        1.475435         4    ;  uncertainty k = 0.279101
        12        13        14        16     9        0.000000       -0.041312         1    ;  uncertainty k = 0.166168
        12        13        14        16     9      180.000000        8.711743         2    ;  uncertainty k = 0.535595
        12        13        14        16     9        0.000000        0.058226         3    ;  uncertainty k = 0.483440
        12        13        14        16     9      180.000000        1.296510         4    ;  uncertainty k = 0.287570
        12        19        17        16     9        0.000000       -0.126135         1    ;  uncertainty k = 0.335758
        12        19        17        16     9      180.000000       11.543728         2    ;  uncertainty k = 0.211528
        12        19        17        16     9        0.000000       -0.409273         3    ;  uncertainty k = 0.525587
        12        19        17        16     9      180.000000        1.114605         4    ;  uncertainty k = 0.265123
        12        19        17        18     9        0.000000        0.008933         1    ;  uncertainty k = 0.224406
        12        19        17        18     9      180.000000       10.110912         2    ;  uncertainty k = 0.333390
        12        19        17        18     9        0.000000        1.306913         3    ;  uncertainty k = 0.264685
        12        19        17        18     9      180.000000        1.637563         4    ;  uncertainty k = 0.199965
        13        12        19        17     9        0.000000       -0.051322         1    ;  uncertainty k = 0.175220
        13        12        19        17     9      180.000000        9.609478         2    ;  uncertainty k = 0.403633
        13        12        19        17     9        0.000000        0.176055         3    ;  uncertainty k = 0.389800
        13        12        19        17     9      180.000000        1.259071         4    ;  uncertainty k = 0.358591
        13        12        19        36     9        0.000000        0.319861         1    ;  uncertainty k = 0.231991
        13        12        19        36     9      180.000000        6.318270         2    ;  uncertainty k = 0.750341
        13        12        19        36     9        0.000000        1.465273         3    ;  uncertainty k = 0.273057
        13        12        19        36     9      180.000000        1.603175         4    ;  uncertainty k = 0.165843
        13        14        16        17     9        0.000000       -0.019167         1    ;  uncertainty k = 0.236218
        13        14        16        17     9      180.000000        9.329732         2    ;  uncertainty k = 0.304985
        13        14        16        17     9        0.000000        0.099008         3    ;  uncertainty k = 0.304607
        13        14        16        17     9      180.000000        1.274852         4    ;  uncertainty k = 0.274241
        13        14        16        35     9        0.000000       -0.000593         1    ;  uncertainty k = 0.199602
        13        14        16        35     9      180.000000        5.887325         2    ;  uncertainty k = 0.750109
        13        14        16        35     9        0.000000        1.321078         3    ;  uncertainty k = 0.278410
        13        14        16        35     9      180.000000        1.516102         4    ;  uncertainty k = 0.088176
        14        13        12        19     9        0.000000        0.083575         1    ;  uncertainty k = 0.184356
        14        13        12        19     9      180.000000        9.069038         2    ;  uncertainty k = 0.673942
        14        13        12        19     9        0.000000        0.004877         3    ;  uncertainty k = 0.505260
        14        13        12        19     9      180.000000        1.219759         4    ;  uncertainty k = 0.386904
        14        16        17        18     9        0.000000        0.042737         1    ;  uncertainty k = 0.291483
        14        16        17        18     9      180.000000        9.815526         2    ;  uncertainty k = 0.311825
        14        16        17        18     9        0.000000        1.325513         3    ;  uncertainty k = 0.249458
        14        16        17        18     9      180.000000        1.659796         4    ;  uncertainty k = 0.165102
        14        16        17        19     9        0.000000       -0.093634         1    ;  uncertainty k = 0.287446
        14        16        17        19     9      180.000000       11.524169         2    ;  uncertainty k = 0.474663
        14        16        17        19     9        0.000000       -0.540684         3    ;  uncertainty k = 0.386751
        14        16        17        19     9      180.000000        1.065656         4    ;  uncertainty k = 0.270989
        15        14        13        34     9        0.000000       -0.266165         1    ;  uncertainty k = 0.229666
        15        14        13        34     9      180.000000        8.750384         2    ;  uncertainty k = 0.391886
        15        14        13        34     9        0.000000        0.839204         3    ;  uncertainty k = 0.231015
        15        14        13        34     9      180.000000        1.056841         4    ;  uncertainty k = 0.208951
        15        14        16        17     9        0.000000       -0.039623         1    ;  uncertainty k = 0.207167
        15        14        16        17     9      180.000000       13.467148         2    ;  uncertainty k = 0.458195
        15        14        16        17     9        0.000000        1.330325         3    ;  uncertainty k = 0.272641
        15        14        16        17     9      180.000000        1.408183         4    ;  uncertainty k = 0.220523
        15        14        16        35     9        0.000000       -0.317019         1    ;  uncertainty k = 0.306342
        15        14        16        35     9      180.000000        8.994255         2    ;  uncertainty k = 0.352455
        15        14        16        35     9        0.000000        0.799840         3    ;  uncertainty k = 0.209801
        15        14        16        35     9      180.000000        1.001169         4    ;  uncertainty k = 0.172439
        16        14        13        34     9        0.000000        0.117728         1    ;  uncertainty k = 0.152876
        16        14        13        34     9      180.000000        5.739162         2    ;  uncertainty k = 0.725581
        16        14        13        34     9        0.000000        1.354805         3    ;  uncertainty k = 0.319905
        16        14        13        34     9      180.000000        1.531360         4    ;  uncertainty k = 0.102992
        16        17        18        26     9        0.000000        0.000000         1    ;  uncertainty k = 0.000000
        16        17        18        26     9      180.000000        0.000000         2    ;  uncertainty k = 0.000000
        16        17        18        26     9        0.000000        0.000000         3    ;  uncertainty k = 0.000000
        16        17        18        26     9      180.000000        0.000000         4    ;  uncertainty k = 0.000000
        16        17        19        36     9        0.000000        0.266901         1    ;  uncertainty k = 0.392933
        16        17        19        36     9      180.000000        6.702181         2    ;  uncertainty k = 0.686766
        16        17        19        36     9        0.000000        1.492380         3    ;  uncertainty k = 0.274536
        16        17        19        36     9      180.000000        1.680830         4    ;  uncertainty k = 0.134103
        18        17        16        35     9        0.000000       -0.401280         1    ;  uncertainty k = 0.467937
        18        17        16        35     9      180.000000        7.099068         2    ;  uncertainty k = 0.224071
        18        17        16        35     9        0.000000        0.520905         3    ;  uncertainty k = 0.112594
        18        17        16        35     9      180.000000        0.955860         4    ;  uncertainty k = 0.230500
        18        17        19        36     9        0.000000       -0.303371         1    ;  uncertainty k = 0.311612
        18        17        19        36     9      180.000000        7.433399         2    ;  uncertainty k = 0.295932
        18        17        19        36     9        0.000000        0.543142         3    ;  uncertainty k = 0.139134
        18        17        19        36     9      180.000000        0.967541         4    ;  uncertainty k = 0.213771
        19        12        13        34     9        0.000000        0.238077         1    ;  uncertainty k = 0.231773
        19        12        13        34     9      180.000000        5.993858         2    ;  uncertainty k = 0.765201
        19        12        13        34     9        0.000000        1.476771         3    ;  uncertainty k = 0.368309
        19        12        13        34     9      180.000000        1.569369         4    ;  uncertainty k = 0.131184
        19        17        16        35     9        0.000000        0.157284         1    ;  uncertainty k = 0.536677
        19        17        16        35     9      180.000000        6.651379         2    ;  uncertainty k = 0.604357
        19        17        16        35     9        0.000000        1.457227         3    ;  uncertainty k = 0.366961
        19        17        16        35     9      180.000000        1.599688         4    ;  uncertainty k = 0.107457
        19        17        18        26     9        0.000000        0.000000         1    ;  uncertainty k = 0.000000
        19        17        18        26     9      180.000000        0.000000         2    ;  uncertainty k = 0.000000
        19        17        18        26     9        0.000000        0.000000         3    ;  uncertainty k = 0.000000
        19        17        18        26     9      180.000000        0.000000         4    ;  uncertainty k = 0.000000
        20         7         8        32     9        0.000000       -0.399472         1    ;  uncertainty k = 0.372042
        20         7         8        32     9      180.000000        6.768478         2    ;  uncertainty k = 0.496954
        20         7         8        32     9        0.000000        0.722327         3    ;  uncertainty k = 0.229903
        20         7         8        32     9      180.000000        1.149012         4    ;  uncertainty k = 0.250442
        21        20        23        37     9        0.000000       -0.104742         1    ;  uncertainty k = 0.679926
        21        20        23        37     9      180.000000       -0.300577         2    ;  uncertainty k = 0.372126
        21        20        23        37     9        0.000000        0.801914         3    ;  uncertainty k = 0.039431
        21        20        23        37     9      180.000000        0.027473         4    ;  uncertainty k = 0.090177
        21        20        23        38     9        0.000000       -0.104742         1    ;  uncertainty k = 0.679926
        21        20        23        38     9      180.000000       -0.300577         2    ;  uncertainty k = 0.372126
        21        20        23        38     9        0.000000        0.801914         3    ;  uncertainty k = 0.039431
        21        20        23        38     9      180.000000        0.027473         4    ;  uncertainty k = 0.090177
        21        20        23        39     9        0.000000       -0.104742         1    ;  uncertainty k = 0.679926
        21        20        23        39     9      180.000000       -0.300577         2    ;  uncertainty k = 0.372126
        21        20        23        39     9        0.000000        0.801914         3    ;  uncertainty k = 0.039431
        21        20        23        39     9      180.000000        0.027473         4    ;  uncertainty k = 0.090177
        22        20        23        37     9        0.000000       -0.104742         1    ;  uncertainty k = 0.679926
        22        20        23        37     9      180.000000       -0.300577         2    ;  uncertainty k = 0.372126
        22        20        23        37     9        0.000000        0.801914         3    ;  uncertainty k = 0.039431
        22        20        23        37     9      180.000000        0.027473         4    ;  uncertainty k = 0.090177
        22        20        23        38     9        0.000000       -0.104742         1    ;  uncertainty k = 0.679926
        22        20        23        38     9      180.000000       -0.300577         2    ;  uncertainty k = 0.372126
        22        20        23        38     9        0.000000        0.801914         3    ;  uncertainty k = 0.039431
        22        20        23        38     9      180.000000        0.027473         4    ;  uncertainty k = 0.090177
        22        20        23        39     9        0.000000       -0.104742         1    ;  uncertainty k = 0.679926
        22        20        23        39     9      180.000000       -0.300577         2    ;  uncertainty k = 0.372126
        22        20        23        39     9        0.000000        0.801914         3    ;  uncertainty k = 0.039431
        22        20        23        39     9      180.000000        0.027473         4    ;  uncertainty k = 0.090177
        24         3         2        29     9        0.000000        0.203639         1    ;  uncertainty k = 0.559440
        24         3         2        29     9      180.000000       -0.982460         2    ;  uncertainty k = 0.229395
        24         3         2        29     9        0.000000        0.655891         3    ;  uncertainty k = 0.215134
        24         3         2        29     9      180.000000        0.053702         4    ;  uncertainty k = 0.154378
        24         3         4        30     9        0.000000        0.266332         1    ;  uncertainty k = 0.268325
        24         3         4        30     9      180.000000       -0.710516         2    ;  uncertainty k = 0.296555
        24         3         4        30     9        0.000000        0.875367         3    ;  uncertainty k = 0.208230
        24         3         4        30     9      180.000000        0.030052         4    ;  uncertainty k = 0.040824
        24         3         4        31     9        0.000000        0.266333         1    ;  uncertainty k = 0.268324
        24         3         4        31     9      180.000000       -0.710514         2    ;  uncertainty k = 0.296557
        24         3         4        31     9        0.000000        0.875367         3    ;  uncertainty k = 0.208231
        24         3         4        31     9      180.000000        0.030052         4    ;  uncertainty k = 0.040824
        25         3         2        29     9        0.000000        0.203639         1    ;  uncertainty k = 0.559440
        25         3         2        29     9      180.000000       -0.982460         2    ;  uncertainty k = 0.229395
        25         3         2        29     9        0.000000        0.655891         3    ;  uncertainty k = 0.215134
        25         3         2        29     9      180.000000        0.053702         4    ;  uncertainty k = 0.154378
        25         3         4        30     9        0.000000        0.266332         1    ;  uncertainty k = 0.268325
        25         3         4        30     9      180.000000       -0.710516         2    ;  uncertainty k = 0.296555
        25         3         4        30     9        0.000000        0.875367         3    ;  uncertainty k = 0.208230
        25         3         4        30     9      180.000000        0.030052         4    ;  uncertainty k = 0.040824
        25         3         4        31     9        0.000000        0.266333         1    ;  uncertainty k = 0.268324
        25         3         4        31     9      180.000000       -0.710514         2    ;  uncertainty k = 0.296557
        25         3         4        31     9        0.000000        0.875367         3    ;  uncertainty k = 0.208231
        25         3         4        31     9      180.000000        0.030052         4    ;  uncertainty k = 0.040824
        27         1         2        29     9        0.000000        6.624244         1    ;  uncertainty k = 0.332651
        27         1         2        29     9      180.000000       -1.736992         2    ;  uncertainty k = 0.701009
        27         1         2        29     9        0.000000        0.726125         3    ;  uncertainty k = 0.289442
        27         1         2        29     9      180.000000        0.223458         4    ;  uncertainty k = 0.169994
        28         1         2        29     9        0.000000        6.624244         1    ;  uncertainty k = 0.332651
        28         1         2        29     9      180.000000       -1.736992         2    ;  uncertainty k = 0.701009
        28         1         2        29     9        0.000000        0.726125         3    ;  uncertainty k = 0.289442
        28         1         2        29     9      180.000000        0.223458         4    ;  uncertainty k = 0.169994
        32         8         9        33     9        0.000000       -0.144094         1    ;  uncertainty k = 0.467053
        32         8         9        33     9      180.000000        7.484493         2    ;  uncertainty k = 0.397919
        32         8         9        33     9        0.000000       -0.328887         3    ;  uncertainty k = 0.274534
        32         8         9        33     9      180.000000        0.256201         4    ;  uncertainty k = 0.095282

[ dihedrals ] ; impropers
;       ai        aj        ak        al funct           phase               k        pn
         5         4         6        10     4      180.000000        5.128103         2    ;  uncertainty k = 0.334820
         5         6        10         4     4      180.000000        5.128103         2    ;  uncertainty k = 0.334820
         5        10         4         6     4      180.000000        5.128103         2    ;  uncertainty k = 0.334820
         6         2         5         7     4      180.000000        7.325433         2    ;  uncertainty k = 0.077914
         6         5         7         2     4      180.000000        7.325433         2    ;  uncertainty k = 0.077914
         6         7         2         5     4      180.000000        7.325433         2    ;  uncertainty k = 0.077914
         7         6         8        20     4      180.000000        4.836696         2    ;  uncertainty k = 0.346278
         7         8        20         6     4      180.000000        4.836696         2    ;  uncertainty k = 0.346278
         7        20         6         8     4      180.000000        4.836696         2    ;  uncertainty k = 0.346278
         8         7         9        32     4      180.000000        4.728445         2    ;  uncertainty k = 0.059141
         8         9        32         7     4      180.000000        4.728445         2    ;  uncertainty k = 0.059141
         8        32         7         9     4      180.000000        4.728445         2    ;  uncertainty k = 0.059141
         9         8        10        33     4      180.000000        1.934226         2    ;  uncertainty k = 0.076313
         9        10        33         8     4      180.000000        1.934226         2    ;  uncertainty k = 0.076313
         9        33         8        10     4      180.000000        1.934226         2    ;  uncertainty k = 0.076313
        10         5         9        11     4      180.000000       17.492433         2    ;  uncertainty k = 0.092616
        10         9        11         5     4      180.000000       17.492433         2    ;  uncertainty k = 0.092616
        10        11         5         9     4      180.000000       17.492433         2    ;  uncertainty k = 0.092616
        12        11        13        19     4      180.000000       19.053422         2    ;  uncertainty k = 0.038066
        12        13        19        11     4      180.000000       19.053422         2    ;  uncertainty k = 0.038066
        12        19        11        13     4      180.000000       19.053422         2    ;  uncertainty k = 0.038066
        13        12        14        34     4      180.000000        1.848818         2    ;  uncertainty k = 0.255047
        13        14        34        12     4      180.000000        1.848818         2    ;  uncertainty k = 0.255047
        13        34        12        14     4      180.000000        1.848818         2    ;  uncertainty k = 0.255047
        14        13        15        16     4      180.000000       17.880537         2    ;  uncertainty k = 0.047509
        14        15        16        13     4      180.000000       17.880537         2    ;  uncertainty k = 0.047509
        14        16        13        15     4      180.000000       17.880537         2    ;  uncertainty k = 0.047509
        16        14        17        35     4      180.000000        2.461655         2    ;  uncertainty k = 0.340230
        16        17        35        14     4      180.000000        2.461655         2    ;  uncertainty k = 0.340230
        16        35        14        17     4      180.000000        2.461655         2    ;  uncertainty k = 0.340230
        17        16        18        19     4      180.000000       11.727372         2    ;  uncertainty k = 0.187314
        17        18        19        16     4      180.000000       11.727372         2    ;  uncertainty k = 0.187314
        17        19        16        18     4      180.000000       11.727372         2    ;  uncertainty k = 0.187314
        19        12        17        36     4      180.000000        2.852756         2    ;  uncertainty k = 0.269075
        19        17        36        12     4      180.000000        2.852756         2    ;  uncertainty k = 0.269075
        19        36        12        17     4      180.000000        2.852756         2    ;  uncertainty k = 0.269075

[ pairs ]
;       ai        aj funct
         1         4     1
         1         5     1
         1         7     1
         1        24     1
         1        25     1
         2         8     1
         2        10     1
         2        20     1
         2        30     1
         2        31     1
         3         7     1
         3        10     1
         3        27     1
         3        28     1
         4         7     1
         4         9     1
         4        11     1
         4        29     1
         5         8     1
         5        12     1
         5        20     1
         5        24     1
         5        25     1
         5        29     1
         5        33     1
         6         9     1
         6        11     1
         6        21     1
         6        22     1
         6        23     1
         6        24     1
         6        25     1
         6        27     1
         6        28     1
         6        30     1
         6        31     1
         6        32     1
         7        10     1
         7        29     1
         7        33     1
         7        37     1
         7        38     1
         7        39     1
         8        11     1
         8        21     1
         8        22     1
         8        23     1
         9        12     1
         9        20     1
        10        13     1
        10        19     1
        10        30     1
        10        31     1
        10        32     1
        11        14     1
        11        17     1
        11        33     1
        11        34     1
        11        36     1
        12        15     1
        12        16     1
        12        18     1
        13        17     1
        13        35     1
        13        36     1
        14        18     1
        14        19     1
        15        17     1
        15        34     1
        15        35     1
        16        26     1
        16        34     1
        16        36     1
        18        35     1
        18        36     1
        19        26     1
        19        34     1
        19        35     1
        20        32     1
        21        37     1
        21        38     1
        21        39     1
        22        37     1
        22        38     1
        22        39     1
        24        29     1
        24        30     1
        24        31     1
        25        29     1
        25        30     1
        25        31     1
        27        29     1
        28        29     1
        32        33     1
