; ITP file created by ByteFF-joint-25, 2026-02-17 09:18:31.445270

[ atomtypes ]
;name           bonded.type        at.num        mass        charge   ptype           sigma         epsilon
 o0bf                                   8      0.0000       0.00000       A     3.24314e-01     3.87820e-01    ;  uncertainty sigma = 0.000033, epsilon = 0.000883
 c1bf                                   6      0.0000       0.00000       A     3.39735e-01     4.50327e-01    ;  uncertainty sigma = 0.000031, epsilon = 0.001400
 c2bf                                   6      0.0000       0.00000       A     3.39804e-01     4.51139e-01    ;  uncertainty sigma = 0.000023, epsilon = 0.001153
 c3bf                                   6      0.0000       0.00000       A     3.39790e-01     4.50784e-01    ;  uncertainty sigma = 0.000016, epsilon = 0.000744
 c4bf                                   6      0.0000       0.00000       A     3.31546e-01     4.13508e-01    ;  uncertainty sigma = 0.000009, epsilon = 0.000938
 c5bf                                   6      0.0000       0.00000       A     3.31549e-01     4.12704e-01    ;  uncertainty sigma = 0.000028, epsilon = 0.001372
 c6bf                                   6      0.0000       0.00000       A     3.31530e-01     4.12955e-01    ;  uncertainty sigma = 0.000024, epsilon = 0.001817
 c7bf                                   6      0.0000       0.00000       A     3.31505e-01     4.13318e-01    ;  uncertainty sigma = 0.000012, epsilon = 0.000475
 c8bf                                   6      0.0000       0.00000       A     3.31528e-01     4.13628e-01    ;  uncertainty sigma = 0.000009, epsilon = 0.000546
 c9bf                                   6      0.0000       0.00000       A     3.31531e-01     4.13205e-01    ;  uncertainty sigma = 0.000015, epsilon = 0.000623
 o10bf                                  8      0.0000       0.00000       A     3.15560e-01     3.01903e-01    ;  uncertainty sigma = 0.000035, epsilon = 0.001496
 c11bf                                  6      0.0000       0.00000       A     3.31495e-01     4.13941e-01    ;  uncertainty sigma = 0.000010, epsilon = 0.001010
 c12bf                                  6      0.0000       0.00000       A     3.31520e-01     4.13586e-01    ;  uncertainty sigma = 0.000002, epsilon = 0.000805
 c13bf                                  6      0.0000       0.00000       A     3.31497e-01     4.13352e-01    ;  uncertainty sigma = 0.000008, epsilon = 0.000492
 f14bf                                  9      0.0000       0.00000       A     3.03420e-01     3.47893e-01    ;  uncertainty sigma = 0.000010, epsilon = 0.000765
 c15bf                                  6      0.0000       0.00000       A     3.31510e-01     4.13401e-01    ;  uncertainty sigma = 0.000009, epsilon = 0.000546
 c16bf                                  6      0.0000       0.00000       A     3.31508e-01     4.13715e-01    ;  uncertainty sigma = 0.000016, epsilon = 0.000826
 c17bf                                  6      0.0000       0.00000       A     3.47927e-01     6.68046e-01    ;  uncertainty sigma = 0.000023, epsilon = 0.001608
 c18bf                                  6      0.0000       0.00000       A     3.31520e-01     4.13321e-01    ;  uncertainty sigma = 0.000008, epsilon = 0.000748
 s19bf                                 16      0.0000       0.00000       A     4.05920e-01     2.56029e-01    ;  uncertainty sigma = 0.000028, epsilon = 0.003759
 o20bf                                  8      0.0000       0.00000       A     3.04797e-01     6.11883e-01    ;  uncertainty sigma = 0.000022, epsilon = 0.000274
 o21bf                                  8      0.0000       0.00000       A     3.04797e-01     6.11883e-01    ;  uncertainty sigma = 0.000022, epsilon = 0.000274
 c22bf                                  6      0.0000       0.00000       A     3.39778e-01     4.51014e-01    ;  uncertainty sigma = 0.000025, epsilon = 0.002979
 f23bf                                  9      0.0000       0.00000       A     3.03449e-01     3.47672e-01    ;  uncertainty sigma = 0.000012, epsilon = 0.001616
 f24bf                                  9      0.0000       0.00000       A     3.03449e-01     3.47672e-01    ;  uncertainty sigma = 0.000012, epsilon = 0.001616
 n25bf                                  7      0.0000       0.00000       A     3.27375e-01     4.59084e-01    ;  uncertainty sigma = 0.000021, epsilon = 0.000492
 cl26bf                                17      0.0000       0.00000       A     3.46442e-01     1.10245e+00    ;  uncertainty sigma = 0.000040, epsilon = 0.008039
 h27bf                                  1      0.0000       0.00000       A     5.38093e-02     1.93077e-02    ;  uncertainty sigma = 0.000062, epsilon = 0.000926
 h28bf                                  1      0.0000       0.00000       A     2.42326e-01     8.68827e-02    ;  uncertainty sigma = 0.000128, epsilon = 0.000858
 h29bf                                  1      0.0000       0.00000       A     2.60052e-01     8.67184e-02    ;  uncertainty sigma = 0.000035, epsilon = 0.000545
 h30bf                                  1      0.0000       0.00000       A     2.60052e-01     8.67184e-02    ;  uncertainty sigma = 0.000035, epsilon = 0.000545
 h31bf                                  1      0.0000       0.00000       A     2.62567e-01     6.72430e-02    ;  uncertainty sigma = 0.000020, epsilon = 0.000765
 h32bf                                  1      0.0000       0.00000       A     2.62556e-01     6.70855e-02    ;  uncertainty sigma = 0.000006, epsilon = 0.000381
 h33bf                                  1      0.0000       0.00000       A     2.62552e-01     6.72491e-02    ;  uncertainty sigma = 0.000007, epsilon = 0.000350
 h34bf                                  1      0.0000       0.00000       A     2.62545e-01     6.70249e-02    ;  uncertainty sigma = 0.000017, epsilon = 0.000507
 h35bf                                  1      0.0000       0.00000       A     2.62547e-01     6.71166e-02    ;  uncertainty sigma = 0.000014, epsilon = 0.000743
 h36bf                                  1      0.0000       0.00000       A     2.24966e-01     8.71753e-02    ;  uncertainty sigma = 0.000466, epsilon = 0.000983
 h37bf                                  1      0.0000       0.00000       A     2.24966e-01     8.71754e-02    ;  uncertainty sigma = 0.000466, epsilon = 0.000983

[ moleculetype ]
;name             nrexcl
 MOL                   3

[ atoms ]
;       nr            type      resi   res      atom      cgnr      charge          mass ; qtot
         1            o0bf         1   UNL        o0         1    -0.57153       15.9990 ; qtot   -0.572
         2            c1bf         1   UNL        c1         2     0.16337       12.0110 ; qtot   -0.408
         3            c2bf         1   UNL        c2         3     0.38805       12.0110 ; qtot   -0.020
         4            c3bf         1   UNL        c3         4    -0.05626       12.0110 ; qtot   -0.076
         5            c4bf         1   UNL        c4         5    -0.10086       12.0110 ; qtot   -0.177
         6            c5bf         1   UNL        c5         6     0.00760       12.0110 ; qtot   -0.170
         7            c6bf         1   UNL        c6         7    -0.22089       12.0110 ; qtot   -0.391
         8            c7bf         1   UNL        c7         8    -0.00755       12.0110 ; qtot   -0.398
         9            c8bf         1   UNL        c8         9    -0.17746       12.0110 ; qtot   -0.576
        10            c9bf         1   UNL        c9        10     0.16711       12.0110 ; qtot   -0.408
        11           o10bf         1   UNL       o10        11    -0.24701       15.9990 ; qtot   -0.655
        12           c11bf         1   UNL       c11        12     0.15098       12.0110 ; qtot   -0.504
        13           c12bf         1   UNL       c12        13    -0.18271       12.0110 ; qtot   -0.687
        14           c13bf         1   UNL       c13        14     0.15843       12.0110 ; qtot   -0.529
        15           f14bf         1   UNL       f14        15    -0.12713       18.9980 ; qtot   -0.656
        16           c15bf         1   UNL       c15        16    -0.15485       12.0110 ; qtot   -0.811
        17           c16bf         1   UNL       c16        17     0.03943       12.0110 ; qtot   -0.771
        18           c17bf         1   UNL       c17        18     0.22805       12.0110 ; qtot   -0.543
        19           c18bf         1   UNL       c18        19    -0.13883       12.0110 ; qtot   -0.682
        20           s19bf         1   UNL       s19        20     1.01040       32.0670 ; qtot    0.328
        21           o20bf         1   UNL       o20        21    -0.56507       15.9990 ; qtot   -0.237
        22           o21bf         1   UNL       o21        22    -0.56507       15.9990 ; qtot   -0.802
        23           c22bf         1   UNL       c22        23    -0.03782       12.0110 ; qtot   -0.840
        24           f23bf         1   UNL       f23        24    -0.22758       18.9980 ; qtot   -1.067
        25           f24bf         1   UNL       f24        25    -0.22758       18.9980 ; qtot   -1.295
        26           n25bf         1   UNL       n25        26    -0.34869       14.0070 ; qtot   -1.643
        27          cl26bf         1   UNL      cl26        27    -0.11579       35.4530 ; qtot   -1.759
        28           h27bf         1   UNL       h27        28     0.41807        1.0080 ; qtot   -1.341
        29           h28bf         1   UNL       h28        29     0.09251        1.0080 ; qtot   -1.249
        30           h29bf         1   UNL       h29        30     0.09141        1.0080 ; qtot   -1.157
        31           h30bf         1   UNL       h30        31     0.09141        1.0080 ; qtot   -1.066
        32           h31bf         1   UNL       h31        32     0.16528        1.0080 ; qtot   -0.901
        33           h32bf         1   UNL       h32        33     0.15782        1.0080 ; qtot   -0.743
        34           h33bf         1   UNL       h33        34     0.16858        1.0080 ; qtot   -0.574
        35           h34bf         1   UNL       h34        35     0.16624        1.0080 ; qtot   -0.408
        36           h35bf         1   UNL       h35        36     0.16647        1.0080 ; qtot   -0.241
        37           h36bf         1   UNL       h36        37     0.12073        1.0080 ; qtot   -0.121
        38           h37bf         1   UNL       h37        38     0.12074        1.0080 ; qtot   -0.000

[ bonds ]
;       ai        aj funct               r               k
         1         2     1        0.141341   266784.598340    ;  uncertainty r = 0.000175, k = 15.524028
         1        28     1        0.097120   457921.536914    ;  uncertainty r = 0.000049, k = 2.604885
         2         3     1        0.154750   188145.853564    ;  uncertainty r = 0.000252, k = 8.551885
         2         6     1        0.151718   244091.531299    ;  uncertainty r = 0.000137, k = 22.272484
         2        29     1        0.109523   308370.733936    ;  uncertainty r = 0.000079, k = 3.008193
         3         4     1        0.153436   201677.482617    ;  uncertainty r = 0.000098, k = 9.661873
         3        24     1        0.137560   301163.370020    ;  uncertainty r = 0.000061, k = 5.585031
         3        25     1        0.137560   301163.370020    ;  uncertainty r = 0.000061, k = 5.585031
         4         5     1        0.151090   252656.524561    ;  uncertainty r = 0.000114, k = 18.986535
         4        30     1        0.109406   310072.348145    ;  uncertainty r = 0.000044, k = 1.784813
         4        31     1        0.109406   310072.348145    ;  uncertainty r = 0.000044, k = 1.784813
         5         6     1        0.139507   361806.139355    ;  uncertainty r = 0.000128, k = 18.499427
         5        10     1        0.138874   352248.390967    ;  uncertainty r = 0.000123, k = 4.466178
         6         7     1        0.139351   334163.444238    ;  uncertainty r = 0.000124, k = 11.550624
         7         8     1        0.139258   348232.884814    ;  uncertainty r = 0.000178, k = 4.537409
         7        20     1        0.178537   140521.187549    ;  uncertainty r = 0.000116, k = 13.058332
         8         9     1        0.139136   366776.171582    ;  uncertainty r = 0.000071, k = 3.640519
         8        32     1        0.108482   328735.378418    ;  uncertainty r = 0.000038, k = 1.141283
         9        10     1        0.139689   352955.794434    ;  uncertainty r = 0.000048, k = 6.725251
         9        33     1        0.108753   336163.893701    ;  uncertainty r = 0.000031, k = 1.172871
        10        11     1        0.138287   316815.907080    ;  uncertainty r = 0.000141, k = 11.446028
        11        12     1        0.137077   316895.097656    ;  uncertainty r = 0.000110, k = 9.258264
        12        13     1        0.139427   359163.303906    ;  uncertainty r = 0.000040, k = 4.028925
        12        19     1        0.139179   355512.646436    ;  uncertainty r = 0.000043, k = 0.656935
        13        14     1        0.138903   360755.951270    ;  uncertainty r = 0.000040, k = 3.414912
        13        34     1        0.108801   339525.062500    ;  uncertainty r = 0.000019, k = 1.519211
        14        15     1        0.134939   340193.470801    ;  uncertainty r = 0.000095, k = 3.973496
        14        16     1        0.138772   359379.322314    ;  uncertainty r = 0.000049, k = 1.285215
        16        17     1        0.140293   363423.557715    ;  uncertainty r = 0.000073, k = 1.983955
        16        35     1        0.108643   335847.029248    ;  uncertainty r = 0.000020, k = 0.933262
        17        18     1        0.143666   316064.886230    ;  uncertainty r = 0.000041, k = 3.494324
        17        19     1        0.140042   357603.165283    ;  uncertainty r = 0.000048, k = 4.155025
        18        26     1        0.116625  1127949.809766    ;  uncertainty r = 0.000026, k = 2.900562
        19        36     1        0.108681   335495.357715    ;  uncertainty r = 0.000025, k = 1.572342
        20        21     1        0.147356   502996.680078    ;  uncertainty r = 0.000129, k = 8.853608
        20        22     1        0.147356   502996.680078    ;  uncertainty r = 0.000129, k = 8.853608
        20        23     1        0.184089   161954.738818    ;  uncertainty r = 0.000115, k = 23.390285
        23        27     1        0.177543   172440.122705    ;  uncertainty r = 0.000187, k = 14.937580
        23        37     1        0.109361   328069.855811    ;  uncertainty r = 0.000068, k = 6.819975
        23        38     1        0.109361   328069.855811    ;  uncertainty r = 0.000068, k = 6.819975

[ angles ]
;       ai        aj        ak funct           theta             cth
         1         2         3     1      107.410141      628.438511    ;  uncertainty theta = 0.008670, k = 0.247901
         1         2         6     1      112.258995      674.936990    ;  uncertainty theta = 0.006003, k = 0.198974
         1         2        29     1      108.003479      442.344456    ;  uncertainty theta = 0.007986, k = 0.200175
         2         1        28     1      107.329124      457.634098    ;  uncertainty theta = 0.001447, k = 0.131498
         2         3         4     1      111.123581      611.251015    ;  uncertainty theta = 0.003918, k = 0.280397
         2         3        24     1      109.530434      593.873012    ;  uncertainty theta = 0.003178, k = 0.146818
         2         3        25     1      109.530434      593.873012    ;  uncertainty theta = 0.003178, k = 0.146818
         2         6         5     1      115.440414      508.776852    ;  uncertainty theta = 0.004653, k = 0.176023
         2         6         7     1      124.860817      356.760377    ;  uncertainty theta = 0.005066, k = 0.211636
         3         2         6     1      104.693176      715.932031    ;  uncertainty theta = 0.005632, k = 0.233456
         3         2        29     1      107.064758      384.815956    ;  uncertainty theta = 0.005442, k = 0.198908
         3         4         5     1      103.987465      711.936176    ;  uncertainty theta = 0.005472, k = 0.351798
         3         4        30     1      107.225937      380.179694    ;  uncertainty theta = 0.002622, k = 0.088553
         3         4        31     1      107.225937      380.179694    ;  uncertainty theta = 0.002622, k = 0.088553
         4         3        24     1      111.588036      659.455501    ;  uncertainty theta = 0.002894, k = 0.086543
         4         3        25     1      111.588036      659.455501    ;  uncertainty theta = 0.002894, k = 0.086543
         4         5         6     1      115.271744      535.198630    ;  uncertainty theta = 0.004806, k = 0.054690
         4         5        10     1      125.782852      387.701394    ;  uncertainty theta = 0.006394, k = 0.185200
         5         4        30     1      110.505722      380.194250    ;  uncertainty theta = 0.002396, k = 0.102521
         5         4        31     1      110.505722      380.194250    ;  uncertainty theta = 0.002396, k = 0.102521
         5         6         7     1      121.441978      425.435793    ;  uncertainty theta = 0.006903, k = 0.165869
         5        10         9     1      120.340919      383.447390    ;  uncertainty theta = 0.004246, k = 0.224386
         5        10        11     1      118.107956      403.477741    ;  uncertainty theta = 0.007451, k = 0.369876
         6         2        29     1      109.808205      376.822170    ;  uncertainty theta = 0.004294, k = 0.167780
         6         5        10     1      119.444504      420.453950    ;  uncertainty theta = 0.001964, k = 0.146703
         6         7         8     1      122.815025      448.742108    ;  uncertainty theta = 0.005454, k = 0.142769
         6         7        20     1      117.116013      334.429292    ;  uncertainty theta = 0.007531, k = 0.263453
         7         8         9     1      121.458542      490.437057    ;  uncertainty theta = 0.005233, k = 0.074188
         7         8        32     1      118.736877      262.338176    ;  uncertainty theta = 0.002834, k = 0.099338
         7        20        21     1      114.104080      623.734512    ;  uncertainty theta = 0.004995, k = 0.249418
         7        20        22     1      114.104080      623.734512    ;  uncertainty theta = 0.004995, k = 0.249418
         7        20        23     1      105.061523      577.837750    ;  uncertainty theta = 0.004315, k = 0.100298
         8         7        20     1      116.539383      359.533037    ;  uncertainty theta = 0.006978, k = 0.138446
         8         9        10     1      119.964066      511.938856    ;  uncertainty theta = 0.002115, k = 0.043834
         8         9        33     1      120.195007      277.568811    ;  uncertainty theta = 0.001593, k = 0.050920
         9         8        32     1      120.450607      282.068546    ;  uncertainty theta = 0.002429, k = 0.054264
         9        10        11     1      120.826584      434.003685    ;  uncertainty theta = 0.002615, k = 0.200703
        10         9        33     1      120.189857      275.876978    ;  uncertainty theta = 0.002292, k = 0.072971
        10        11        12     1      112.663620      472.674785    ;  uncertainty theta = 0.002352, k = 0.096123
        11        12        13     1      119.026627      419.851465    ;  uncertainty theta = 0.002706, k = 0.052294
        11        12        19     1      119.290588      404.135418    ;  uncertainty theta = 0.003651, k = 0.053296
        12        13        14     1      117.038597      502.569227    ;  uncertainty theta = 0.003445, k = 0.110867
        12        13        34     1      121.702477      272.440034    ;  uncertainty theta = 0.003455, k = 0.132527
        12        19        17     1      118.761208      522.894787    ;  uncertainty theta = 0.001489, k = 0.068180
        12        19        36     1      120.905983      280.332437    ;  uncertainty theta = 0.002004, k = 0.062093
        13        12        19     1      122.428162      385.560203    ;  uncertainty theta = 0.005403, k = 0.175952
        13        14        15     1      118.267052      494.604714    ;  uncertainty theta = 0.001988, k = 0.058359
        13        14        16     1      123.726730      369.147375    ;  uncertainty theta = 0.006010, k = 0.127235
        14        13        34     1      121.505081      285.104493    ;  uncertainty theta = 0.003243, k = 0.069272
        14        16        17     1      117.400681      493.697380    ;  uncertainty theta = 0.001506, k = 0.173040
        14        16        35     1      121.339279      286.173157    ;  uncertainty theta = 0.003120, k = 0.038569
        15        14        16     1      118.689796      499.274046    ;  uncertainty theta = 0.003051, k = 0.052524
        16        17        18     1      119.117836      375.204905    ;  uncertainty theta = 0.002733, k = 0.097877
        16        17        19     1      122.566833      457.580470    ;  uncertainty theta = 0.002293, k = 0.135282
        17        16        35     1      121.185242      278.472122    ;  uncertainty theta = 0.003138, k = 0.095958
        17        18        26     1      180.000000      233.555922    ;  uncertainty theta = 0.000000, k = 0.675784
        17        19        36     1      120.586197      284.638441    ;  uncertainty theta = 0.004219, k = 0.089604
        18        17        19     1      118.919228      375.151182    ;  uncertainty theta = 0.002637, k = 0.097444
        20        23        27     1      108.918839      506.634384    ;  uncertainty theta = 0.005076, k = 0.251400
        20        23        37     1      108.422218      367.318631    ;  uncertainty theta = 0.006091, k = 0.219179
        20        23        38     1      108.422218      367.318631    ;  uncertainty theta = 0.006091, k = 0.219179
        21        20        22     1      124.222778      852.749585    ;  uncertainty theta = 0.002135, k = 0.040146
        21        20        23     1      111.710083      655.785755    ;  uncertainty theta = 0.002883, k = 0.162927
        22        20        23     1      111.710083      655.785755    ;  uncertainty theta = 0.002883, k = 0.162927
        24         3        25     1      107.133316      788.630883    ;  uncertainty theta = 0.004222, k = 0.140640
        27        23        37     1      108.494019      390.740597    ;  uncertainty theta = 0.003560, k = 0.145096
        27        23        38     1      108.494019      390.740597    ;  uncertainty theta = 0.003560, k = 0.145096
        30         4        31     1      105.669456      291.017323    ;  uncertainty theta = 0.002858, k = 0.056928
        37        23        38     1      110.456017      301.706359    ;  uncertainty theta = 0.004720, k = 0.166323

[ dihedrals ] ; propers for gromacs 4.5 or higher, use funct 9
;       ai        aj        ak        al funct           phase               k        pn
         1         2         3         4     9        0.000000       -2.647338         1    ;  uncertainty k = 0.986579
         1         2         3         4     9      180.000000        1.652150         2    ;  uncertainty k = 0.518109
         1         2         3         4     9        0.000000        1.033401         3    ;  uncertainty k = 0.310740
         1         2         3         4     9      180.000000        0.042296         4    ;  uncertainty k = 0.270326
         1         2         3        24     9        0.000000       -0.282027         1    ;  uncertainty k = 1.406562
         1         2         3        24     9      180.000000        0.319715         2    ;  uncertainty k = 0.697098
         1         2         3        24     9        0.000000        1.460301         3    ;  uncertainty k = 0.368849
         1         2         3        24     9      180.000000        0.083291         4    ;  uncertainty k = 0.260871
         1         2         3        25     9        0.000000       -0.282027         1    ;  uncertainty k = 1.406562
         1         2         3        25     9      180.000000        0.319715         2    ;  uncertainty k = 0.697098
         1         2         3        25     9        0.000000        1.460301         3    ;  uncertainty k = 0.368849
         1         2         3        25     9      180.000000        0.083291         4    ;  uncertainty k = 0.260871
         1         2         6         5     9        0.000000       -4.163173         1    ;  uncertainty k = 2.280608
         1         2         6         5     9      180.000000        4.885069         2    ;  uncertainty k = 1.146400
         1         2         6         5     9        0.000000        1.077811         3    ;  uncertainty k = 0.698940
         1         2         6         5     9      180.000000        0.601709         4    ;  uncertainty k = 0.221504
         1         2         6         7     9        0.000000       -1.125659         1    ;  uncertainty k = 1.154896
         1         2         6         7     9      180.000000        3.486913         2    ;  uncertainty k = 0.170524
         1         2         6         7     9        0.000000       -0.158356         3    ;  uncertainty k = 0.273965
         1         2         6         7     9      180.000000        0.478687         4    ;  uncertainty k = 0.194169
         2         3         4         5     9        0.000000       -0.343517         1    ;  uncertainty k = 1.847992
         2         3         4         5     9      180.000000        1.882240         2    ;  uncertainty k = 0.624184
         2         3         4         5     9        0.000000       -0.007238         3    ;  uncertainty k = 0.517955
         2         3         4         5     9      180.000000       -0.165939         4    ;  uncertainty k = 0.372661
         2         3         4        30     9        0.000000       -0.273391         1    ;  uncertainty k = 0.290130
         2         3         4        30     9      180.000000       -0.226858         2    ;  uncertainty k = 0.647078
         2         3         4        30     9        0.000000       -0.001285         3    ;  uncertainty k = 0.213938
         2         3         4        30     9      180.000000       -0.023110         4    ;  uncertainty k = 0.191048
         2         3         4        31     9        0.000000       -0.273391         1    ;  uncertainty k = 0.290130
         2         3         4        31     9      180.000000       -0.226858         2    ;  uncertainty k = 0.647078
         2         3         4        31     9        0.000000       -0.001285         3    ;  uncertainty k = 0.213938
         2         3         4        31     9      180.000000       -0.023110         4    ;  uncertainty k = 0.191048
         2         6         5         4     9        0.000000        0.537525         1    ;  uncertainty k = 0.595826
         2         6         5         4     9      180.000000       11.831087         2    ;  uncertainty k = 0.651317
         2         6         5         4     9        0.000000       -0.495255         3    ;  uncertainty k = 0.919957
         2         6         5         4     9      180.000000        1.195464         4    ;  uncertainty k = 0.285531
         2         6         5        10     9        0.000000        0.593236         1    ;  uncertainty k = 0.504374
         2         6         5        10     9      180.000000        8.614396         2    ;  uncertainty k = 0.377318
         2         6         5        10     9        0.000000        0.662066         3    ;  uncertainty k = 0.272150
         2         6         5        10     9      180.000000        1.265519         4    ;  uncertainty k = 0.183153
         2         6         7         8     9        0.000000        0.303343         1    ;  uncertainty k = 0.534813
         2         6         7         8     9      180.000000        6.711828         2    ;  uncertainty k = 0.126979
         2         6         7         8     9        0.000000        1.237157         3    ;  uncertainty k = 0.212145
         2         6         7         8     9      180.000000        1.590137         4    ;  uncertainty k = 0.123367
         2         6         7        20     9        0.000000       -0.071249         1    ;  uncertainty k = 0.545999
         2         6         7        20     9      180.000000        6.720524         2    ;  uncertainty k = 0.593898
         2         6         7        20     9        0.000000        1.051574         3    ;  uncertainty k = 0.152933
         2         6         7        20     9      180.000000        1.227056         4    ;  uncertainty k = 0.203759
         3         2         1        28     9        0.000000       13.878324         1    ;  uncertainty k = 0.471464
         3         2         1        28     9      180.000000       -4.488746         2    ;  uncertainty k = 0.235496
         3         2         1        28     9        0.000000        1.023469         3    ;  uncertainty k = 0.242500
         3         2         1        28     9      180.000000        0.093198         4    ;  uncertainty k = 0.074143
         3         2         6         5     9        0.000000       -0.761740         1    ;  uncertainty k = 2.095024
         3         2         6         5     9      180.000000        8.542703         2    ;  uncertainty k = 1.015416
         3         2         6         5     9        0.000000       -1.076090         3    ;  uncertainty k = 0.486067
         3         2         6         5     9      180.000000        0.871246         4    ;  uncertainty k = 0.255929
         3         2         6         7     9        0.000000       -1.640327         1    ;  uncertainty k = 1.478930
         3         2         6         7     9      180.000000        3.628552         2    ;  uncertainty k = 0.608779
         3         2         6         7     9        0.000000        0.122637         3    ;  uncertainty k = 0.370154
         3         2         6         7     9      180.000000        0.657416         4    ;  uncertainty k = 0.251914
         3         4         5         6     9        0.000000       -2.104008         1    ;  uncertainty k = 1.596161
         3         4         5         6     9      180.000000        9.598731         2    ;  uncertainty k = 0.552417
         3         4         5         6     9        0.000000       -1.800196         3    ;  uncertainty k = 0.395408
         3         4         5         6     9      180.000000        0.938600         4    ;  uncertainty k = 0.130357
         3         4         5        10     9        0.000000       -0.358544         1    ;  uncertainty k = 0.756637
         3         4         5        10     9      180.000000        2.392009         2    ;  uncertainty k = 0.572052
         3         4         5        10     9        0.000000        0.130586         3    ;  uncertainty k = 0.228072
         3         4         5        10     9      180.000000        0.633389         4    ;  uncertainty k = 0.116399
         4         3         2         6     9        0.000000       -0.262973         1    ;  uncertainty k = 1.859365
         4         3         2         6     9      180.000000        1.247788         2    ;  uncertainty k = 0.640639
         4         3         2         6     9        0.000000        0.096249         3    ;  uncertainty k = 0.270780
         4         3         2         6     9      180.000000       -0.055225         4    ;  uncertainty k = 0.267742
         4         3         2        29     9        0.000000       -0.827317         1    ;  uncertainty k = 0.603778
         4         3         2        29     9      180.000000        0.450455         2    ;  uncertainty k = 0.547083
         4         3         2        29     9        0.000000        0.144562         3    ;  uncertainty k = 0.273661
         4         3         2        29     9      180.000000       -0.113838         4    ;  uncertainty k = 0.222036
         4         5         6         7     9        0.000000        0.251585         1    ;  uncertainty k = 0.601434
         4         5         6         7     9      180.000000        8.797273         2    ;  uncertainty k = 0.479970
         4         5         6         7     9        0.000000        0.679508         3    ;  uncertainty k = 0.415603
         4         5         6         7     9      180.000000        1.195734         4    ;  uncertainty k = 0.225587
         4         5        10         9     9        0.000000        0.518459         1    ;  uncertainty k = 0.343130
         4         5        10         9     9      180.000000        6.344712         2    ;  uncertainty k = 0.275591
         4         5        10         9     9        0.000000        1.307764         3    ;  uncertainty k = 0.252094
         4         5        10         9     9      180.000000        1.607039         4    ;  uncertainty k = 0.311378
         4         5        10        11     9        0.000000       -0.257660         1    ;  uncertainty k = 0.669531
         4         5        10        11     9      180.000000        8.945578         2    ;  uncertainty k = 0.234197
         4         5        10        11     9        0.000000        1.031989         3    ;  uncertainty k = 0.243259
         4         5        10        11     9      180.000000        1.251300         4    ;  uncertainty k = 0.160527
         5         4         3        24     9        0.000000       -0.911684         1    ;  uncertainty k = 0.942710
         5         4         3        24     9      180.000000        0.727772         2    ;  uncertainty k = 0.486490
         5         4         3        24     9        0.000000        1.114750         3    ;  uncertainty k = 0.312374
         5         4         3        24     9      180.000000        0.251148         4    ;  uncertainty k = 0.035387
         5         4         3        25     9        0.000000       -0.911684         1    ;  uncertainty k = 0.942710
         5         4         3        25     9      180.000000        0.727772         2    ;  uncertainty k = 0.486490
         5         4         3        25     9        0.000000        1.114750         3    ;  uncertainty k = 0.312374
         5         4         3        25     9      180.000000        0.251148         4    ;  uncertainty k = 0.035387
         5         6         2        29     9        0.000000       -0.776681         1    ;  uncertainty k = 0.646841
         5         6         2        29     9      180.000000        3.200815         2    ;  uncertainty k = 0.718311
         5         6         2        29     9        0.000000        0.784208         3    ;  uncertainty k = 0.178325
         5         6         2        29     9      180.000000        0.222571         4    ;  uncertainty k = 0.138789
         5         6         7         8     9        0.000000       -0.329355         1    ;  uncertainty k = 0.518251
         5         6         7         8     9      180.000000       10.060199         2    ;  uncertainty k = 0.500029
         5         6         7         8     9        0.000000       -0.658638         3    ;  uncertainty k = 0.397429
         5         6         7         8     9      180.000000        0.870798         4    ;  uncertainty k = 0.259858
         5         6         7        20     9        0.000000        0.637572         1    ;  uncertainty k = 0.922550
         5         6         7        20     9      180.000000        7.861698         2    ;  uncertainty k = 0.873937
         5         6         7        20     9        0.000000        1.439889         3    ;  uncertainty k = 0.590821
         5         6         7        20     9      180.000000        1.633336         4    ;  uncertainty k = 0.224977
         5        10         9         8     9        0.000000        0.289505         1    ;  uncertainty k = 0.240576
         5        10         9         8     9      180.000000        9.086594         2    ;  uncertainty k = 0.400350
         5        10         9         8     9        0.000000        0.227814         3    ;  uncertainty k = 0.427896
         5        10         9         8     9      180.000000        1.319601         4    ;  uncertainty k = 0.318151
         5        10         9        33     9        0.000000        0.158717         1    ;  uncertainty k = 0.363089
         5        10         9        33     9      180.000000        6.833378         2    ;  uncertainty k = 0.494089
         5        10         9        33     9        0.000000        1.376457         3    ;  uncertainty k = 0.512680
         5        10         9        33     9      180.000000        1.599173         4    ;  uncertainty k = 0.100053
         5        10        11        12     9        0.000000        4.406622         1    ;  uncertainty k = 0.673853
         5        10        11        12     9      180.000000        4.923066         2    ;  uncertainty k = 0.276197
         5        10        11        12     9        0.000000        0.710107         3    ;  uncertainty k = 0.032223
         5        10        11        12     9      180.000000        0.153279         4    ;  uncertainty k = 0.078226
         6         2         1        28     9        0.000000       14.601590         1    ;  uncertainty k = 0.396570
         6         2         1        28     9      180.000000       -3.808257         2    ;  uncertainty k = 0.626899
         6         2         1        28     9        0.000000        1.024065         3    ;  uncertainty k = 0.165675
         6         2         1        28     9      180.000000        0.078513         4    ;  uncertainty k = 0.057867
         6         2         3        24     9        0.000000        0.081795         1    ;  uncertainty k = 0.995200
         6         2         3        24     9      180.000000        0.595978         2    ;  uncertainty k = 0.965663
         6         2         3        24     9        0.000000        0.933571         3    ;  uncertainty k = 0.181120
         6         2         3        24     9      180.000000        0.255458         4    ;  uncertainty k = 0.063966
         6         2         3        25     9        0.000000        0.081795         1    ;  uncertainty k = 0.995200
         6         2         3        25     9      180.000000        0.595978         2    ;  uncertainty k = 0.965663
         6         2         3        25     9        0.000000        0.933571         3    ;  uncertainty k = 0.181120
         6         2         3        25     9      180.000000        0.255458         4    ;  uncertainty k = 0.063966
         6         5         4        30     9        0.000000       -0.195554         1    ;  uncertainty k = 0.393503
         6         5         4        30     9      180.000000        1.712302         2    ;  uncertainty k = 0.330512
         6         5         4        30     9        0.000000        0.270535         3    ;  uncertainty k = 0.106938
         6         5         4        30     9      180.000000        0.226206         4    ;  uncertainty k = 0.105898
         6         5         4        31     9        0.000000       -0.195554         1    ;  uncertainty k = 0.393503
         6         5         4        31     9      180.000000        1.712302         2    ;  uncertainty k = 0.330512
         6         5         4        31     9        0.000000        0.270535         3    ;  uncertainty k = 0.106938
         6         5         4        31     9      180.000000        0.226206         4    ;  uncertainty k = 0.105898
         6         5        10         9     9        0.000000       -0.210010         1    ;  uncertainty k = 0.183004
         6         5        10         9     9      180.000000        8.213629         2    ;  uncertainty k = 0.555640
         6         5        10         9     9        0.000000       -0.440861         3    ;  uncertainty k = 0.453747
         6         5        10         9     9      180.000000        1.070038         4    ;  uncertainty k = 0.290702
         6         5        10        11     9        0.000000        0.002751         1    ;  uncertainty k = 0.240136
         6         5        10        11     9      180.000000        9.744153         2    ;  uncertainty k = 0.349561
         6         5        10        11     9        0.000000        1.384653         3    ;  uncertainty k = 0.260906
         6         5        10        11     9      180.000000        1.505150         4    ;  uncertainty k = 0.174651
         6         7         8         9     9        0.000000       -0.231470         1    ;  uncertainty k = 0.429721
         6         7         8         9     9      180.000000       10.282959         2    ;  uncertainty k = 0.534402
         6         7         8         9     9        0.000000       -0.299991         3    ;  uncertainty k = 0.431230
         6         7         8         9     9      180.000000        1.042230         4    ;  uncertainty k = 0.440850
         6         7         8        32     9        0.000000        0.004178         1    ;  uncertainty k = 0.437669
         6         7         8        32     9      180.000000        7.355449         2    ;  uncertainty k = 0.574802
         6         7         8        32     9        0.000000        1.263589         3    ;  uncertainty k = 0.450056
         6         7         8        32     9      180.000000        1.621090         4    ;  uncertainty k = 0.120508
         6         7        20        21     9        0.000000       -2.053750         1    ;  uncertainty k = 1.784422
         6         7        20        21     9      180.000000        0.720838         2    ;  uncertainty k = 0.302832
         6         7        20        21     9        0.000000        0.430048         3    ;  uncertainty k = 0.159636
         6         7        20        21     9      180.000000       -0.022690         4    ;  uncertainty k = 0.189909
         6         7        20        22     9        0.000000       -2.053750         1    ;  uncertainty k = 1.784422
         6         7        20        22     9      180.000000        0.720838         2    ;  uncertainty k = 0.302832
         6         7        20        22     9        0.000000        0.430048         3    ;  uncertainty k = 0.159636
         6         7        20        22     9      180.000000       -0.022690         4    ;  uncertainty k = 0.189909
         6         7        20        23     9        0.000000        2.168168         1    ;  uncertainty k = 2.050671
         6         7        20        23     9      180.000000       -0.345428         2    ;  uncertainty k = 0.576569
         6         7        20        23     9        0.000000        0.453320         3    ;  uncertainty k = 0.237595
         6         7        20        23     9      180.000000        0.316213         4    ;  uncertainty k = 0.168345
         7         6         2        29     9        0.000000        1.545791         1    ;  uncertainty k = 0.787242
         7         6         2        29     9      180.000000        2.222520         2    ;  uncertainty k = 0.597597
         7         6         2        29     9        0.000000       -0.113231         3    ;  uncertainty k = 0.079405
         7         6         2        29     9      180.000000        0.182729         4    ;  uncertainty k = 0.191658
         7         6         5        10     9        0.000000        0.001457         1    ;  uncertainty k = 0.639609
         7         6         5        10     9      180.000000        8.440984         2    ;  uncertainty k = 0.359631
         7         6         5        10     9        0.000000        0.106673         3    ;  uncertainty k = 0.240610
         7         6         5        10     9      180.000000        1.117871         4    ;  uncertainty k = 0.312563
         7         8         9        10     9        0.000000        0.131623         1    ;  uncertainty k = 0.323205
         7         8         9        10     9      180.000000       12.166512         2    ;  uncertainty k = 0.417455
         7         8         9        10     9        0.000000       -0.900251         3    ;  uncertainty k = 0.658615
         7         8         9        10     9      180.000000        0.867045         4    ;  uncertainty k = 0.379801
         7         8         9        33     9        0.000000       -0.058642         1    ;  uncertainty k = 0.537526
         7         8         9        33     9      180.000000        8.173544         2    ;  uncertainty k = 0.281966
         7         8         9        33     9        0.000000        1.200940         3    ;  uncertainty k = 0.221615
         7         8         9        33     9      180.000000        1.699199         4    ;  uncertainty k = 0.103958
         7        20        23        27     9        0.000000        2.038285         1    ;  uncertainty k = 0.776961
         7        20        23        27     9      180.000000       -2.425853         2    ;  uncertainty k = 0.944740
         7        20        23        27     9        0.000000        0.665346         3    ;  uncertainty k = 0.186239
         7        20        23        27     9      180.000000       -0.019633         4    ;  uncertainty k = 0.223110
         7        20        23        37     9        0.000000        2.593240         1    ;  uncertainty k = 1.001976
         7        20        23        37     9      180.000000       -2.041771         2    ;  uncertainty k = 0.328803
         7        20        23        37     9        0.000000        0.137909         3    ;  uncertainty k = 0.147698
         7        20        23        37     9      180.000000       -0.032176         4    ;  uncertainty k = 0.099435
         7        20        23        38     9        0.000000        2.593240         1    ;  uncertainty k = 1.001976
         7        20        23        38     9      180.000000       -2.041771         2    ;  uncertainty k = 0.328803
         7        20        23        38     9        0.000000        0.137909         3    ;  uncertainty k = 0.147698
         7        20        23        38     9      180.000000       -0.032176         4    ;  uncertainty k = 0.099435
         8         7        20        21     9        0.000000       -1.419716         1    ;  uncertainty k = 0.484815
         8         7        20        21     9      180.000000        0.965946         2    ;  uncertainty k = 0.748123
         8         7        20        21     9        0.000000        0.256253         3    ;  uncertainty k = 0.256911
         8         7        20        21     9      180.000000       -0.045208         4    ;  uncertainty k = 0.187009
         8         7        20        22     9        0.000000       -1.419716         1    ;  uncertainty k = 0.484815
         8         7        20        22     9      180.000000        0.965946         2    ;  uncertainty k = 0.748123
         8         7        20        22     9        0.000000        0.256253         3    ;  uncertainty k = 0.256911
         8         7        20        22     9      180.000000       -0.045208         4    ;  uncertainty k = 0.187009
         8         7        20        23     9        0.000000        1.235551         1    ;  uncertainty k = 1.809493
         8         7        20        23     9      180.000000        0.127360         2    ;  uncertainty k = 0.415315
         8         7        20        23     9        0.000000        0.291187         3    ;  uncertainty k = 0.471405
         8         7        20        23     9      180.000000        0.360842         4    ;  uncertainty k = 0.163927
         8         9        10        11     9        0.000000       -0.030038         1    ;  uncertainty k = 0.276331
         8         9        10        11     9      180.000000       10.945059         2    ;  uncertainty k = 0.464740
         8         9        10        11     9        0.000000        1.470405         3    ;  uncertainty k = 0.292287
         8         9        10        11     9      180.000000        1.736610         4    ;  uncertainty k = 0.236476
         9         8         7        20     9        0.000000        0.465649         1    ;  uncertainty k = 0.274834
         9         8         7        20     9      180.000000        8.822914         2    ;  uncertainty k = 0.439364
         9         8         7        20     9        0.000000        1.382247         3    ;  uncertainty k = 0.356341
         9         8         7        20     9      180.000000        1.845882         4    ;  uncertainty k = 0.119218
         9        10        11        12     9        0.000000        5.025463         1    ;  uncertainty k = 0.401377
         9        10        11        12     9      180.000000        5.549552         2    ;  uncertainty k = 0.166981
         9        10        11        12     9        0.000000        0.362215         3    ;  uncertainty k = 0.094990
         9        10        11        12     9      180.000000        0.190778         4    ;  uncertainty k = 0.085737
        10         5         4        30     9        0.000000        0.663847         1    ;  uncertainty k = 0.191361
        10         5         4        30     9      180.000000        1.639551         2    ;  uncertainty k = 0.602386
        10         5         4        30     9        0.000000        0.155149         3    ;  uncertainty k = 0.250583
        10         5         4        30     9      180.000000        0.226015         4    ;  uncertainty k = 0.144143
        10         5         4        31     9        0.000000        0.663847         1    ;  uncertainty k = 0.191361
        10         5         4        31     9      180.000000        1.639551         2    ;  uncertainty k = 0.602386
        10         5         4        31     9        0.000000        0.155149         3    ;  uncertainty k = 0.250583
        10         5         4        31     9      180.000000        0.226015         4    ;  uncertainty k = 0.144143
        10         9         8        32     9        0.000000       -0.125074         1    ;  uncertainty k = 0.306380
        10         9         8        32     9      180.000000        7.780687         2    ;  uncertainty k = 0.143759
        10         9         8        32     9        0.000000        1.063539         3    ;  uncertainty k = 0.216032
        10         9         8        32     9      180.000000        1.718205         4    ;  uncertainty k = 0.061632
        10        11        12        13     9        0.000000        4.215533         1    ;  uncertainty k = 0.350421
        10        11        12        13     9      180.000000        5.366357         2    ;  uncertainty k = 0.291064
        10        11        12        13     9        0.000000        0.432025         3    ;  uncertainty k = 0.135129
        10        11        12        13     9      180.000000        0.162533         4    ;  uncertainty k = 0.097194
        10        11        12        19     9        0.000000        4.241893         1    ;  uncertainty k = 0.379468
        10        11        12        19     9      180.000000        5.622853         2    ;  uncertainty k = 0.281623
        10        11        12        19     9        0.000000        0.386448         3    ;  uncertainty k = 0.154755
        10        11        12        19     9      180.000000        0.145124         4    ;  uncertainty k = 0.118699
        11        10         9        33     9        0.000000       -0.033482         1    ;  uncertainty k = 0.158654
        11        10         9        33     9      180.000000        9.066410         2    ;  uncertainty k = 0.360435
        11        10         9        33     9        0.000000        0.847939         3    ;  uncertainty k = 0.229120
        11        10         9        33     9      180.000000        1.131253         4    ;  uncertainty k = 0.138248
        11        12        13        14     9        0.000000        0.110616         1    ;  uncertainty k = 0.280260
        11        12        13        14     9      180.000000       10.825049         2    ;  uncertainty k = 0.268023
        11        12        13        14     9        0.000000        1.291452         3    ;  uncertainty k = 0.181954
        11        12        13        14     9      180.000000        1.601789         4    ;  uncertainty k = 0.123424
        11        12        13        34     9        0.000000       -0.096546         1    ;  uncertainty k = 0.131039
        11        12        13        34     9      180.000000        8.372996         2    ;  uncertainty k = 0.282068
        11        12        13        34     9        0.000000        0.828749         3    ;  uncertainty k = 0.203572
        11        12        13        34     9      180.000000        1.093044         4    ;  uncertainty k = 0.104496
        11        12        19        17     9        0.000000       -0.066703         1    ;  uncertainty k = 0.256317
        11        12        19        17     9      180.000000       11.317502         2    ;  uncertainty k = 0.454829
        11        12        19        17     9        0.000000        1.188762         3    ;  uncertainty k = 0.073630
        11        12        19        17     9      180.000000        1.617869         4    ;  uncertainty k = 0.138905
        11        12        19        36     9        0.000000        0.114391         1    ;  uncertainty k = 0.181010
        11        12        19        36     9      180.000000        8.496717         2    ;  uncertainty k = 0.306846
        11        12        19        36     9        0.000000        0.848986         3    ;  uncertainty k = 0.295991
        11        12        19        36     9      180.000000        1.147922         4    ;  uncertainty k = 0.169207
        12        13        14        15     9        0.000000        0.029267         1    ;  uncertainty k = 0.076351
        12        13        14        15     9      180.000000       12.681220         2    ;  uncertainty k = 0.591249
        12        13        14        15     9        0.000000        1.486062         3    ;  uncertainty k = 0.376399
        12        13        14        15     9      180.000000        1.475435         4    ;  uncertainty k = 0.279101
        12        13        14        16     9        0.000000       -0.041312         1    ;  uncertainty k = 0.166168
        12        13        14        16     9      180.000000        8.711743         2    ;  uncertainty k = 0.535595
        12        13        14        16     9        0.000000        0.058226         3    ;  uncertainty k = 0.483440
        12        13        14        16     9      180.000000        1.296510         4    ;  uncertainty k = 0.287570
        12        19        17        16     9        0.000000       -0.126135         1    ;  uncertainty k = 0.335758
        12        19        17        16     9      180.000000       11.543728         2    ;  uncertainty k = 0.211528
        12        19        17        16     9        0.000000       -0.409273         3    ;  uncertainty k = 0.525587
        12        19        17        16     9      180.000000        1.114605         4    ;  uncertainty k = 0.265123
        12        19        17        18     9        0.000000        0.008933         1    ;  uncertainty k = 0.224406
        12        19        17        18     9      180.000000       10.110912         2    ;  uncertainty k = 0.333390
        12        19        17        18     9        0.000000        1.306913         3    ;  uncertainty k = 0.264685
        12        19        17        18     9      180.000000        1.637563         4    ;  uncertainty k = 0.199965
        13        12        19        17     9        0.000000       -0.051322         1    ;  uncertainty k = 0.175220
        13        12        19        17     9      180.000000        9.609478         2    ;  uncertainty k = 0.403633
        13        12        19        17     9        0.000000        0.176055         3    ;  uncertainty k = 0.389800
        13        12        19        17     9      180.000000        1.259071         4    ;  uncertainty k = 0.358591
        13        12        19        36     9        0.000000        0.319861         1    ;  uncertainty k = 0.231991
        13        12        19        36     9      180.000000        6.318270         2    ;  uncertainty k = 0.750341
        13        12        19        36     9        0.000000        1.465273         3    ;  uncertainty k = 0.273057
        13        12        19        36     9      180.000000        1.603175         4    ;  uncertainty k = 0.165843
        13        14        16        17     9        0.000000       -0.019167         1    ;  uncertainty k = 0.236218
        13        14        16        17     9      180.000000        9.329732         2    ;  uncertainty k = 0.304985
        13        14        16        17     9        0.000000        0.099008         3    ;  uncertainty k = 0.304607
        13        14        16        17     9      180.000000        1.274852         4    ;  uncertainty k = 0.274241
        13        14        16        35     9        0.000000       -0.000593         1    ;  uncertainty k = 0.199602
        13        14        16        35     9      180.000000        5.887325         2    ;  uncertainty k = 0.750109
        13        14        16        35     9        0.000000        1.321078         3    ;  uncertainty k = 0.278410
        13        14        16        35     9      180.000000        1.516102         4    ;  uncertainty k = 0.088176
        14        13        12        19     9        0.000000        0.083575         1    ;  uncertainty k = 0.184356
        14        13        12        19     9      180.000000        9.069038         2    ;  uncertainty k = 0.673942
        14        13        12        19     9        0.000000        0.004877         3    ;  uncertainty k = 0.505260
        14        13        12        19     9      180.000000        1.219759         4    ;  uncertainty k = 0.386904
        14        16        17        18     9        0.000000        0.042737         1    ;  uncertainty k = 0.291483
        14        16        17        18     9      180.000000        9.815526         2    ;  uncertainty k = 0.311825
        14        16        17        18     9        0.000000        1.325513         3    ;  uncertainty k = 0.249458
        14        16        17        18     9      180.000000        1.659796         4    ;  uncertainty k = 0.165102
        14        16        17        19     9        0.000000       -0.093634         1    ;  uncertainty k = 0.287446
        14        16        17        19     9      180.000000       11.524169         2    ;  uncertainty k = 0.474663
        14        16        17        19     9        0.000000       -0.540684         3    ;  uncertainty k = 0.386751
        14        16        17        19     9      180.000000        1.065656         4    ;  uncertainty k = 0.270989
        15        14        13        34     9        0.000000       -0.266165         1    ;  uncertainty k = 0.229666
        15        14        13        34     9      180.000000        8.750384         2    ;  uncertainty k = 0.391886
        15        14        13        34     9        0.000000        0.839204         3    ;  uncertainty k = 0.231015
        15        14        13        34     9      180.000000        1.056841         4    ;  uncertainty k = 0.208951
        15        14        16        17     9        0.000000       -0.039623         1    ;  uncertainty k = 0.207167
        15        14        16        17     9      180.000000       13.467148         2    ;  uncertainty k = 0.458195
        15        14        16        17     9        0.000000        1.330325         3    ;  uncertainty k = 0.272641
        15        14        16        17     9      180.000000        1.408183         4    ;  uncertainty k = 0.220523
        15        14        16        35     9        0.000000       -0.317019         1    ;  uncertainty k = 0.306342
        15        14        16        35     9      180.000000        8.994255         2    ;  uncertainty k = 0.352455
        15        14        16        35     9        0.000000        0.799840         3    ;  uncertainty k = 0.209801
        15        14        16        35     9      180.000000        1.001169         4    ;  uncertainty k = 0.172439
        16        14        13        34     9        0.000000        0.117728         1    ;  uncertainty k = 0.152876
        16        14        13        34     9      180.000000        5.739162         2    ;  uncertainty k = 0.725581
        16        14        13        34     9        0.000000        1.354805         3    ;  uncertainty k = 0.319905
        16        14        13        34     9      180.000000        1.531360         4    ;  uncertainty k = 0.102992
        16        17        18        26     9        0.000000        0.000000         1    ;  uncertainty k = 0.000000
        16        17        18        26     9      180.000000        0.000000         2    ;  uncertainty k = 0.000000
        16        17        18        26     9        0.000000        0.000000         3    ;  uncertainty k = 0.000000
        16        17        18        26     9      180.000000        0.000000         4    ;  uncertainty k = 0.000000
        16        17        19        36     9        0.000000        0.266901         1    ;  uncertainty k = 0.392933
        16        17        19        36     9      180.000000        6.702181         2    ;  uncertainty k = 0.686766
        16        17        19        36     9        0.000000        1.492380         3    ;  uncertainty k = 0.274536
        16        17        19        36     9      180.000000        1.680830         4    ;  uncertainty k = 0.134103
        18        17        16        35     9        0.000000       -0.401280         1    ;  uncertainty k = 0.467937
        18        17        16        35     9      180.000000        7.099068         2    ;  uncertainty k = 0.224071
        18        17        16        35     9        0.000000        0.520905         3    ;  uncertainty k = 0.112594
        18        17        16        35     9      180.000000        0.955860         4    ;  uncertainty k = 0.230500
        18        17        19        36     9        0.000000       -0.303371         1    ;  uncertainty k = 0.311612
        18        17        19        36     9      180.000000        7.433399         2    ;  uncertainty k = 0.295932
        18        17        19        36     9        0.000000        0.543142         3    ;  uncertainty k = 0.139134
        18        17        19        36     9      180.000000        0.967541         4    ;  uncertainty k = 0.213771
        19        12        13        34     9        0.000000        0.238077         1    ;  uncertainty k = 0.231773
        19        12        13        34     9      180.000000        5.993858         2    ;  uncertainty k = 0.765201
        19        12        13        34     9        0.000000        1.476771         3    ;  uncertainty k = 0.368309
        19        12        13        34     9      180.000000        1.569369         4    ;  uncertainty k = 0.131184
        19        17        16        35     9        0.000000        0.157284         1    ;  uncertainty k = 0.536677
        19        17        16        35     9      180.000000        6.651379         2    ;  uncertainty k = 0.604357
        19        17        16        35     9        0.000000        1.457227         3    ;  uncertainty k = 0.366961
        19        17        16        35     9      180.000000        1.599688         4    ;  uncertainty k = 0.107457
        19        17        18        26     9        0.000000        0.000000         1    ;  uncertainty k = 0.000000
        19        17        18        26     9      180.000000        0.000000         2    ;  uncertainty k = 0.000000
        19        17        18        26     9        0.000000        0.000000         3    ;  uncertainty k = 0.000000
        19        17        18        26     9      180.000000        0.000000         4    ;  uncertainty k = 0.000000
        20         7         8        32     9        0.000000       -0.300224         1    ;  uncertainty k = 0.351309
        20         7         8        32     9      180.000000        6.716760         2    ;  uncertainty k = 0.441915
        20         7         8        32     9        0.000000        0.803622         3    ;  uncertainty k = 0.205932
        20         7         8        32     9      180.000000        1.199913         4    ;  uncertainty k = 0.230278
        21        20        23        27     9        0.000000        0.390811         1    ;  uncertainty k = 1.673548
        21        20        23        27     9      180.000000        0.641266         2    ;  uncertainty k = 0.908334
        21        20        23        27     9        0.000000        1.271959         3    ;  uncertainty k = 0.181449
        21        20        23        27     9      180.000000        0.173370         4    ;  uncertainty k = 0.103401
        21        20        23        37     9        0.000000       -0.268370         1    ;  uncertainty k = 0.611233
        21        20        23        37     9      180.000000       -0.416945         2    ;  uncertainty k = 0.413621
        21        20        23        37     9        0.000000        0.628349         3    ;  uncertainty k = 0.184252
        21        20        23        37     9      180.000000        0.124010         4    ;  uncertainty k = 0.073390
        21        20        23        38     9        0.000000       -0.268370         1    ;  uncertainty k = 0.611233
        21        20        23        38     9      180.000000       -0.416945         2    ;  uncertainty k = 0.413621
        21        20        23        38     9        0.000000        0.628349         3    ;  uncertainty k = 0.184252
        21        20        23        38     9      180.000000        0.124010         4    ;  uncertainty k = 0.073390
        22        20        23        27     9        0.000000        0.390811         1    ;  uncertainty k = 1.673548
        22        20        23        27     9      180.000000        0.641266         2    ;  uncertainty k = 0.908334
        22        20        23        27     9        0.000000        1.271959         3    ;  uncertainty k = 0.181449
        22        20        23        27     9      180.000000        0.173370         4    ;  uncertainty k = 0.103401
        22        20        23        37     9        0.000000       -0.268370         1    ;  uncertainty k = 0.611233
        22        20        23        37     9      180.000000       -0.416945         2    ;  uncertainty k = 0.413621
        22        20        23        37     9        0.000000        0.628349         3    ;  uncertainty k = 0.184252
        22        20        23        37     9      180.000000        0.124010         4    ;  uncertainty k = 0.073390
        22        20        23        38     9        0.000000       -0.268370         1    ;  uncertainty k = 0.611233
        22        20        23        38     9      180.000000       -0.416945         2    ;  uncertainty k = 0.413621
        22        20        23        38     9        0.000000        0.628349         3    ;  uncertainty k = 0.184252
        22        20        23        38     9      180.000000        0.124010         4    ;  uncertainty k = 0.073390
        24         3         2        29     9        0.000000        0.263490         1    ;  uncertainty k = 0.330046
        24         3         2        29     9      180.000000       -0.590094         2    ;  uncertainty k = 0.306730
        24         3         2        29     9        0.000000        0.721400         3    ;  uncertainty k = 0.176946
        24         3         2        29     9      180.000000        0.079588         4    ;  uncertainty k = 0.136498
        24         3         4        30     9        0.000000        0.273367         1    ;  uncertainty k = 0.288473
        24         3         4        30     9      180.000000       -0.700448         2    ;  uncertainty k = 0.314492
        24         3         4        30     9        0.000000        0.866670         3    ;  uncertainty k = 0.217754
        24         3         4        30     9      180.000000        0.036836         4    ;  uncertainty k = 0.054095
        24         3         4        31     9        0.000000        0.273367         1    ;  uncertainty k = 0.288473
        24         3         4        31     9      180.000000       -0.700448         2    ;  uncertainty k = 0.314492
        24         3         4        31     9        0.000000        0.866670         3    ;  uncertainty k = 0.217754
        24         3         4        31     9      180.000000        0.036836         4    ;  uncertainty k = 0.054095
        25         3         2        29     9        0.000000        0.263490         1    ;  uncertainty k = 0.330046
        25         3         2        29     9      180.000000       -0.590094         2    ;  uncertainty k = 0.306730
        25         3         2        29     9        0.000000        0.721400         3    ;  uncertainty k = 0.176946
        25         3         2        29     9      180.000000        0.079588         4    ;  uncertainty k = 0.136498
        25         3         4        30     9        0.000000        0.273367         1    ;  uncertainty k = 0.288473
        25         3         4        30     9      180.000000       -0.700448         2    ;  uncertainty k = 0.314492
        25         3         4        30     9        0.000000        0.866670         3    ;  uncertainty k = 0.217754
        25         3         4        30     9      180.000000        0.036836         4    ;  uncertainty k = 0.054095
        25         3         4        31     9        0.000000        0.273367         1    ;  uncertainty k = 0.288473
        25         3         4        31     9      180.000000       -0.700448         2    ;  uncertainty k = 0.314492
        25         3         4        31     9        0.000000        0.866670         3    ;  uncertainty k = 0.217754
        25         3         4        31     9      180.000000        0.036836         4    ;  uncertainty k = 0.054095
        28         1         2        29     9        0.000000       11.846445         1    ;  uncertainty k = 0.691990
        28         1         2        29     9      180.000000       -0.796078         2    ;  uncertainty k = 0.286325
        28         1         2        29     9        0.000000        0.793238         3    ;  uncertainty k = 0.211936
        28         1         2        29     9      180.000000        0.184425         4    ;  uncertainty k = 0.129100
        32         8         9        33     9        0.000000       -0.138103         1    ;  uncertainty k = 0.442034
        32         8         9        33     9      180.000000        7.527946         2    ;  uncertainty k = 0.398150
        32         8         9        33     9        0.000000       -0.324732         3    ;  uncertainty k = 0.289672
        32         8         9        33     9      180.000000        0.261548         4    ;  uncertainty k = 0.094437

[ dihedrals ] ; impropers
;       ai        aj        ak        al funct           phase               k        pn
         5         4         6        10     4      180.000000        5.254033         2    ;  uncertainty k = 0.311221
         5         6        10         4     4      180.000000        5.254033         2    ;  uncertainty k = 0.311221
         5        10         4         6     4      180.000000        5.254033         2    ;  uncertainty k = 0.311221
         6         2         5         7     4      180.000000        6.016258         2    ;  uncertainty k = 0.156685
         6         5         7         2     4      180.000000        6.016258         2    ;  uncertainty k = 0.156685
         6         7         2         5     4      180.000000        6.016258         2    ;  uncertainty k = 0.156685
         7         6         8        20     4      180.000000        4.655478         2    ;  uncertainty k = 0.356827
         7         8        20         6     4      180.000000        4.655478         2    ;  uncertainty k = 0.356827
         7        20         6         8     4      180.000000        4.655478         2    ;  uncertainty k = 0.356827
         8         7         9        32     4      180.000000        5.012509         2    ;  uncertainty k = 0.116725
         8         9        32         7     4      180.000000        5.012509         2    ;  uncertainty k = 0.116725
         8        32         7         9     4      180.000000        5.012509         2    ;  uncertainty k = 0.116725
         9         8        10        33     4      180.000000        1.976323         2    ;  uncertainty k = 0.092176
         9        10        33         8     4      180.000000        1.976323         2    ;  uncertainty k = 0.092176
         9        33         8        10     4      180.000000        1.976323         2    ;  uncertainty k = 0.092176
        10         5         9        11     4      180.000000       17.483785         2    ;  uncertainty k = 0.095984
        10         9        11         5     4      180.000000       17.483785         2    ;  uncertainty k = 0.095984
        10        11         5         9     4      180.000000       17.483785         2    ;  uncertainty k = 0.095984
        12        11        13        19     4      180.000000       19.053422         2    ;  uncertainty k = 0.038066
        12        13        19        11     4      180.000000       19.053422         2    ;  uncertainty k = 0.038066
        12        19        11        13     4      180.000000       19.053422         2    ;  uncertainty k = 0.038066
        13        12        14        34     4      180.000000        1.848818         2    ;  uncertainty k = 0.255047
        13        14        34        12     4      180.000000        1.848818         2    ;  uncertainty k = 0.255047
        13        34        12        14     4      180.000000        1.848818         2    ;  uncertainty k = 0.255047
        14        13        15        16     4      180.000000       17.880537         2    ;  uncertainty k = 0.047509
        14        15        16        13     4      180.000000       17.880537         2    ;  uncertainty k = 0.047509
        14        16        13        15     4      180.000000       17.880537         2    ;  uncertainty k = 0.047509
        16        14        17        35     4      180.000000        2.461655         2    ;  uncertainty k = 0.340230
        16        17        35        14     4      180.000000        2.461655         2    ;  uncertainty k = 0.340230
        16        35        14        17     4      180.000000        2.461655         2    ;  uncertainty k = 0.340230
        17        16        18        19     4      180.000000       11.727372         2    ;  uncertainty k = 0.187314
        17        18        19        16     4      180.000000       11.727372         2    ;  uncertainty k = 0.187314
        17        19        16        18     4      180.000000       11.727372         2    ;  uncertainty k = 0.187314
        19        12        17        36     4      180.000000        2.852757         2    ;  uncertainty k = 0.269075
        19        17        36        12     4      180.000000        2.852757         2    ;  uncertainty k = 0.269075
        19        36        12        17     4      180.000000        2.852757         2    ;  uncertainty k = 0.269075

[ pairs ]
;       ai        aj funct
         1         4     1
         1         5     1
         1         7     1
         1        24     1
         1        25     1
         2         8     1
         2        10     1
         2        20     1
         2        30     1
         2        31     1
         3         7     1
         3        10     1
         3        28     1
         4         7     1
         4         9     1
         4        11     1
         4        29     1
         5         8     1
         5        12     1
         5        20     1
         5        24     1
         5        25     1
         5        29     1
         5        33     1
         6         9     1
         6        11     1
         6        21     1
         6        22     1
         6        23     1
         6        24     1
         6        25     1
         6        28     1
         6        30     1
         6        31     1
         6        32     1
         7        10     1
         7        27     1
         7        29     1
         7        33     1
         7        37     1
         7        38     1
         8        11     1
         8        21     1
         8        22     1
         8        23     1
         9        12     1
         9        20     1
        10        13     1
        10        19     1
        10        30     1
        10        31     1
        10        32     1
        11        14     1
        11        17     1
        11        33     1
        11        34     1
        11        36     1
        12        15     1
        12        16     1
        12        18     1
        13        17     1
        13        35     1
        13        36     1
        14        18     1
        14        19     1
        15        17     1
        15        34     1
        15        35     1
        16        26     1
        16        34     1
        16        36     1
        18        35     1
        18        36     1
        19        26     1
        19        34     1
        19        35     1
        20        32     1
        21        27     1
        21        37     1
        21        38     1
        22        27     1
        22        37     1
        22        38     1
        24        29     1
        24        30     1
        24        31     1
        25        29     1
        25        30     1
        25        31     1
        28        29     1
        32        33     1
