; ITP file created by ByteFF-joint-25, 2026-02-17 09:18:18.757845

[ atomtypes ]
;name           bonded.type        at.num        mass        charge   ptype           sigma         epsilon
 o0bf                                   8      0.0000       0.00000       A     3.24314e-01     3.87820e-01    ;  uncertainty sigma = 0.000033, epsilon = 0.000883
 c1bf                                   6      0.0000       0.00000       A     3.39735e-01     4.50327e-01    ;  uncertainty sigma = 0.000031, epsilon = 0.001400
 c2bf                                   6      0.0000       0.00000       A     3.39804e-01     4.51139e-01    ;  uncertainty sigma = 0.000023, epsilon = 0.001153
 c3bf                                   6      0.0000       0.00000       A     3.39788e-01     4.50774e-01    ;  uncertainty sigma = 0.000017, epsilon = 0.000724
 c4bf                                   6      0.0000       0.00000       A     3.31541e-01     4.13526e-01    ;  uncertainty sigma = 0.000008, epsilon = 0.001023
 c5bf                                   6      0.0000       0.00000       A     3.31552e-01     4.12718e-01    ;  uncertainty sigma = 0.000025, epsilon = 0.001567
 c6bf                                   6      0.0000       0.00000       A     3.31544e-01     4.13016e-01    ;  uncertainty sigma = 0.000020, epsilon = 0.001774
 c7bf                                   6      0.0000       0.00000       A     3.31477e-01     4.13316e-01    ;  uncertainty sigma = 0.000019, epsilon = 0.000274
 c8bf                                   6      0.0000       0.00000       A     3.31521e-01     4.13548e-01    ;  uncertainty sigma = 0.000008, epsilon = 0.000516
 c9bf                                   6      0.0000       0.00000       A     3.31536e-01     4.13088e-01    ;  uncertainty sigma = 0.000018, epsilon = 0.000602
 o10bf                                  8      0.0000       0.00000       A     3.15461e-01     3.00910e-01    ;  uncertainty sigma = 0.000029, epsilon = 0.002628
 c11bf                                  6      0.0000       0.00000       A     3.31509e-01     4.13538e-01    ;  uncertainty sigma = 0.000027, epsilon = 0.001112
 s12bf                                 16      0.0000       0.00000       A     4.06004e-01     2.59145e-01    ;  uncertainty sigma = 0.000053, epsilon = 0.004837
 o13bf                                  8      0.0000       0.00000       A     3.04749e-01     6.10528e-01    ;  uncertainty sigma = 0.000044, epsilon = 0.000831
 o14bf                                  8      0.0000       0.00000       A     3.04749e-01     6.10528e-01    ;  uncertainty sigma = 0.000044, epsilon = 0.000831
 c15bf                                  6      0.0000       0.00000       A     3.39832e-01     4.48835e-01    ;  uncertainty sigma = 0.000062, epsilon = 0.002447
 f16bf                                  9      0.0000       0.00000       A     3.03449e-01     3.47672e-01    ;  uncertainty sigma = 0.000012, epsilon = 0.001616
 f17bf                                  9      0.0000       0.00000       A     3.03449e-01     3.47672e-01    ;  uncertainty sigma = 0.000012, epsilon = 0.001616
 f18bf                                  9      0.0000       0.00000       A     3.03427e-01     3.48313e-01    ;  uncertainty sigma = 0.000031, epsilon = 0.002325
 f19bf                                  9      0.0000       0.00000       A     3.03427e-01     3.48313e-01    ;  uncertainty sigma = 0.000031, epsilon = 0.002325
 f20bf                                  9      0.0000       0.00000       A     3.03427e-01     3.48313e-01    ;  uncertainty sigma = 0.000031, epsilon = 0.002325
 c21bf                                  6      0.0000       0.00000       A     3.31527e-01     4.12357e-01    ;  uncertainty sigma = 0.000012, epsilon = 0.000708
 n22bf                                  7      0.0000       0.00000       A     3.38431e-01     3.93719e-01    ;  uncertainty sigma = 0.000005, epsilon = 0.000702
 n23bf                                  7      0.0000       0.00000       A     3.20581e-01     8.54571e-01    ;  uncertainty sigma = 0.000015, epsilon = 0.001075
 c24bf                                  6      0.0000       0.00000       A     3.31527e-01     4.12759e-01    ;  uncertainty sigma = 0.000009, epsilon = 0.000726
 c25bf                                  6      0.0000       0.00000       A     3.39776e-01     4.50854e-01    ;  uncertainty sigma = 0.000004, epsilon = 0.000584
 h26bf                                  1      0.0000       0.00000       A     5.38093e-02     1.93077e-02    ;  uncertainty sigma = 0.000062, epsilon = 0.000926
 h27bf                                  1      0.0000       0.00000       A     2.42326e-01     8.68827e-02    ;  uncertainty sigma = 0.000128, epsilon = 0.000858
 h28bf                                  1      0.0000       0.00000       A     2.60052e-01     8.67184e-02    ;  uncertainty sigma = 0.000035, epsilon = 0.000545
 h29bf                                  1      0.0000       0.00000       A     2.60052e-01     8.67184e-02    ;  uncertainty sigma = 0.000035, epsilon = 0.000545
 h30bf                                  1      0.0000       0.00000       A     2.62567e-01     6.72430e-02    ;  uncertainty sigma = 0.000020, epsilon = 0.000765
 h31bf                                  1      0.0000       0.00000       A     2.62559e-01     6.70676e-02    ;  uncertainty sigma = 0.000006, epsilon = 0.000372
 h32bf                                  1      0.0000       0.00000       A     2.53696e-01     6.71476e-02    ;  uncertainty sigma = 0.000029, epsilon = 0.000596
 h33bf                                  1      0.0000       0.00000       A     2.53688e-01     6.70086e-02    ;  uncertainty sigma = 0.000029, epsilon = 0.000595
 h34bf                                  1      0.0000       0.00000       A     2.42209e-01     8.68411e-02    ;  uncertainty sigma = 0.000019, epsilon = 0.000599
 h35bf                                  1      0.0000       0.00000       A     2.42209e-01     8.68411e-02    ;  uncertainty sigma = 0.000019, epsilon = 0.000599
 h36bf                                  1      0.0000       0.00000       A     2.42209e-01     8.68409e-02    ;  uncertainty sigma = 0.000019, epsilon = 0.000599

[ moleculetype ]
;name             nrexcl
 MOL                   3

[ atoms ]
;       nr            type      resi   res      atom      cgnr      charge          mass ; qtot
         1            o0bf         1   UNL        o0         1    -0.57153       15.9990 ; qtot   -0.572
         2            c1bf         1   UNL        c1         2     0.16294       12.0110 ; qtot   -0.409
         3            c2bf         1   UNL        c2         3     0.38793       12.0110 ; qtot   -0.021
         4            c3bf         1   UNL        c3         4    -0.05615       12.0110 ; qtot   -0.077
         5            c4bf         1   UNL        c4         5    -0.10066       12.0110 ; qtot   -0.177
         6            c5bf         1   UNL        c5         6     0.01926       12.0110 ; qtot   -0.158
         7            c6bf         1   UNL        c6         7    -0.22372       12.0110 ; qtot   -0.382
         8            c7bf         1   UNL        c7         8     0.00527       12.0110 ; qtot   -0.377
         9            c8bf         1   UNL        c8         9    -0.17946       12.0110 ; qtot   -0.556
        10            c9bf         1   UNL        c9        10     0.16926       12.0110 ; qtot   -0.387
        11           o10bf         1   UNL       o10        11    -0.21539       15.9990 ; qtot   -0.602
        12           c11bf         1   UNL       c11        12    -0.09081       12.0110 ; qtot   -0.693
        13           s12bf         1   UNL       s12        13     0.97547       32.0670 ; qtot    0.282
        14           o13bf         1   UNL       o13        14    -0.52245       15.9990 ; qtot   -0.240
        15           o14bf         1   UNL       o14        15    -0.52245       15.9990 ; qtot   -0.762
        16           c15bf         1   UNL       c15        16     0.64625       12.0110 ; qtot   -0.116
        17           f16bf         1   UNL       f16        17    -0.22758       18.9980 ; qtot   -0.344
        18           f17bf         1   UNL       f17        18    -0.22758       18.9980 ; qtot   -0.571
        19           f18bf         1   UNL       f18        19    -0.21182       18.9980 ; qtot   -0.783
        20           f19bf         1   UNL       f19        20    -0.21182       18.9980 ; qtot   -0.995
        21           f20bf         1   UNL       f20        21    -0.21182       18.9980 ; qtot   -1.207
        22           c21bf         1   UNL       c21        22     0.29653       12.0110 ; qtot   -0.910
        23           n22bf         1   UNL       n22        23    -0.50878       14.0070 ; qtot   -1.419
        24           n23bf         1   UNL       n23        24     0.09448       14.0070 ; qtot   -1.325
        25           c24bf         1   UNL       c24        25    -0.14896       12.0110 ; qtot   -1.474
        26           c25bf         1   UNL       c25        26     0.04449       12.0110 ; qtot   -1.429
        27           h26bf         1   UNL       h26        27     0.41807        1.0080 ; qtot   -1.011
        28           h27bf         1   UNL       h27        28     0.09251        1.0080 ; qtot   -0.919
        29           h28bf         1   UNL       h28        29     0.09107        1.0080 ; qtot   -0.827
        30           h29bf         1   UNL       h29        30     0.09107        1.0080 ; qtot   -0.736
        31           h30bf         1   UNL       h30        31     0.16846        1.0080 ; qtot   -0.568
        32           h31bf         1   UNL       h31        32     0.15703        1.0080 ; qtot   -0.411
        33           h32bf         1   UNL       h32        33     0.05000        1.0080 ; qtot   -0.361
        34           h33bf         1   UNL       h33        34     0.18617        1.0080 ; qtot   -0.175
        35           h34bf         1   UNL       h34        35     0.05823        1.0080 ; qtot   -0.116
        36           h35bf         1   UNL       h35        36     0.05823        1.0080 ; qtot   -0.058
        37           h36bf         1   UNL       h36        37     0.05826        1.0080 ; qtot   -0.000

[ bonds ]
;       ai        aj funct               r               k
         1         2     1        0.141341   266784.598340    ;  uncertainty r = 0.000175, k = 15.524028
         1        27     1        0.097120   457921.536914    ;  uncertainty r = 0.000049, k = 2.604885
         2         3     1        0.154750   188145.853564    ;  uncertainty r = 0.000252, k = 8.551885
         2         6     1        0.151710   242848.435889    ;  uncertainty r = 0.000128, k = 21.988954
         2        28     1        0.109523   308370.733936    ;  uncertainty r = 0.000079, k = 3.008193
         3         4     1        0.153429   201774.383179    ;  uncertainty r = 0.000101, k = 9.410798
         3        17     1        0.137560   301163.370020    ;  uncertainty r = 0.000061, k = 5.585020
         3        18     1        0.137560   301163.370020    ;  uncertainty r = 0.000061, k = 5.585020
         4         5     1        0.151097   253136.239160    ;  uncertainty r = 0.000113, k = 19.657018
         4        29     1        0.109408   309992.902197    ;  uncertainty r = 0.000046, k = 1.735317
         4        30     1        0.109408   309992.902197    ;  uncertainty r = 0.000046, k = 1.735317
         5         6     1        0.139456   361540.349121    ;  uncertainty r = 0.000140, k = 19.075660
         5        10     1        0.138928   351844.649268    ;  uncertainty r = 0.000136, k = 6.063746
         6         7     1        0.139399   334631.743750    ;  uncertainty r = 0.000197, k = 10.554743
         7         8     1        0.139244   347230.732031    ;  uncertainty r = 0.000200, k = 5.008997
         7        13     1        0.177367   133175.731714    ;  uncertainty r = 0.000244, k = 17.189949
         8         9     1        0.139048   365073.612500    ;  uncertainty r = 0.000117, k = 4.858834
         8        31     1        0.108435   328757.033887    ;  uncertainty r = 0.000021, k = 0.948697
         9        10     1        0.139720   353293.982373    ;  uncertainty r = 0.000063, k = 8.671667
         9        32     1        0.108748   336361.014648    ;  uncertainty r = 0.000029, k = 0.868364
        10        11     1        0.138311   316919.357910    ;  uncertainty r = 0.000195, k = 11.908994
        11        12     1        0.137100   320323.658887    ;  uncertainty r = 0.000219, k = 18.465347
        12        22     1        0.141383   250844.334668    ;  uncertainty r = 0.000084, k = 9.700827
        12        25     1        0.138487   441911.403711    ;  uncertainty r = 0.000118, k = 8.878659
        13        14     1        0.146502   482333.991992    ;  uncertainty r = 0.000060, k = 8.765462
        13        15     1        0.146502   482333.991992    ;  uncertainty r = 0.000060, k = 8.765462
        13        16     1        0.186690   146980.224780    ;  uncertainty r = 0.000185, k = 14.369124
        16        19     1        0.133044   300000.486670    ;  uncertainty r = 0.000105, k = 4.973869
        16        20     1        0.133044   300000.435596    ;  uncertainty r = 0.000105, k = 4.973884
        16        21     1        0.133044   300000.435596    ;  uncertainty r = 0.000105, k = 4.973884
        22        23     1        0.133510   439498.555469    ;  uncertainty r = 0.000096, k = 5.925328
        22        33     1        0.108369   339325.924121    ;  uncertainty r = 0.000018, k = 1.857953
        23        24     1        0.134966   275797.333740    ;  uncertainty r = 0.000079, k = 7.821740
        24        25     1        0.136387   302071.776074    ;  uncertainty r = 0.000075, k = 6.951195
        24        26     1        0.145185   254201.851660    ;  uncertainty r = 0.000049, k = 4.811491
        25        34     1        0.108199   340890.608350    ;  uncertainty r = 0.000015, k = 1.375270
        26        35     1        0.109334   311395.655615    ;  uncertainty r = 0.000009, k = 1.232489
        26        36     1        0.109334   311395.655615    ;  uncertainty r = 0.000009, k = 1.232489
        26        37     1        0.109334   311395.655615    ;  uncertainty r = 0.000009, k = 1.232489

[ angles ]
;       ai        aj        ak funct           theta             cth
         1         2         3     1      107.410141      628.438511    ;  uncertainty theta = 0.008670, k = 0.247901
         1         2         6     1      111.951683      669.922396    ;  uncertainty theta = 0.005376, k = 0.192403
         1         2        28     1      108.003479      442.344456    ;  uncertainty theta = 0.007986, k = 0.200175
         2         1        27     1      107.329124      457.634098    ;  uncertainty theta = 0.001447, k = 0.131498
         2         3         4     1      111.125992      611.572527    ;  uncertainty theta = 0.003848, k = 0.289472
         2         3        17     1      109.530434      593.873012    ;  uncertainty theta = 0.003178, k = 0.146818
         2         3        18     1      109.530434      593.873012    ;  uncertainty theta = 0.003178, k = 0.146818
         2         6         5     1      115.511253      509.208588    ;  uncertainty theta = 0.005214, k = 0.155314
         2         6         7     1      124.722336      356.939520    ;  uncertainty theta = 0.007014, k = 0.195432
         3         2         6     1      104.656662      715.251212    ;  uncertainty theta = 0.006024, k = 0.226344
         3         2        28     1      107.064758      384.815956    ;  uncertainty theta = 0.005442, k = 0.198908
         3         4         5     1      104.003395      713.284408    ;  uncertainty theta = 0.005435, k = 0.343030
         3         4        29     1      107.215103      380.292153    ;  uncertainty theta = 0.002623, k = 0.086043
         3         4        30     1      107.215103      380.292153    ;  uncertainty theta = 0.002623, k = 0.086043
         4         3        17     1      111.601089      659.270102    ;  uncertainty theta = 0.002931, k = 0.087865
         4         3        18     1      111.601089      659.270102    ;  uncertainty theta = 0.002931, k = 0.087865
         4         5         6     1      115.251587      536.482572    ;  uncertainty theta = 0.004475, k = 0.072748
         4         5        10     1      125.680397      387.495565    ;  uncertainty theta = 0.005812, k = 0.177352
         5         4        29     1      110.530075      380.407836    ;  uncertainty theta = 0.002285, k = 0.105792
         5         4        30     1      110.530075      380.407836    ;  uncertainty theta = 0.002285, k = 0.105792
         5         6         7     1      121.424973      426.788238    ;  uncertainty theta = 0.006136, k = 0.170557
         5        10         9     1      120.374718      384.337167    ;  uncertainty theta = 0.004229, k = 0.189040
         5        10        11     1      118.183395      407.392644    ;  uncertainty theta = 0.004817, k = 0.252230
         6         2        28     1      109.697960      377.088299    ;  uncertainty theta = 0.004504, k = 0.170338
         6         5        10     1      119.376587      421.536308    ;  uncertainty theta = 0.002361, k = 0.149952
         6         7         8     1      123.274940      443.405746    ;  uncertainty theta = 0.005879, k = 0.176177
         6         7        13     1      116.495773      331.271054    ;  uncertainty theta = 0.009736, k = 0.312671
         7         8         9     1      121.474838      489.134314    ;  uncertainty theta = 0.006400, k = 0.099396
         7         8        31     1      118.517723      262.996602    ;  uncertainty theta = 0.003149, k = 0.118764
         7        13        14     1      115.948227      634.155376    ;  uncertainty theta = 0.008679, k = 0.042031
         7        13        15     1      115.948227      634.155376    ;  uncertainty theta = 0.008679, k = 0.042031
         7        13        16     1      102.702232      475.832767    ;  uncertainty theta = 0.009804, k = 0.278364
         8         7        13     1      115.653542      346.254602    ;  uncertainty theta = 0.010730, k = 0.305776
         8         9        10     1      119.913452      511.847753    ;  uncertainty theta = 0.002161, k = 0.033853
         8         9        32     1      119.961014      276.679258    ;  uncertainty theta = 0.001743, k = 0.031466
         9         8        31     1      120.469864      284.230900    ;  uncertainty theta = 0.002399, k = 0.075403
         9        10        11     1      120.593948      433.879159    ;  uncertainty theta = 0.004474, k = 0.160656
        10         9        32     1      120.094727      276.229358    ;  uncertainty theta = 0.001449, k = 0.074092
        10        11        12     1      112.479904      487.547342    ;  uncertainty theta = 0.004336, k = 0.196180
        11        12        22     1      123.869812      372.981325    ;  uncertainty theta = 0.002911, k = 0.157903
        11        12        25     1      125.232239      377.372655    ;  uncertainty theta = 0.003711, k = 0.288717
        12        22        23     1      111.159988      868.832409    ;  uncertainty theta = 0.004689, k = 0.027805
        12        22        33     1      126.952553      242.699069    ;  uncertainty theta = 0.003136, k = 0.151043
        12        25        24     1      105.765038      715.174473    ;  uncertainty theta = 0.002123, k = 0.205769
        12        25        34     1      129.765045      233.928557    ;  uncertainty theta = 0.004444, k = 0.163328
        13        16        19     1      107.987816      427.841995    ;  uncertainty theta = 0.004368, k = 0.138496
        13        16        20     1      107.987808      427.841963    ;  uncertainty theta = 0.004368, k = 0.138496
        13        16        21     1      107.987808      427.841963    ;  uncertainty theta = 0.004368, k = 0.138496
        14        13        15     1      125.478783      852.302430    ;  uncertainty theta = 0.003251, k = 0.080370
        14        13        16     1      104.730919      472.750981    ;  uncertainty theta = 0.011537, k = 0.291824
        15        13        16     1      104.730919      472.750981    ;  uncertainty theta = 0.011537, k = 0.291824
        17         3        18     1      107.133301      788.630883    ;  uncertainty theta = 0.004222, k = 0.140640
        19        16        20     1      110.914772      787.015597    ;  uncertainty theta = 0.002242, k = 0.073348
        19        16        21     1      110.914772      787.015597    ;  uncertainty theta = 0.002242, k = 0.073348
        20        16        21     1      110.914772      787.015533    ;  uncertainty theta = 0.002242, k = 0.073348
        22        12        25     1      105.783630      590.820306    ;  uncertainty theta = 0.003588, k = 0.198626
        22        23        24     1      106.919273      917.040854    ;  uncertainty theta = 0.001418, k = 0.097630
        23        22        33     1      119.259483      280.004509    ;  uncertainty theta = 0.003162, k = 0.069497
        23        24        25     1      109.967056      991.095343    ;  uncertainty theta = 0.003182, k = 0.102953
        23        24        26     1      116.681358      469.519068    ;  uncertainty theta = 0.003121, k = 0.071475
        24        25        34     1      118.621994      266.131825    ;  uncertainty theta = 0.001876, k = 0.163553
        24        26        35     1      108.677017      467.114941    ;  uncertainty theta = 0.001328, k = 0.042170
        24        26        36     1      108.677017      467.114941    ;  uncertainty theta = 0.001328, k = 0.042170
        24        26        37     1      108.677017      467.114941    ;  uncertainty theta = 0.001328, k = 0.042170
        25        24        26     1      122.450783      402.048940    ;  uncertainty theta = 0.003043, k = 0.155558
        29         4        30     1      105.662857      290.957822    ;  uncertainty theta = 0.002817, k = 0.057403
        35        26        36     1      107.719315      320.020648    ;  uncertainty theta = 0.001910, k = 0.017625
        35        26        37     1      107.719315      320.020648    ;  uncertainty theta = 0.001910, k = 0.017625
        36        26        37     1      107.719315      320.020648    ;  uncertainty theta = 0.001910, k = 0.017625

[ dihedrals ] ; propers for gromacs 4.5 or higher, use funct 9
;       ai        aj        ak        al funct           phase               k        pn
         1         2         3         4     9        0.000000       -2.647563         1    ;  uncertainty k = 0.987205
         1         2         3         4     9      180.000000        1.645769         2    ;  uncertainty k = 0.513649
         1         2         3         4     9        0.000000        1.030812         3    ;  uncertainty k = 0.310368
         1         2         3         4     9      180.000000        0.041461         4    ;  uncertainty k = 0.270139
         1         2         3        17     9        0.000000       -0.282025         1    ;  uncertainty k = 1.406561
         1         2         3        17     9      180.000000        0.319716         2    ;  uncertainty k = 0.697098
         1         2         3        17     9        0.000000        1.460301         3    ;  uncertainty k = 0.368850
         1         2         3        17     9      180.000000        0.083291         4    ;  uncertainty k = 0.260871
         1         2         3        18     9        0.000000       -0.282025         1    ;  uncertainty k = 1.406561
         1         2         3        18     9      180.000000        0.319716         2    ;  uncertainty k = 0.697098
         1         2         3        18     9        0.000000        1.460301         3    ;  uncertainty k = 0.368850
         1         2         3        18     9      180.000000        0.083291         4    ;  uncertainty k = 0.260871
         1         2         6         5     9        0.000000       -4.166078         1    ;  uncertainty k = 2.391887
         1         2         6         5     9      180.000000        4.978961         2    ;  uncertainty k = 1.123813
         1         2         6         5     9        0.000000        1.060881         3    ;  uncertainty k = 0.712339
         1         2         6         5     9      180.000000        0.606710         4    ;  uncertainty k = 0.237277
         1         2         6         7     9        0.000000       -0.825977         1    ;  uncertainty k = 0.885976
         1         2         6         7     9      180.000000        3.682241         2    ;  uncertainty k = 0.286402
         1         2         6         7     9        0.000000       -0.168816         3    ;  uncertainty k = 0.272473
         1         2         6         7     9      180.000000        0.492466         4    ;  uncertainty k = 0.209517
         2         3         4         5     9        0.000000       -0.389536         1    ;  uncertainty k = 1.867197
         2         3         4         5     9      180.000000        1.874484         2    ;  uncertainty k = 0.611425
         2         3         4         5     9        0.000000       -0.001549         3    ;  uncertainty k = 0.519375
         2         3         4         5     9      180.000000       -0.162452         4    ;  uncertainty k = 0.372924
         2         3         4        29     9        0.000000       -0.277325         1    ;  uncertainty k = 0.287148
         2         3         4        29     9      180.000000       -0.228545         2    ;  uncertainty k = 0.646293
         2         3         4        29     9        0.000000       -0.001274         3    ;  uncertainty k = 0.215528
         2         3         4        29     9      180.000000       -0.023804         4    ;  uncertainty k = 0.191170
         2         3         4        30     9        0.000000       -0.277325         1    ;  uncertainty k = 0.287148
         2         3         4        30     9      180.000000       -0.228545         2    ;  uncertainty k = 0.646293
         2         3         4        30     9        0.000000       -0.001274         3    ;  uncertainty k = 0.215528
         2         3         4        30     9      180.000000       -0.023804         4    ;  uncertainty k = 0.191170
         2         6         5         4     9        0.000000        0.525452         1    ;  uncertainty k = 0.625803
         2         6         5         4     9      180.000000       12.062301         2    ;  uncertainty k = 0.646051
         2         6         5         4     9        0.000000       -0.482702         3    ;  uncertainty k = 0.895137
         2         6         5         4     9      180.000000        1.201783         4    ;  uncertainty k = 0.286869
         2         6         5        10     9        0.000000        0.620332         1    ;  uncertainty k = 0.460901
         2         6         5        10     9      180.000000        8.820785         2    ;  uncertainty k = 0.387444
         2         6         5        10     9        0.000000        0.692521         3    ;  uncertainty k = 0.262834
         2         6         5        10     9      180.000000        1.288751         4    ;  uncertainty k = 0.188619
         2         6         7         8     9        0.000000        0.245833         1    ;  uncertainty k = 0.518207
         2         6         7         8     9      180.000000        6.876248         2    ;  uncertainty k = 0.146494
         2         6         7         8     9        0.000000        1.218603         3    ;  uncertainty k = 0.267622
         2         6         7         8     9      180.000000        1.532063         4    ;  uncertainty k = 0.139663
         2         6         7        13     9        0.000000       -0.043448         1    ;  uncertainty k = 0.518584
         2         6         7        13     9      180.000000        6.720127         2    ;  uncertainty k = 0.695239
         2         6         7        13     9        0.000000        1.105938         3    ;  uncertainty k = 0.178177
         2         6         7        13     9      180.000000        1.197051         4    ;  uncertainty k = 0.222770
         3         2         1        27     9        0.000000       13.878324         1    ;  uncertainty k = 0.471464
         3         2         1        27     9      180.000000       -4.488746         2    ;  uncertainty k = 0.235496
         3         2         1        27     9        0.000000        1.023469         3    ;  uncertainty k = 0.242500
         3         2         1        27     9      180.000000        0.093198         4    ;  uncertainty k = 0.074143
         3         2         6         5     9        0.000000       -0.683572         1    ;  uncertainty k = 2.225049
         3         2         6         5     9      180.000000        8.459761         2    ;  uncertainty k = 0.927774
         3         2         6         5     9        0.000000       -1.055329         3    ;  uncertainty k = 0.478085
         3         2         6         5     9      180.000000        0.886341         4    ;  uncertainty k = 0.249545
         3         2         6         7     9        0.000000       -1.733473         1    ;  uncertainty k = 1.594761
         3         2         6         7     9      180.000000        3.567490         2    ;  uncertainty k = 0.835192
         3         2         6         7     9        0.000000        0.154115         3    ;  uncertainty k = 0.357718
         3         2         6         7     9      180.000000        0.666599         4    ;  uncertainty k = 0.277493
         3         4         5         6     9        0.000000       -2.060032         1    ;  uncertainty k = 1.663510
         3         4         5         6     9      180.000000        9.583692         2    ;  uncertainty k = 0.568536
         3         4         5         6     9        0.000000       -1.779773         3    ;  uncertainty k = 0.398518
         3         4         5         6     9      180.000000        0.925835         4    ;  uncertainty k = 0.128165
         3         4         5        10     9        0.000000       -0.187741         1    ;  uncertainty k = 0.734318
         3         4         5        10     9      180.000000        2.411083         2    ;  uncertainty k = 0.545078
         3         4         5        10     9        0.000000        0.155979         3    ;  uncertainty k = 0.239927
         3         4         5        10     9      180.000000        0.645332         4    ;  uncertainty k = 0.128858
         4         3         2         6     9        0.000000       -0.232999         1    ;  uncertainty k = 1.794922
         4         3         2         6     9      180.000000        1.240848         2    ;  uncertainty k = 0.651994
         4         3         2         6     9        0.000000        0.083329         3    ;  uncertainty k = 0.279975
         4         3         2         6     9      180.000000       -0.056454         4    ;  uncertainty k = 0.268005
         4         3         2        28     9        0.000000       -0.824655         1    ;  uncertainty k = 0.610524
         4         3         2        28     9      180.000000        0.454818         2    ;  uncertainty k = 0.548411
         4         3         2        28     9        0.000000        0.143422         3    ;  uncertainty k = 0.272091
         4         3         2        28     9      180.000000       -0.113834         4    ;  uncertainty k = 0.221630
         4         5         6         7     9        0.000000        0.288758         1    ;  uncertainty k = 0.791596
         4         5         6         7     9      180.000000        8.941972         2    ;  uncertainty k = 0.533155
         4         5         6         7     9        0.000000        0.653730         3    ;  uncertainty k = 0.422030
         4         5         6         7     9      180.000000        1.195824         4    ;  uncertainty k = 0.218946
         4         5        10         9     9        0.000000        0.515969         1    ;  uncertainty k = 0.332271
         4         5        10         9     9      180.000000        6.374688         2    ;  uncertainty k = 0.297547
         4         5        10         9     9        0.000000        1.334720         3    ;  uncertainty k = 0.282808
         4         5        10         9     9      180.000000        1.610470         4    ;  uncertainty k = 0.308838
         4         5        10        11     9        0.000000       -0.252241         1    ;  uncertainty k = 0.593697
         4         5        10        11     9      180.000000        8.875587         2    ;  uncertainty k = 0.234803
         4         5        10        11     9        0.000000        1.041311         3    ;  uncertainty k = 0.264934
         4         5        10        11     9      180.000000        1.223986         4    ;  uncertainty k = 0.128257
         5         4         3        17     9        0.000000       -0.944874         1    ;  uncertainty k = 0.960145
         5         4         3        17     9      180.000000        0.741950         2    ;  uncertainty k = 0.478744
         5         4         3        17     9        0.000000        1.120842         3    ;  uncertainty k = 0.310159
         5         4         3        17     9      180.000000        0.247028         4    ;  uncertainty k = 0.035273
         5         4         3        18     9        0.000000       -0.944874         1    ;  uncertainty k = 0.960145
         5         4         3        18     9      180.000000        0.741950         2    ;  uncertainty k = 0.478744
         5         4         3        18     9        0.000000        1.120842         3    ;  uncertainty k = 0.310159
         5         4         3        18     9      180.000000        0.247028         4    ;  uncertainty k = 0.035273
         5         6         2        28     9        0.000000       -0.745045         1    ;  uncertainty k = 0.678237
         5         6         2        28     9      180.000000        3.207619         2    ;  uncertainty k = 0.710698
         5         6         2        28     9        0.000000        0.793775         3    ;  uncertainty k = 0.171121
         5         6         2        28     9      180.000000        0.219795         4    ;  uncertainty k = 0.143975
         5         6         7         8     9        0.000000       -0.300007         1    ;  uncertainty k = 0.532953
         5         6         7         8     9      180.000000       10.077936         2    ;  uncertainty k = 0.551390
         5         6         7         8     9        0.000000       -0.681578         3    ;  uncertainty k = 0.450374
         5         6         7         8     9      180.000000        0.877956         4    ;  uncertainty k = 0.233941
         5         6         7        13     9        0.000000        0.626244         1    ;  uncertainty k = 0.815040
         5         6         7        13     9      180.000000        8.029640         2    ;  uncertainty k = 0.905095
         5         6         7        13     9        0.000000        1.415389         3    ;  uncertainty k = 0.464352
         5         6         7        13     9      180.000000        1.618821         4    ;  uncertainty k = 0.249070
         5        10         9         8     9        0.000000        0.285323         1    ;  uncertainty k = 0.214516
         5        10         9         8     9      180.000000        8.976344         2    ;  uncertainty k = 0.346345
         5        10         9         8     9        0.000000        0.321244         3    ;  uncertainty k = 0.377598
         5        10         9         8     9      180.000000        1.342687         4    ;  uncertainty k = 0.286589
         5        10         9        32     9        0.000000        0.168308         1    ;  uncertainty k = 0.365265
         5        10         9        32     9      180.000000        6.817388         2    ;  uncertainty k = 0.453432
         5        10         9        32     9        0.000000        1.410797         3    ;  uncertainty k = 0.483816
         5        10         9        32     9      180.000000        1.615030         4    ;  uncertainty k = 0.079221
         5        10        11        12     9        0.000000        3.174186         1    ;  uncertainty k = 0.715736
         5        10        11        12     9      180.000000        5.810199         2    ;  uncertainty k = 0.288381
         5        10        11        12     9        0.000000        0.657945         3    ;  uncertainty k = 0.540069
         5        10        11        12     9      180.000000        0.067996         4    ;  uncertainty k = 0.068986
         6         2         1        27     9        0.000000       14.220665         1    ;  uncertainty k = 0.362407
         6         2         1        27     9      180.000000       -3.922724         2    ;  uncertainty k = 0.646550
         6         2         1        27     9        0.000000        1.015664         3    ;  uncertainty k = 0.171273
         6         2         1        27     9      180.000000        0.075133         4    ;  uncertainty k = 0.063972
         6         2         3        17     9        0.000000        0.091094         1    ;  uncertainty k = 1.072888
         6         2         3        17     9      180.000000        0.588540         2    ;  uncertainty k = 0.965250
         6         2         3        17     9        0.000000        0.912441         3    ;  uncertainty k = 0.182992
         6         2         3        17     9      180.000000        0.259013         4    ;  uncertainty k = 0.075351
         6         2         3        18     9        0.000000        0.091094         1    ;  uncertainty k = 1.072888
         6         2         3        18     9      180.000000        0.588540         2    ;  uncertainty k = 0.965250
         6         2         3        18     9        0.000000        0.912441         3    ;  uncertainty k = 0.182992
         6         2         3        18     9      180.000000        0.259013         4    ;  uncertainty k = 0.075351
         6         5         4        29     9        0.000000       -0.176873         1    ;  uncertainty k = 0.407461
         6         5         4        29     9      180.000000        1.722173         2    ;  uncertainty k = 0.326353
         6         5         4        29     9        0.000000        0.267093         3    ;  uncertainty k = 0.109320
         6         5         4        29     9      180.000000        0.225991         4    ;  uncertainty k = 0.101517
         6         5         4        30     9        0.000000       -0.176873         1    ;  uncertainty k = 0.407461
         6         5         4        30     9      180.000000        1.722173         2    ;  uncertainty k = 0.326353
         6         5         4        30     9        0.000000        0.267093         3    ;  uncertainty k = 0.109320
         6         5         4        30     9      180.000000        0.225991         4    ;  uncertainty k = 0.101517
         6         5        10         9     9        0.000000       -0.203137         1    ;  uncertainty k = 0.189631
         6         5        10         9     9      180.000000        8.157264         2    ;  uncertainty k = 0.541000
         6         5        10         9     9        0.000000       -0.374228         3    ;  uncertainty k = 0.380038
         6         5        10         9     9      180.000000        1.088561         4    ;  uncertainty k = 0.268453
         6         5        10        11     9        0.000000        0.065442         1    ;  uncertainty k = 0.173592
         6         5        10        11     9      180.000000        9.611839         2    ;  uncertainty k = 0.436982
         6         5        10        11     9        0.000000        1.355172         3    ;  uncertainty k = 0.256599
         6         5        10        11     9      180.000000        1.515139         4    ;  uncertainty k = 0.169907
         6         7         8         9     9        0.000000       -0.219873         1    ;  uncertainty k = 0.378873
         6         7         8         9     9      180.000000       10.368049         2    ;  uncertainty k = 0.597748
         6         7         8         9     9        0.000000       -0.337643         3    ;  uncertainty k = 0.468323
         6         7         8         9     9      180.000000        1.009950         4    ;  uncertainty k = 0.486405
         6         7         8        31     9        0.000000       -0.028102         1    ;  uncertainty k = 0.439633
         6         7         8        31     9      180.000000        7.420717         2    ;  uncertainty k = 0.602841
         6         7         8        31     9        0.000000        1.224648         3    ;  uncertainty k = 0.446751
         6         7         8        31     9      180.000000        1.570094         4    ;  uncertainty k = 0.061759
         6         7        13        14     9        0.000000       -2.059671         1    ;  uncertainty k = 2.386763
         6         7        13        14     9      180.000000        1.028864         2    ;  uncertainty k = 0.569313
         6         7        13        14     9        0.000000        0.384448         3    ;  uncertainty k = 0.351566
         6         7        13        14     9      180.000000        0.019002         4    ;  uncertainty k = 0.192043
         6         7        13        15     9        0.000000       -2.059671         1    ;  uncertainty k = 2.386763
         6         7        13        15     9      180.000000        1.028864         2    ;  uncertainty k = 0.569313
         6         7        13        15     9        0.000000        0.384448         3    ;  uncertainty k = 0.351566
         6         7        13        15     9      180.000000        0.019002         4    ;  uncertainty k = 0.192043
         6         7        13        16     9        0.000000        2.792052         1    ;  uncertainty k = 2.003795
         6         7        13        16     9      180.000000       -0.760514         2    ;  uncertainty k = 0.508393
         6         7        13        16     9        0.000000        0.074444         3    ;  uncertainty k = 0.459493
         6         7        13        16     9      180.000000        0.151764         4    ;  uncertainty k = 0.169038
         7         6         2        28     9        0.000000        1.454630         1    ;  uncertainty k = 0.661500
         7         6         2        28     9      180.000000        2.099899         2    ;  uncertainty k = 0.620594
         7         6         2        28     9        0.000000       -0.082445         3    ;  uncertainty k = 0.100005
         7         6         2        28     9      180.000000        0.184503         4    ;  uncertainty k = 0.161841
         7         6         5        10     9        0.000000        0.049698         1    ;  uncertainty k = 0.567953
         7         6         5        10     9      180.000000        8.396998         2    ;  uncertainty k = 0.282907
         7         6         5        10     9        0.000000        0.118763         3    ;  uncertainty k = 0.210362
         7         6         5        10     9      180.000000        1.145166         4    ;  uncertainty k = 0.253255
         7         8         9        10     9        0.000000        0.061229         1    ;  uncertainty k = 0.407280
         7         8         9        10     9      180.000000       12.196513         2    ;  uncertainty k = 0.410546
         7         8         9        10     9        0.000000       -0.866837         3    ;  uncertainty k = 0.669537
         7         8         9        10     9      180.000000        0.869254         4    ;  uncertainty k = 0.384292
         7         8         9        32     9        0.000000       -0.062492         1    ;  uncertainty k = 0.445867
         7         8         9        32     9      180.000000        8.398172         2    ;  uncertainty k = 0.192865
         7         8         9        32     9        0.000000        1.201188         3    ;  uncertainty k = 0.246947
         7         8         9        32     9      180.000000        1.707737         4    ;  uncertainty k = 0.133164
         7        13        16        19     9        0.000000        0.617741         1    ;  uncertainty k = 1.026891
         7        13        16        19     9      180.000000       -0.446659         2    ;  uncertainty k = 0.710161
         7        13        16        19     9        0.000000        0.255593         3    ;  uncertainty k = 0.238495
         7        13        16        19     9      180.000000       -0.258344         4    ;  uncertainty k = 0.124083
         7        13        16        20     9        0.000000        0.617740         1    ;  uncertainty k = 1.026893
         7        13        16        20     9      180.000000       -0.446658         2    ;  uncertainty k = 0.710161
         7        13        16        20     9        0.000000        0.255593         3    ;  uncertainty k = 0.238495
         7        13        16        20     9      180.000000       -0.258344         4    ;  uncertainty k = 0.124083
         7        13        16        21     9        0.000000        0.617740         1    ;  uncertainty k = 1.026893
         7        13        16        21     9      180.000000       -0.446658         2    ;  uncertainty k = 0.710161
         7        13        16        21     9        0.000000        0.255593         3    ;  uncertainty k = 0.238495
         7        13        16        21     9      180.000000       -0.258344         4    ;  uncertainty k = 0.124083
         8         7        13        14     9        0.000000       -1.368822         1    ;  uncertainty k = 1.219712
         8         7        13        14     9      180.000000        1.192733         2    ;  uncertainty k = 0.943525
         8         7        13        14     9        0.000000        0.178737         3    ;  uncertainty k = 0.319655
         8         7        13        14     9      180.000000        0.036676         4    ;  uncertainty k = 0.223159
         8         7        13        15     9        0.000000       -1.368822         1    ;  uncertainty k = 1.219712
         8         7        13        15     9      180.000000        1.192733         2    ;  uncertainty k = 0.943525
         8         7        13        15     9        0.000000        0.178737         3    ;  uncertainty k = 0.319655
         8         7        13        15     9      180.000000        0.036676         4    ;  uncertainty k = 0.223159
         8         7        13        16     9        0.000000        3.119602         1    ;  uncertainty k = 1.298164
         8         7        13        16     9      180.000000       -0.290004         2    ;  uncertainty k = 0.694173
         8         7        13        16     9        0.000000        0.009812         3    ;  uncertainty k = 0.640023
         8         7        13        16     9      180.000000        0.155362         4    ;  uncertainty k = 0.141927
         8         9        10        11     9        0.000000       -0.014697         1    ;  uncertainty k = 0.473351
         8         9        10        11     9      180.000000       10.883629         2    ;  uncertainty k = 0.619682
         8         9        10        11     9        0.000000        1.514893         3    ;  uncertainty k = 0.347858
         8         9        10        11     9      180.000000        1.730775         4    ;  uncertainty k = 0.275840
         9         8         7        13     9        0.000000        0.470702         1    ;  uncertainty k = 0.255516
         9         8         7        13     9      180.000000        9.055297         2    ;  uncertainty k = 0.651235
         9         8         7        13     9        0.000000        1.333580         3    ;  uncertainty k = 0.356635
         9         8         7        13     9      180.000000        1.865048         4    ;  uncertainty k = 0.169556
         9        10        11        12     9        0.000000        4.138285         1    ;  uncertainty k = 1.124237
         9        10        11        12     9      180.000000        6.719090         2    ;  uncertainty k = 0.209079
         9        10        11        12     9        0.000000        0.521334         3    ;  uncertainty k = 0.328681
         9        10        11        12     9      180.000000        0.137836         4    ;  uncertainty k = 0.050437
        10         5         4        29     9        0.000000        0.650309         1    ;  uncertainty k = 0.224117
        10         5         4        29     9      180.000000        1.617960         2    ;  uncertainty k = 0.601194
        10         5         4        29     9        0.000000        0.161053         3    ;  uncertainty k = 0.233196
        10         5         4        29     9      180.000000        0.225311         4    ;  uncertainty k = 0.142955
        10         5         4        30     9        0.000000        0.650309         1    ;  uncertainty k = 0.224117
        10         5         4        30     9      180.000000        1.617960         2    ;  uncertainty k = 0.601194
        10         5         4        30     9        0.000000        0.161053         3    ;  uncertainty k = 0.233196
        10         5         4        30     9      180.000000        0.225311         4    ;  uncertainty k = 0.142955
        10         9         8        31     9        0.000000       -0.084935         1    ;  uncertainty k = 0.347259
        10         9         8        31     9      180.000000        7.862356         2    ;  uncertainty k = 0.110616
        10         9         8        31     9        0.000000        1.073717         3    ;  uncertainty k = 0.252468
        10         9         8        31     9      180.000000        1.717634         4    ;  uncertainty k = 0.064925
        10        11        12        22     9        0.000000        4.190412         1    ;  uncertainty k = 1.010137
        10        11        12        22     9      180.000000        2.477732         2    ;  uncertainty k = 0.800750
        10        11        12        22     9        0.000000        0.603758         3    ;  uncertainty k = 0.244033
        10        11        12        22     9      180.000000        0.195919         4    ;  uncertainty k = 0.131344
        10        11        12        25     9        0.000000        4.208467         1    ;  uncertainty k = 0.873016
        10        11        12        25     9      180.000000        3.151302         2    ;  uncertainty k = 0.406833
        10        11        12        25     9        0.000000        0.089098         3    ;  uncertainty k = 0.292504
        10        11        12        25     9      180.000000        0.170555         4    ;  uncertainty k = 0.133023
        11        10         9        32     9        0.000000       -0.086709         1    ;  uncertainty k = 0.228568
        11        10         9        32     9      180.000000        8.963786         2    ;  uncertainty k = 0.221195
        11        10         9        32     9        0.000000        0.841691         3    ;  uncertainty k = 0.231564
        11        10         9        32     9      180.000000        1.117372         4    ;  uncertainty k = 0.168350
        11        12        22        23     9        0.000000        0.690450         1    ;  uncertainty k = 1.090856
        11        12        22        23     9      180.000000       16.477136         2    ;  uncertainty k = 0.608038
        11        12        22        23     9        0.000000        1.785450         3    ;  uncertainty k = 0.899140
        11        12        22        23     9      180.000000        0.495848         4    ;  uncertainty k = 0.242968
        11        12        22        33     9        0.000000        0.396583         1    ;  uncertainty k = 0.579269
        11        12        22        33     9      180.000000        5.940331         2    ;  uncertainty k = 0.642037
        11        12        22        33     9        0.000000        1.347929         3    ;  uncertainty k = 0.245791
        11        12        22        33     9      180.000000        0.220111         4    ;  uncertainty k = 0.097958
        11        12        25        24     9        0.000000        0.646806         1    ;  uncertainty k = 0.822114
        11        12        25        24     9      180.000000       17.718734         2    ;  uncertainty k = 0.718404
        11        12        25        24     9        0.000000        1.812784         3    ;  uncertainty k = 0.441778
        11        12        25        24     9      180.000000        0.584368         4    ;  uncertainty k = 0.374904
        11        12        25        34     9        0.000000        0.265452         1    ;  uncertainty k = 0.836588
        11        12        25        34     9      180.000000        7.388299         2    ;  uncertainty k = 0.717427
        11        12        25        34     9        0.000000        1.389331         3    ;  uncertainty k = 0.221608
        11        12        25        34     9      180.000000        0.305827         4    ;  uncertainty k = 0.186115
        12        22        23        24     9        0.000000       -0.040160         1    ;  uncertainty k = 0.675821
        12        22        23        24     9      180.000000       23.907395         2    ;  uncertainty k = 0.426037
        12        22        23        24     9        0.000000       -7.568659         3    ;  uncertainty k = 0.735716
        12        22        23        24     9      180.000000        2.067608         4    ;  uncertainty k = 0.587598
        12        25        24        23     9        0.000000       -0.200970         1    ;  uncertainty k = 1.184841
        12        25        24        23     9      180.000000       17.657299         2    ;  uncertainty k = 0.679787
        12        25        24        23     9        0.000000       -8.761027         3    ;  uncertainty k = 1.148630
        12        25        24        23     9      180.000000        1.115206         4    ;  uncertainty k = 0.546988
        12        25        24        26     9        0.000000        1.489755         1    ;  uncertainty k = 1.401834
        12        25        24        26     9      180.000000        8.764522         2    ;  uncertainty k = 0.246562
        12        25        24        26     9        0.000000        1.846230         3    ;  uncertainty k = 0.378414
        12        25        24        26     9      180.000000       -0.089565         4    ;  uncertainty k = 0.109770
        13         7         8        31     9        0.000000       -0.261873         1    ;  uncertainty k = 0.409676
        13         7         8        31     9      180.000000        6.645307         2    ;  uncertainty k = 0.428230
        13         7         8        31     9        0.000000        0.826604         3    ;  uncertainty k = 0.188119
        13         7         8        31     9      180.000000        1.191924         4    ;  uncertainty k = 0.136518
        14        13        16        19     9        0.000000        1.240386         1    ;  uncertainty k = 0.704630
        14        13        16        19     9      180.000000       -0.465948         2    ;  uncertainty k = 0.475075
        14        13        16        19     9        0.000000        0.429513         3    ;  uncertainty k = 0.131938
        14        13        16        19     9      180.000000       -0.011191         4    ;  uncertainty k = 0.163592
        14        13        16        20     9        0.000000        1.240386         1    ;  uncertainty k = 0.704631
        14        13        16        20     9      180.000000       -0.465947         2    ;  uncertainty k = 0.475076
        14        13        16        20     9        0.000000        0.429513         3    ;  uncertainty k = 0.131938
        14        13        16        20     9      180.000000       -0.011191         4    ;  uncertainty k = 0.163591
        14        13        16        21     9        0.000000        1.240386         1    ;  uncertainty k = 0.704631
        14        13        16        21     9      180.000000       -0.465947         2    ;  uncertainty k = 0.475076
        14        13        16        21     9        0.000000        0.429513         3    ;  uncertainty k = 0.131938
        14        13        16        21     9      180.000000       -0.011191         4    ;  uncertainty k = 0.163591
        15        13        16        19     9        0.000000        1.240386         1    ;  uncertainty k = 0.704630
        15        13        16        19     9      180.000000       -0.465948         2    ;  uncertainty k = 0.475075
        15        13        16        19     9        0.000000        0.429513         3    ;  uncertainty k = 0.131938
        15        13        16        19     9      180.000000       -0.011191         4    ;  uncertainty k = 0.163592
        15        13        16        20     9        0.000000        1.240386         1    ;  uncertainty k = 0.704631
        15        13        16        20     9      180.000000       -0.465947         2    ;  uncertainty k = 0.475076
        15        13        16        20     9        0.000000        0.429513         3    ;  uncertainty k = 0.131938
        15        13        16        20     9      180.000000       -0.011191         4    ;  uncertainty k = 0.163591
        15        13        16        21     9        0.000000        1.240386         1    ;  uncertainty k = 0.704631
        15        13        16        21     9      180.000000       -0.465947         2    ;  uncertainty k = 0.475076
        15        13        16        21     9        0.000000        0.429513         3    ;  uncertainty k = 0.131938
        15        13        16        21     9      180.000000       -0.011191         4    ;  uncertainty k = 0.163591
        17         3         2        28     9        0.000000        0.263491         1    ;  uncertainty k = 0.330046
        17         3         2        28     9      180.000000       -0.590095         2    ;  uncertainty k = 0.306731
        17         3         2        28     9        0.000000        0.721400         3    ;  uncertainty k = 0.176947
        17         3         2        28     9      180.000000        0.079587         4    ;  uncertainty k = 0.136498
        17         3         4        29     9        0.000000        0.268218         1    ;  uncertainty k = 0.287729
        17         3         4        29     9      180.000000       -0.700287         2    ;  uncertainty k = 0.317457
        17         3         4        29     9        0.000000        0.864865         3    ;  uncertainty k = 0.215489
        17         3         4        29     9      180.000000        0.035487         4    ;  uncertainty k = 0.054195
        17         3         4        30     9        0.000000        0.268218         1    ;  uncertainty k = 0.287729
        17         3         4        30     9      180.000000       -0.700287         2    ;  uncertainty k = 0.317457
        17         3         4        30     9        0.000000        0.864865         3    ;  uncertainty k = 0.215489
        17         3         4        30     9      180.000000        0.035487         4    ;  uncertainty k = 0.054195
        18         3         2        28     9        0.000000        0.263491         1    ;  uncertainty k = 0.330046
        18         3         2        28     9      180.000000       -0.590095         2    ;  uncertainty k = 0.306731
        18         3         2        28     9        0.000000        0.721400         3    ;  uncertainty k = 0.176947
        18         3         2        28     9      180.000000        0.079587         4    ;  uncertainty k = 0.136498
        18         3         4        29     9        0.000000        0.268218         1    ;  uncertainty k = 0.287729
        18         3         4        29     9      180.000000       -0.700287         2    ;  uncertainty k = 0.317457
        18         3         4        29     9        0.000000        0.864865         3    ;  uncertainty k = 0.215489
        18         3         4        29     9      180.000000        0.035487         4    ;  uncertainty k = 0.054195
        18         3         4        30     9        0.000000        0.268218         1    ;  uncertainty k = 0.287729
        18         3         4        30     9      180.000000       -0.700287         2    ;  uncertainty k = 0.317457
        18         3         4        30     9        0.000000        0.864865         3    ;  uncertainty k = 0.215489
        18         3         4        30     9      180.000000        0.035487         4    ;  uncertainty k = 0.054195
        22        12        25        24     9        0.000000       -0.022706         1    ;  uncertainty k = 0.285980
        22        12        25        24     9      180.000000       18.171451         2    ;  uncertainty k = 0.243925
        22        12        25        24     9        0.000000       -9.101971         3    ;  uncertainty k = 0.907595
        22        12        25        24     9      180.000000        1.645395         4    ;  uncertainty k = 0.650890
        22        12        25        34     9        0.000000        0.162169         1    ;  uncertainty k = 0.294030
        22        12        25        34     9      180.000000        8.572127         2    ;  uncertainty k = 0.517844
        22        12        25        34     9        0.000000        1.803548         3    ;  uncertainty k = 0.361120
        22        12        25        34     9      180.000000        0.551203         4    ;  uncertainty k = 0.160733
        22        23        24        25     9        0.000000       -0.365613         1    ;  uncertainty k = 0.992404
        22        23        24        25     9      180.000000       17.922484         2    ;  uncertainty k = 0.311272
        22        23        24        25     9        0.000000       -7.802722         3    ;  uncertainty k = 1.292995
        22        23        24        25     9      180.000000        1.507804         4    ;  uncertainty k = 0.408380
        22        23        24        26     9        0.000000        0.520379         1    ;  uncertainty k = 1.612206
        22        23        24        26     9      180.000000       14.115934         2    ;  uncertainty k = 0.437405
        22        23        24        26     9        0.000000        1.752024         3    ;  uncertainty k = 0.469351
        22        23        24        26     9      180.000000       -0.181891         4    ;  uncertainty k = 0.274038
        23        22        12        25     9        0.000000       -0.502306         1    ;  uncertainty k = 0.569824
        23        22        12        25     9      180.000000       14.463157         2    ;  uncertainty k = 0.995754
        23        22        12        25     9        0.000000       -8.035007         3    ;  uncertainty k = 0.662396
        23        22        12        25     9      180.000000        1.891699         4    ;  uncertainty k = 0.484590
        23        24        25        34     9        0.000000        0.915138         1    ;  uncertainty k = 0.692264
        23        24        25        34     9      180.000000       11.006104         2    ;  uncertainty k = 0.356866
        23        24        25        34     9        0.000000        1.912440         3    ;  uncertainty k = 0.526541
        23        24        25        34     9      180.000000        0.084849         4    ;  uncertainty k = 0.152601
        23        24        26        35     9        0.000000        1.371376         1    ;  uncertainty k = 0.544281
        23        24        26        35     9      180.000000       -1.183654         2    ;  uncertainty k = 0.158790
        23        24        26        35     9        0.000000        0.751106         3    ;  uncertainty k = 0.052163
        23        24        26        35     9      180.000000        0.245344         4    ;  uncertainty k = 0.030724
        23        24        26        36     9        0.000000        1.371376         1    ;  uncertainty k = 0.544281
        23        24        26        36     9      180.000000       -1.183654         2    ;  uncertainty k = 0.158790
        23        24        26        36     9        0.000000        0.751106         3    ;  uncertainty k = 0.052163
        23        24        26        36     9      180.000000        0.245344         4    ;  uncertainty k = 0.030724
        23        24        26        37     9        0.000000        1.371376         1    ;  uncertainty k = 0.544281
        23        24        26        37     9      180.000000       -1.183654         2    ;  uncertainty k = 0.158790
        23        24        26        37     9        0.000000        0.751106         3    ;  uncertainty k = 0.052163
        23        24        26        37     9      180.000000        0.245344         4    ;  uncertainty k = 0.030724
        24        23        22        33     9        0.000000        0.674003         1    ;  uncertainty k = 0.770336
        24        23        22        33     9      180.000000       20.853478         2    ;  uncertainty k = 0.354603
        24        23        22        33     9        0.000000        1.471055         3    ;  uncertainty k = 0.390943
        24        23        22        33     9      180.000000        1.299049         4    ;  uncertainty k = 0.670353
        25        12        22        33     9        0.000000        0.039320         1    ;  uncertainty k = 0.147919
        25        12        22        33     9      180.000000        7.289472         2    ;  uncertainty k = 0.591158
        25        12        22        33     9        0.000000        1.393567         3    ;  uncertainty k = 0.445920
        25        12        22        33     9      180.000000        0.425345         4    ;  uncertainty k = 0.148480
        25        24        26        35     9        0.000000       -0.145148         1    ;  uncertainty k = 0.362775
        25        24        26        35     9      180.000000       -1.082309         2    ;  uncertainty k = 0.240596
        25        24        26        35     9        0.000000        0.840271         3    ;  uncertainty k = 0.053285
        25        24        26        35     9      180.000000        0.204020         4    ;  uncertainty k = 0.036983
        25        24        26        36     9        0.000000       -0.145148         1    ;  uncertainty k = 0.362775
        25        24        26        36     9      180.000000       -1.082309         2    ;  uncertainty k = 0.240596
        25        24        26        36     9        0.000000        0.840271         3    ;  uncertainty k = 0.053285
        25        24        26        36     9      180.000000        0.204020         4    ;  uncertainty k = 0.036983
        25        24        26        37     9        0.000000       -0.145148         1    ;  uncertainty k = 0.362775
        25        24        26        37     9      180.000000       -1.082309         2    ;  uncertainty k = 0.240596
        25        24        26        37     9        0.000000        0.840271         3    ;  uncertainty k = 0.053285
        25        24        26        37     9      180.000000        0.204020         4    ;  uncertainty k = 0.036983
        26        24        25        34     9        0.000000       -0.471627         1    ;  uncertainty k = 0.294474
        26        24        25        34     9      180.000000        2.728862         2    ;  uncertainty k = 0.501182
        26        24        25        34     9        0.000000        1.070716         3    ;  uncertainty k = 0.481158
        26        24        25        34     9      180.000000        0.033491         4    ;  uncertainty k = 0.208766
        27         1         2        28     9        0.000000       11.846445         1    ;  uncertainty k = 0.691990
        27         1         2        28     9      180.000000       -0.796078         2    ;  uncertainty k = 0.286325
        27         1         2        28     9        0.000000        0.793238         3    ;  uncertainty k = 0.211936
        27         1         2        28     9      180.000000        0.184425         4    ;  uncertainty k = 0.129100
        31         8         9        32     9        0.000000       -0.147318         1    ;  uncertainty k = 0.419083
        31         8         9        32     9      180.000000        7.636141         2    ;  uncertainty k = 0.382132
        31         8         9        32     9        0.000000       -0.320371         3    ;  uncertainty k = 0.317692
        31         8         9        32     9      180.000000        0.278562         4    ;  uncertainty k = 0.114537

[ dihedrals ] ; impropers
;       ai        aj        ak        al funct           phase               k        pn
         5         4         6        10     4      180.000000        5.566935         2    ;  uncertainty k = 0.328415
         5         6        10         4     4      180.000000        5.566935         2    ;  uncertainty k = 0.328415
         5        10         4         6     4      180.000000        5.566935         2    ;  uncertainty k = 0.328415
         6         2         5         7     4      180.000000        6.249174         2    ;  uncertainty k = 0.245082
         6         5         7         2     4      180.000000        6.249174         2    ;  uncertainty k = 0.245082
         6         7         2         5     4      180.000000        6.249174         2    ;  uncertainty k = 0.245082
         7         6         8        13     4      180.000000        4.896799         2    ;  uncertainty k = 0.472733
         7         8        13         6     4      180.000000        4.896799         2    ;  uncertainty k = 0.472733
         7        13         6         8     4      180.000000        4.896799         2    ;  uncertainty k = 0.472733
         8         7         9        31     4      180.000000        5.386828         2    ;  uncertainty k = 0.233838
         8         9        31         7     4      180.000000        5.386828         2    ;  uncertainty k = 0.233838
         8        31         7         9     4      180.000000        5.386828         2    ;  uncertainty k = 0.233838
         9         8        10        32     4      180.000000        2.021706         2    ;  uncertainty k = 0.146626
         9        10        32         8     4      180.000000        2.021706         2    ;  uncertainty k = 0.146626
         9        32         8        10     4      180.000000        2.021706         2    ;  uncertainty k = 0.146626
        10         5         9        11     4      180.000000       17.714117         2    ;  uncertainty k = 0.099192
        10         9        11         5     4      180.000000       17.714117         2    ;  uncertainty k = 0.099192
        10        11         5         9     4      180.000000       17.714117         2    ;  uncertainty k = 0.099192
        12        11        22        25     4      180.000000        4.202899         2    ;  uncertainty k = 0.602845
        12        22        25        11     4      180.000000        4.202899         2    ;  uncertainty k = 0.602845
        12        25        11        22     4      180.000000        4.202899         2    ;  uncertainty k = 0.602845
        22        12        23        33     4      180.000000        0.153657         2    ;  uncertainty k = 0.211669
        22        23        33        12     4      180.000000        0.153657         2    ;  uncertainty k = 0.211669
        22        33        12        23     4      180.000000        0.153657         2    ;  uncertainty k = 0.211669
        25        12        24        34     4      180.000000        0.702566         2    ;  uncertainty k = 0.558163
        25        24        34        12     4      180.000000        0.702566         2    ;  uncertainty k = 0.558163
        25        34        12        24     4      180.000000        0.702566         2    ;  uncertainty k = 0.558163

[ pairs ]
;       ai        aj funct
         1         4     1
         1         5     1
         1         7     1
         1        17     1
         1        18     1
         2         8     1
         2        10     1
         2        13     1
         2        29     1
         2        30     1
         3         7     1
         3        10     1
         3        27     1
         4         7     1
         4         9     1
         4        11     1
         4        28     1
         5         8     1
         5        12     1
         5        13     1
         5        17     1
         5        18     1
         5        28     1
         5        32     1
         6         9     1
         6        11     1
         6        14     1
         6        15     1
         6        16     1
         6        17     1
         6        18     1
         6        27     1
         6        29     1
         6        30     1
         6        31     1
         7        10     1
         7        19     1
         7        20     1
         7        21     1
         7        28     1
         7        32     1
         8        11     1
         8        14     1
         8        15     1
         8        16     1
         9        12     1
         9        13     1
        10        22     1
        10        25     1
        10        29     1
        10        30     1
        10        31     1
        11        23     1
        11        24     1
        11        32     1
        11        33     1
        11        34     1
        12        26     1
        13        31     1
        14        19     1
        14        20     1
        14        21     1
        15        19     1
        15        20     1
        15        21     1
        17        28     1
        17        29     1
        17        30     1
        18        28     1
        18        29     1
        18        30     1
        22        26     1
        22        34     1
        23        34     1
        23        35     1
        23        36     1
        23        37     1
        24        33     1
        25        33     1
        25        35     1
        25        36     1
        25        37     1
        26        34     1
        27        28     1
        31        32     1
