; ITP file created by ByteFF-joint-25, 2026-02-17 09:19:30.550340

[ atomtypes ]
;name           bonded.type        at.num        mass        charge   ptype           sigma         epsilon
 o0bf                                   8      0.0000       0.00000       A     3.24322e-01     3.88494e-01    ;  uncertainty sigma = 0.000022, epsilon = 0.000846
 c1bf                                   6      0.0000       0.00000       A     3.39705e-01     4.50778e-01    ;  uncertainty sigma = 0.000024, epsilon = 0.001547
 c2bf                                   6      0.0000       0.00000       A     3.39808e-01     4.50288e-01    ;  uncertainty sigma = 0.000026, epsilon = 0.002007
 c3bf                                   6      0.0000       0.00000       A     3.39776e-01     4.50926e-01    ;  uncertainty sigma = 0.000017, epsilon = 0.000849
 c4bf                                   6      0.0000       0.00000       A     3.31540e-01     4.13505e-01    ;  uncertainty sigma = 0.000008, epsilon = 0.000956
 c5bf                                   6      0.0000       0.00000       A     3.31561e-01     4.12609e-01    ;  uncertainty sigma = 0.000024, epsilon = 0.001159
 c6bf                                   6      0.0000       0.00000       A     3.31544e-01     4.13031e-01    ;  uncertainty sigma = 0.000020, epsilon = 0.001753
 c7bf                                   6      0.0000       0.00000       A     3.31477e-01     4.13298e-01    ;  uncertainty sigma = 0.000019, epsilon = 0.000254
 c8bf                                   6      0.0000       0.00000       A     3.31528e-01     4.13628e-01    ;  uncertainty sigma = 0.000009, epsilon = 0.000546
 c9bf                                   6      0.0000       0.00000       A     3.31531e-01     4.13179e-01    ;  uncertainty sigma = 0.000015, epsilon = 0.000590
 o10bf                                  8      0.0000       0.00000       A     3.15560e-01     3.01903e-01    ;  uncertainty sigma = 0.000035, epsilon = 0.001496
 c11bf                                  6      0.0000       0.00000       A     3.31495e-01     4.13941e-01    ;  uncertainty sigma = 0.000010, epsilon = 0.001010
 c12bf                                  6      0.0000       0.00000       A     3.31520e-01     4.13586e-01    ;  uncertainty sigma = 0.000002, epsilon = 0.000805
 c13bf                                  6      0.0000       0.00000       A     3.31497e-01     4.13352e-01    ;  uncertainty sigma = 0.000008, epsilon = 0.000492
 f14bf                                  9      0.0000       0.00000       A     3.03420e-01     3.47893e-01    ;  uncertainty sigma = 0.000010, epsilon = 0.000765
 c15bf                                  6      0.0000       0.00000       A     3.31510e-01     4.13401e-01    ;  uncertainty sigma = 0.000009, epsilon = 0.000546
 c16bf                                  6      0.0000       0.00000       A     3.31508e-01     4.13715e-01    ;  uncertainty sigma = 0.000016, epsilon = 0.000826
 c17bf                                  6      0.0000       0.00000       A     3.47927e-01     6.68046e-01    ;  uncertainty sigma = 0.000023, epsilon = 0.001608
 c18bf                                  6      0.0000       0.00000       A     3.31520e-01     4.13321e-01    ;  uncertainty sigma = 0.000008, epsilon = 0.000748
 s19bf                                 16      0.0000       0.00000       A     4.06004e-01     2.59145e-01    ;  uncertainty sigma = 0.000053, epsilon = 0.004837
 o20bf                                  8      0.0000       0.00000       A     3.04749e-01     6.10527e-01    ;  uncertainty sigma = 0.000044, epsilon = 0.000831
 o21bf                                  8      0.0000       0.00000       A     3.04749e-01     6.10527e-01    ;  uncertainty sigma = 0.000044, epsilon = 0.000831
 c22bf                                  6      0.0000       0.00000       A     3.39832e-01     4.48835e-01    ;  uncertainty sigma = 0.000062, epsilon = 0.002447
 f23bf                                  9      0.0000       0.00000       A     3.03423e-01     3.47611e-01    ;  uncertainty sigma = 0.000028, epsilon = 0.001519
 n24bf                                  7      0.0000       0.00000       A     3.27375e-01     4.59084e-01    ;  uncertainty sigma = 0.000021, epsilon = 0.000492
 f25bf                                  9      0.0000       0.00000       A     3.03427e-01     3.48313e-01    ;  uncertainty sigma = 0.000031, epsilon = 0.002325
 f26bf                                  9      0.0000       0.00000       A     3.03427e-01     3.48313e-01    ;  uncertainty sigma = 0.000031, epsilon = 0.002325
 f27bf                                  9      0.0000       0.00000       A     3.03427e-01     3.48313e-01    ;  uncertainty sigma = 0.000031, epsilon = 0.002325
 h28bf                                  1      0.0000       0.00000       A     5.38311e-02     1.93883e-02    ;  uncertainty sigma = 0.000101, epsilon = 0.000896
 h29bf                                  1      0.0000       0.00000       A     2.42250e-01     8.64431e-02    ;  uncertainty sigma = 0.000079, epsilon = 0.000765
 h30bf                                  1      0.0000       0.00000       A     2.42188e-01     8.60863e-02    ;  uncertainty sigma = 0.000077, epsilon = 0.001040
 h31bf                                  1      0.0000       0.00000       A     2.60039e-01     8.67269e-02    ;  uncertainty sigma = 0.000019, epsilon = 0.000372
 h32bf                                  1      0.0000       0.00000       A     2.60039e-01     8.67269e-02    ;  uncertainty sigma = 0.000019, epsilon = 0.000372
 h33bf                                  1      0.0000       0.00000       A     2.62567e-01     6.72430e-02    ;  uncertainty sigma = 0.000020, epsilon = 0.000765
 h34bf                                  1      0.0000       0.00000       A     2.62556e-01     6.70855e-02    ;  uncertainty sigma = 0.000006, epsilon = 0.000381
 h35bf                                  1      0.0000       0.00000       A     2.62552e-01     6.72491e-02    ;  uncertainty sigma = 0.000007, epsilon = 0.000350
 h36bf                                  1      0.0000       0.00000       A     2.62545e-01     6.70248e-02    ;  uncertainty sigma = 0.000017, epsilon = 0.000507
 h37bf                                  1      0.0000       0.00000       A     2.62547e-01     6.71166e-02    ;  uncertainty sigma = 0.000014, epsilon = 0.000743

[ moleculetype ]
;name             nrexcl
 MOL                   3

[ atoms ]
;       nr            type      resi   res      atom      cgnr      charge          mass ; qtot
         1            o0bf         1   UNL        o0         1    -0.58226       15.9990 ; qtot   -0.582
         2            c1bf         1   UNL        c1         2     0.16930       12.0110 ; qtot   -0.413
         3            c2bf         1   UNL        c2         3     0.14636       12.0110 ; qtot   -0.267
         4            c3bf         1   UNL        c3         4    -0.04343       12.0110 ; qtot   -0.310
         5            c4bf         1   UNL        c4         5    -0.10021       12.0110 ; qtot   -0.410
         6            c5bf         1   UNL        c5         6     0.01601       12.0110 ; qtot   -0.394
         7            c6bf         1   UNL        c6         7    -0.22490       12.0110 ; qtot   -0.619
         8            c7bf         1   UNL        c7         8     0.00371       12.0110 ; qtot   -0.615
         9            c8bf         1   UNL        c8         9    -0.17680       12.0110 ; qtot   -0.792
        10            c9bf         1   UNL        c9        10     0.16134       12.0110 ; qtot   -0.631
        11           o10bf         1   UNL       o10        11    -0.24733       15.9990 ; qtot   -0.878
        12           c11bf         1   UNL       c11        12     0.15098       12.0110 ; qtot   -0.727
        13           c12bf         1   UNL       c12        13    -0.18271       12.0110 ; qtot   -0.910
        14           c13bf         1   UNL       c13        14     0.15843       12.0110 ; qtot   -0.752
        15           f14bf         1   UNL       f14        15    -0.12713       18.9980 ; qtot   -0.879
        16           c15bf         1   UNL       c15        16    -0.15485       12.0110 ; qtot   -1.033
        17           c16bf         1   UNL       c16        17     0.03943       12.0110 ; qtot   -0.994
        18           c17bf         1   UNL       c17        18     0.22805       12.0110 ; qtot   -0.766
        19           c18bf         1   UNL       c18        19    -0.13883       12.0110 ; qtot   -0.905
        20           s19bf         1   UNL       s19        20     0.97456       32.0670 ; qtot    0.070
        21           o20bf         1   UNL       o20        21    -0.52245       15.9990 ; qtot   -0.453
        22           o21bf         1   UNL       o21        22    -0.52245       15.9990 ; qtot   -0.975
        23           c22bf         1   UNL       c22        23     0.64625       12.0110 ; qtot   -0.329
        24           f23bf         1   UNL       f23        24    -0.24334       18.9980 ; qtot   -0.572
        25           n24bf         1   UNL       n24        25    -0.34869       14.0070 ; qtot   -0.921
        26           f25bf         1   UNL       f25        26    -0.21182       18.9980 ; qtot   -1.133
        27           f26bf         1   UNL       f26        27    -0.21182       18.9980 ; qtot   -1.345
        28           f27bf         1   UNL       f27        28    -0.21182       18.9980 ; qtot   -1.556
        29           h28bf         1   UNL       h28        29     0.41450        1.0080 ; qtot   -1.142
        30           h29bf         1   UNL       h29        30     0.08372        1.0080 ; qtot   -1.058
        31           h30bf         1   UNL       h30        31     0.07380        1.0080 ; qtot   -0.984
        32           h31bf         1   UNL       h31        32     0.07831        1.0080 ; qtot   -0.906
        33           h32bf         1   UNL       h32        33     0.07831        1.0080 ; qtot   -0.828
        34           h33bf         1   UNL       h33        34     0.16869        1.0080 ; qtot   -0.659
        35           h34bf         1   UNL       h34        35     0.15782        1.0080 ; qtot   -0.501
        36           h35bf         1   UNL       h35        36     0.16858        1.0080 ; qtot   -0.333
        37           h36bf         1   UNL       h36        37     0.16624        1.0080 ; qtot   -0.166
        38           h37bf         1   UNL       h37        38     0.16645        1.0080 ; qtot    0.000

[ bonds ]
;       ai        aj funct               r               k
         1         2     1        0.142309   255854.613379    ;  uncertainty r = 0.000182, k = 6.589707
         1        29     1        0.097139   462104.413281    ;  uncertainty r = 0.000049, k = 2.298633
         2         3     1        0.154453   193906.706226    ;  uncertainty r = 0.000056, k = 13.458828
         2         6     1        0.151889   245822.921777    ;  uncertainty r = 0.000103, k = 24.760070
         2        30     1        0.109510   307561.233105    ;  uncertainty r = 0.000073, k = 2.966365
         3         4     1        0.153860   212297.996118    ;  uncertainty r = 0.000083, k = 12.401320
         3        24     1        0.140288   292509.992822    ;  uncertainty r = 0.000074, k = 2.539009
         3        31     1        0.109388   310820.330078    ;  uncertainty r = 0.000067, k = 2.689552
         4         5     1        0.151176   253263.694873    ;  uncertainty r = 0.000115, k = 18.026087
         4        32     1        0.109480   308615.353906    ;  uncertainty r = 0.000035, k = 1.081062
         4        33     1        0.109480   308615.353906    ;  uncertainty r = 0.000035, k = 1.081062
         5         6     1        0.139508   360835.192920    ;  uncertainty r = 0.000093, k = 21.453304
         5        10     1        0.138883   352523.119189    ;  uncertainty r = 0.000119, k = 4.081900
         6         7     1        0.139443   334217.276465    ;  uncertainty r = 0.000192, k = 10.724747
         7         8     1        0.139257   347022.068311    ;  uncertainty r = 0.000185, k = 4.882694
         7        20     1        0.177317   132845.511353    ;  uncertainty r = 0.000254, k = 16.240857
         8         9     1        0.139018   365346.093457    ;  uncertainty r = 0.000101, k = 4.837206
         8        34     1        0.108435   328776.697461    ;  uncertainty r = 0.000020, k = 0.903406
         9        10     1        0.139706   353175.004980    ;  uncertainty r = 0.000049, k = 6.046471
         9        35     1        0.108753   336163.893701    ;  uncertainty r = 0.000031, k = 1.172871
        10        11     1        0.138381   316699.994141    ;  uncertainty r = 0.000135, k = 10.980208
        11        12     1        0.137077   316895.097656    ;  uncertainty r = 0.000110, k = 9.258264
        12        13     1        0.139427   359163.303906    ;  uncertainty r = 0.000040, k = 4.028925
        12        19     1        0.139179   355512.646436    ;  uncertainty r = 0.000043, k = 0.656935
        13        14     1        0.138903   360755.951270    ;  uncertainty r = 0.000040, k = 3.414912
        13        36     1        0.108801   339525.062500    ;  uncertainty r = 0.000019, k = 1.519211
        14        15     1        0.134939   340193.470801    ;  uncertainty r = 0.000095, k = 3.973496
        14        16     1        0.138772   359379.322314    ;  uncertainty r = 0.000049, k = 1.285215
        16        17     1        0.140293   363423.557715    ;  uncertainty r = 0.000073, k = 1.983955
        16        37     1        0.108643   335847.029248    ;  uncertainty r = 0.000020, k = 0.933262
        17        18     1        0.143666   316064.886230    ;  uncertainty r = 0.000041, k = 3.494324
        17        19     1        0.140042   357603.165283    ;  uncertainty r = 0.000048, k = 4.155025
        18        25     1        0.116625  1127949.809766    ;  uncertainty r = 0.000026, k = 2.900562
        19        38     1        0.108681   335495.357715    ;  uncertainty r = 0.000025, k = 1.572342
        20        21     1        0.146502   482333.991992    ;  uncertainty r = 0.000060, k = 8.765423
        20        22     1        0.146502   482333.991992    ;  uncertainty r = 0.000060, k = 8.765423
        20        23     1        0.186690   146980.237549    ;  uncertainty r = 0.000185, k = 14.369171
        23        26     1        0.133044   300000.410059    ;  uncertainty r = 0.000105, k = 4.973886
        23        27     1        0.133044   300000.410059    ;  uncertainty r = 0.000105, k = 4.973886
        23        28     1        0.133044   300000.410059    ;  uncertainty r = 0.000105, k = 4.973886

[ angles ]
;       ai        aj        ak funct           theta             cth
         1         2         3     1      109.718750      662.505334    ;  uncertainty theta = 0.003001, k = 0.194319
         1         2         6     1      112.171974      668.214538    ;  uncertainty theta = 0.004565, k = 0.169908
         1         2        30     1      107.692093      441.364916    ;  uncertainty theta = 0.005928, k = 0.122707
         2         1        29     1      107.497925      460.320953    ;  uncertainty theta = 0.001786, k = 0.080048
         2         3         4     1      108.516922      669.088801    ;  uncertainty theta = 0.002264, k = 0.191702
         2         3        24     1      109.232956      616.164610    ;  uncertainty theta = 0.005994, k = 0.045914
         2         3        31     1      109.166954      376.679354    ;  uncertainty theta = 0.002840, k = 0.103944
         2         6         5     1      115.300522      501.127019    ;  uncertainty theta = 0.004731, k = 0.199819
         2         6         7     1      125.077797      359.904218    ;  uncertainty theta = 0.006941, k = 0.123274
         3         2         6     1      104.918106      718.056719    ;  uncertainty theta = 0.005309, k = 0.221798
         3         2        30     1      107.999977      389.051381    ;  uncertainty theta = 0.002803, k = 0.105797
         3         4         5     1      104.168480      717.433805    ;  uncertainty theta = 0.003557, k = 0.188353
         3         4        32     1      108.163040      390.848492    ;  uncertainty theta = 0.001303, k = 0.082898
         3         4        33     1      108.163040      390.848492    ;  uncertainty theta = 0.001303, k = 0.082898
         4         3        24     1      111.121605      652.552693    ;  uncertainty theta = 0.002114, k = 0.094420
         4         3        31     1      111.332504      391.217694    ;  uncertainty theta = 0.003441, k = 0.068654
         4         5         6     1      115.212074      532.647920    ;  uncertainty theta = 0.004845, k = 0.137375
         4         5        10     1      126.384872      387.491607    ;  uncertainty theta = 0.005433, k = 0.191162
         5         4        32     1      110.117661      389.318244    ;  uncertainty theta = 0.001906, k = 0.123421
         5         4        33     1      110.117661      389.318244    ;  uncertainty theta = 0.001906, k = 0.123421
         5         6         7     1      121.252060      427.988099    ;  uncertainty theta = 0.005043, k = 0.175280
         5        10         9     1      120.451439      382.663529    ;  uncertainty theta = 0.004158, k = 0.230750
         5        10        11     1      118.155685      404.806469    ;  uncertainty theta = 0.007849, k = 0.375600
         6         2        30     1      109.224037      381.757823    ;  uncertainty theta = 0.003791, k = 0.183994
         6         5        10     1      119.370277      420.613780    ;  uncertainty theta = 0.001713, k = 0.128969
         6         7         8     1      123.444702      442.319014    ;  uncertainty theta = 0.006083, k = 0.184723
         6         7        20     1      116.576431      331.310732    ;  uncertainty theta = 0.009416, k = 0.327557
         7         8         9     1      121.409592      490.204829    ;  uncertainty theta = 0.006404, k = 0.105618
         7         8        34     1      118.576065      262.813469    ;  uncertainty theta = 0.003137, k = 0.121475
         7        20        21     1      116.003891      634.098301    ;  uncertainty theta = 0.008571, k = 0.040528
         7        20        22     1      116.003891      634.098301    ;  uncertainty theta = 0.008571, k = 0.040528
         7        20        23     1      102.792587      475.627992    ;  uncertainty theta = 0.010048, k = 0.276442
         8         7        20     1      115.595070      345.700382    ;  uncertainty theta = 0.010499, k = 0.299827
         8         9        10     1      119.891541      510.170922    ;  uncertainty theta = 0.002510, k = 0.034534
         8         9        35     1      120.002647      276.826798    ;  uncertainty theta = 0.001626, k = 0.037699
         9         8        34     1      120.483727      283.888575    ;  uncertainty theta = 0.002460, k = 0.074860
         9        10        11     1      120.813316      433.692132    ;  uncertainty theta = 0.002748, k = 0.201700
        10         9        35     1      120.236305      275.800494    ;  uncertainty theta = 0.002384, k = 0.072005
        10        11        12     1      112.703651      472.670954    ;  uncertainty theta = 0.002276, k = 0.092779
        11        12        13     1      119.026627      419.851465    ;  uncertainty theta = 0.002706, k = 0.052294
        11        12        19     1      119.290588      404.135418    ;  uncertainty theta = 0.003651, k = 0.053296
        12        13        14     1      117.038597      502.569227    ;  uncertainty theta = 0.003445, k = 0.110867
        12        13        36     1      121.702477      272.440034    ;  uncertainty theta = 0.003455, k = 0.132527
        12        19        17     1      118.761208      522.894787    ;  uncertainty theta = 0.001489, k = 0.068180
        12        19        38     1      120.905983      280.332437    ;  uncertainty theta = 0.002004, k = 0.062093
        13        12        19     1      122.428162      385.560203    ;  uncertainty theta = 0.005403, k = 0.175952
        13        14        15     1      118.267052      494.604714    ;  uncertainty theta = 0.001988, k = 0.058359
        13        14        16     1      123.726730      369.147375    ;  uncertainty theta = 0.006010, k = 0.127235
        14        13        36     1      121.505081      285.104493    ;  uncertainty theta = 0.003243, k = 0.069272
        14        16        17     1      117.400681      493.697380    ;  uncertainty theta = 0.001506, k = 0.173040
        14        16        37     1      121.339279      286.173157    ;  uncertainty theta = 0.003120, k = 0.038569
        15        14        16     1      118.689796      499.274046    ;  uncertainty theta = 0.003051, k = 0.052524
        16        17        18     1      119.117836      375.204905    ;  uncertainty theta = 0.002733, k = 0.097877
        16        17        19     1      122.566833      457.580470    ;  uncertainty theta = 0.002293, k = 0.135282
        17        16        37     1      121.185242      278.472122    ;  uncertainty theta = 0.003138, k = 0.095958
        17        18        25     1      180.000000      233.555922    ;  uncertainty theta = 0.000000, k = 0.675784
        17        19        38     1      120.586197      284.638441    ;  uncertainty theta = 0.004219, k = 0.089604
        18        17        19     1      118.919228      375.151182    ;  uncertainty theta = 0.002637, k = 0.097444
        20        23        26     1      107.987816      427.841995    ;  uncertainty theta = 0.004368, k = 0.138495
        20        23        27     1      107.987816      427.841995    ;  uncertainty theta = 0.004368, k = 0.138495
        20        23        28     1      107.987816      427.841995    ;  uncertainty theta = 0.004368, k = 0.138495
        21        20        22     1      125.478783      852.302430    ;  uncertainty theta = 0.003251, k = 0.080370
        21        20        23     1      104.730919      472.750981    ;  uncertainty theta = 0.011537, k = 0.291825
        22        20        23     1      104.730919      472.750981    ;  uncertainty theta = 0.011537, k = 0.291825
        24         3        31     1      107.895142      473.892649    ;  uncertainty theta = 0.003511, k = 0.146994
        26        23        27     1      110.914780      787.015533    ;  uncertainty theta = 0.002242, k = 0.073348
        26        23        28     1      110.914780      787.015533    ;  uncertainty theta = 0.002242, k = 0.073348
        27        23        28     1      110.914780      787.015533    ;  uncertainty theta = 0.002242, k = 0.073348
        32         4        33     1      104.822342      293.499115    ;  uncertainty theta = 0.001701, k = 0.032907

[ dihedrals ] ; propers for gromacs 4.5 or higher, use funct 9
;       ai        aj        ak        al funct           phase               k        pn
         1         2         3         4     9        0.000000       -3.101266         1    ;  uncertainty k = 0.585662
         1         2         3         4     9      180.000000        1.594940         2    ;  uncertainty k = 0.653535
         1         2         3         4     9        0.000000        1.099066         3    ;  uncertainty k = 0.135591
         1         2         3         4     9      180.000000       -0.002735         4    ;  uncertainty k = 0.176177
         1         2         3        24     9        0.000000       -1.080961         1    ;  uncertainty k = 0.869598
         1         2         3        24     9      180.000000       -0.974969         2    ;  uncertainty k = 0.443125
         1         2         3        24     9        0.000000        1.606307         3    ;  uncertainty k = 0.559407
         1         2         3        24     9      180.000000        0.064444         4    ;  uncertainty k = 0.119697
         1         2         3        31     9        0.000000       -0.661499         1    ;  uncertainty k = 0.350318
         1         2         3        31     9      180.000000        0.842849         2    ;  uncertainty k = 0.412610
         1         2         3        31     9        0.000000        1.043871         3    ;  uncertainty k = 0.304621
         1         2         3        31     9      180.000000        0.108020         4    ;  uncertainty k = 0.072054
         1         2         6         5     9        0.000000       -4.123959         1    ;  uncertainty k = 1.830310
         1         2         6         5     9      180.000000        4.771161         2    ;  uncertainty k = 1.007323
         1         2         6         5     9        0.000000        1.133314         3    ;  uncertainty k = 0.629464
         1         2         6         5     9      180.000000        0.639424         4    ;  uncertainty k = 0.194625
         1         2         6         7     9        0.000000       -0.649454         1    ;  uncertainty k = 1.074585
         1         2         6         7     9      180.000000        3.709696         2    ;  uncertainty k = 0.233503
         1         2         6         7     9        0.000000       -0.117520         3    ;  uncertainty k = 0.206734
         1         2         6         7     9      180.000000        0.512051         4    ;  uncertainty k = 0.251620
         2         3         4         5     9        0.000000       -0.421123         1    ;  uncertainty k = 1.534090
         2         3         4         5     9      180.000000        2.774885         2    ;  uncertainty k = 0.934096
         2         3         4         5     9        0.000000       -0.140615         3    ;  uncertainty k = 0.356741
         2         3         4         5     9      180.000000       -0.691735         4    ;  uncertainty k = 0.301261
         2         3         4        32     9        0.000000       -0.393181         1    ;  uncertainty k = 0.214308
         2         3         4        32     9      180.000000       -0.445303         2    ;  uncertainty k = 0.306478
         2         3         4        32     9        0.000000        0.148564         3    ;  uncertainty k = 0.132093
         2         3         4        32     9      180.000000        0.064615         4    ;  uncertainty k = 0.107260
         2         3         4        33     9        0.000000       -0.393181         1    ;  uncertainty k = 0.214308
         2         3         4        33     9      180.000000       -0.445303         2    ;  uncertainty k = 0.306478
         2         3         4        33     9        0.000000        0.148564         3    ;  uncertainty k = 0.132093
         2         3         4        33     9      180.000000        0.064615         4    ;  uncertainty k = 0.107260
         2         6         5         4     9        0.000000        0.566867         1    ;  uncertainty k = 0.722021
         2         6         5         4     9      180.000000       12.316819         2    ;  uncertainty k = 0.675116
         2         6         5         4     9        0.000000       -0.521261         3    ;  uncertainty k = 0.714943
         2         6         5         4     9      180.000000        1.242990         4    ;  uncertainty k = 0.240495
         2         6         5        10     9        0.000000        0.562916         1    ;  uncertainty k = 0.510978
         2         6         5        10     9      180.000000        8.773128         2    ;  uncertainty k = 0.287931
         2         6         5        10     9        0.000000        0.661212         3    ;  uncertainty k = 0.274070
         2         6         5        10     9      180.000000        1.301664         4    ;  uncertainty k = 0.138865
         2         6         7         8     9        0.000000        0.251336         1    ;  uncertainty k = 0.447321
         2         6         7         8     9      180.000000        6.750101         2    ;  uncertainty k = 0.164270
         2         6         7         8     9        0.000000        1.184759         3    ;  uncertainty k = 0.299513
         2         6         7         8     9      180.000000        1.553143         4    ;  uncertainty k = 0.140810
         2         6         7        20     9        0.000000        0.033189         1    ;  uncertainty k = 0.405373
         2         6         7        20     9      180.000000        6.753888         2    ;  uncertainty k = 0.679596
         2         6         7        20     9        0.000000        1.075676         3    ;  uncertainty k = 0.199126
         2         6         7        20     9      180.000000        1.171476         4    ;  uncertainty k = 0.203151
         3         2         1        29     9        0.000000       14.106578         1    ;  uncertainty k = 0.353276
         3         2         1        29     9      180.000000       -3.448136         2    ;  uncertainty k = 0.369824
         3         2         1        29     9        0.000000        1.157551         3    ;  uncertainty k = 0.157460
         3         2         1        29     9      180.000000        0.190333         4    ;  uncertainty k = 0.075285
         3         2         6         5     9        0.000000       -1.407363         1    ;  uncertainty k = 1.490831
         3         2         6         5     9      180.000000        9.422042         2    ;  uncertainty k = 1.252922
         3         2         6         5     9        0.000000       -1.179515         3    ;  uncertainty k = 0.324514
         3         2         6         5     9      180.000000        0.715487         4    ;  uncertainty k = 0.359327
         3         2         6         7     9        0.000000       -1.772520         1    ;  uncertainty k = 1.723768
         3         2         6         7     9      180.000000        3.250365         2    ;  uncertainty k = 0.659597
         3         2         6         7     9        0.000000        0.295488         3    ;  uncertainty k = 0.486642
         3         2         6         7     9      180.000000        0.632290         4    ;  uncertainty k = 0.191393
         3         4         5         6     9        0.000000       -1.777292         1    ;  uncertainty k = 1.345185
         3         4         5         6     9      180.000000       10.094178         2    ;  uncertainty k = 0.712097
         3         4         5         6     9        0.000000       -1.740407         3    ;  uncertainty k = 0.455623
         3         4         5         6     9      180.000000        0.807526         4    ;  uncertainty k = 0.193680
         3         4         5        10     9        0.000000       -0.747978         1    ;  uncertainty k = 1.226896
         3         4         5        10     9      180.000000        2.242321         2    ;  uncertainty k = 0.362630
         3         4         5        10     9        0.000000        0.253322         3    ;  uncertainty k = 0.221677
         3         4         5        10     9      180.000000        0.638068         4    ;  uncertainty k = 0.208725
         4         3         2         6     9        0.000000       -0.788965         1    ;  uncertainty k = 0.698654
         4         3         2         6     9      180.000000        1.648114         2    ;  uncertainty k = 0.405459
         4         3         2         6     9        0.000000        0.127089         3    ;  uncertainty k = 0.223753
         4         3         2         6     9      180.000000       -0.499278         4    ;  uncertainty k = 0.250046
         4         3         2        30     9        0.000000       -0.954036         1    ;  uncertainty k = 0.791112
         4         3         2        30     9      180.000000        0.445831         2    ;  uncertainty k = 0.431462
         4         3         2        30     9        0.000000        0.211549         3    ;  uncertainty k = 0.340212
         4         3         2        30     9      180.000000       -0.076296         4    ;  uncertainty k = 0.177885
         4         5         6         7     9        0.000000        0.139564         1    ;  uncertainty k = 0.826608
         4         5         6         7     9      180.000000        8.853267         2    ;  uncertainty k = 0.399918
         4         5         6         7     9        0.000000        0.623895         3    ;  uncertainty k = 0.415243
         4         5         6         7     9      180.000000        1.195530         4    ;  uncertainty k = 0.205503
         4         5        10         9     9        0.000000        0.437399         1    ;  uncertainty k = 0.318297
         4         5        10         9     9      180.000000        6.314834         2    ;  uncertainty k = 0.338298
         4         5        10         9     9        0.000000        1.289627         3    ;  uncertainty k = 0.237062
         4         5        10         9     9      180.000000        1.606582         4    ;  uncertainty k = 0.279751
         4         5        10        11     9        0.000000       -0.189606         1    ;  uncertainty k = 0.529479
         4         5        10        11     9      180.000000        8.892795         2    ;  uncertainty k = 0.232265
         4         5        10        11     9        0.000000        1.014349         3    ;  uncertainty k = 0.188440
         4         5        10        11     9      180.000000        1.284569         4    ;  uncertainty k = 0.173712
         5         4         3        24     9        0.000000       -1.601885         1    ;  uncertainty k = 1.539437
         5         4         3        24     9      180.000000       -0.403919         2    ;  uncertainty k = 0.982313
         5         4         3        24     9        0.000000        1.366126         3    ;  uncertainty k = 0.278902
         5         4         3        24     9      180.000000        0.231702         4    ;  uncertainty k = 0.112188
         5         4         3        31     9        0.000000       -0.912140         1    ;  uncertainty k = 0.750309
         5         4         3        31     9      180.000000        0.609949         2    ;  uncertainty k = 0.413487
         5         4         3        31     9        0.000000        0.646731         3    ;  uncertainty k = 0.292454
         5         4         3        31     9      180.000000       -0.053288         4    ;  uncertainty k = 0.082405
         5         6         2        30     9        0.000000       -0.660275         1    ;  uncertainty k = 0.412440
         5         6         2        30     9      180.000000        3.147198         2    ;  uncertainty k = 0.582529
         5         6         2        30     9        0.000000        0.729282         3    ;  uncertainty k = 0.144224
         5         6         2        30     9      180.000000        0.219823         4    ;  uncertainty k = 0.159245
         5         6         7         8     9        0.000000       -0.297930         1    ;  uncertainty k = 0.530389
         5         6         7         8     9      180.000000        9.995429         2    ;  uncertainty k = 0.559085
         5         6         7         8     9        0.000000       -0.681548         3    ;  uncertainty k = 0.462574
         5         6         7         8     9      180.000000        0.877511         4    ;  uncertainty k = 0.230677
         5         6         7        20     9        0.000000        0.590626         1    ;  uncertainty k = 0.791457
         5         6         7        20     9      180.000000        7.935927         2    ;  uncertainty k = 0.849409
         5         6         7        20     9        0.000000        1.399647         3    ;  uncertainty k = 0.454994
         5         6         7        20     9      180.000000        1.630474         4    ;  uncertainty k = 0.237893
         5        10         9         8     9        0.000000        0.266837         1    ;  uncertainty k = 0.182196
         5        10         9         8     9      180.000000        9.011395         2    ;  uncertainty k = 0.400192
         5        10         9         8     9        0.000000        0.248008         3    ;  uncertainty k = 0.413315
         5        10         9         8     9      180.000000        1.318796         4    ;  uncertainty k = 0.306094
         5        10         9        35     9        0.000000        0.173102         1    ;  uncertainty k = 0.329279
         5        10         9        35     9      180.000000        6.780878         2    ;  uncertainty k = 0.491952
         5        10         9        35     9        0.000000        1.373063         3    ;  uncertainty k = 0.495204
         5        10         9        35     9      180.000000        1.611532         4    ;  uncertainty k = 0.104353
         5        10        11        12     9        0.000000        4.469395         1    ;  uncertainty k = 0.619014
         5        10        11        12     9      180.000000        4.836687         2    ;  uncertainty k = 0.284913
         5        10        11        12     9        0.000000        0.739446         3    ;  uncertainty k = 0.030976
         5        10        11        12     9      180.000000        0.163556         4    ;  uncertainty k = 0.084069
         6         2         1        29     9        0.000000       14.949801         1    ;  uncertainty k = 0.482006
         6         2         1        29     9      180.000000       -4.149944         2    ;  uncertainty k = 0.704426
         6         2         1        29     9        0.000000        1.006290         3    ;  uncertainty k = 0.156331
         6         2         1        29     9      180.000000        0.055711         4    ;  uncertainty k = 0.075301
         6         2         3        24     9        0.000000       -0.759433         1    ;  uncertainty k = 1.408207
         6         2         3        24     9      180.000000       -0.149623         2    ;  uncertainty k = 0.473401
         6         2         3        24     9        0.000000        1.144511         3    ;  uncertainty k = 0.345787
         6         2         3        24     9      180.000000        0.250055         4    ;  uncertainty k = 0.116728
         6         2         3        31     9        0.000000       -0.773947         1    ;  uncertainty k = 0.713823
         6         2         3        31     9      180.000000        0.212274         2    ;  uncertainty k = 0.538622
         6         2         3        31     9        0.000000        0.405134         3    ;  uncertainty k = 0.189562
         6         2         3        31     9      180.000000       -0.088244         4    ;  uncertainty k = 0.066973
         6         5         4        32     9        0.000000       -0.105612         1    ;  uncertainty k = 0.469646
         6         5         4        32     9      180.000000        1.682057         2    ;  uncertainty k = 0.348874
         6         5         4        32     9        0.000000        0.240449         3    ;  uncertainty k = 0.109768
         6         5         4        32     9      180.000000        0.241459         4    ;  uncertainty k = 0.112455
         6         5         4        33     9        0.000000       -0.105612         1    ;  uncertainty k = 0.469646
         6         5         4        33     9      180.000000        1.682057         2    ;  uncertainty k = 0.348874
         6         5         4        33     9        0.000000        0.240449         3    ;  uncertainty k = 0.109768
         6         5         4        33     9      180.000000        0.241459         4    ;  uncertainty k = 0.112455
         6         5        10         9     9        0.000000       -0.217849         1    ;  uncertainty k = 0.165792
         6         5        10         9     9      180.000000        8.206844         2    ;  uncertainty k = 0.556851
         6         5        10         9     9        0.000000       -0.452276         3    ;  uncertainty k = 0.441778
         6         5        10         9     9      180.000000        1.067140         4    ;  uncertainty k = 0.286331
         6         5        10        11     9        0.000000        0.022796         1    ;  uncertainty k = 0.236240
         6         5        10        11     9      180.000000        9.709169         2    ;  uncertainty k = 0.340060
         6         5        10        11     9        0.000000        1.391756         3    ;  uncertainty k = 0.266302
         6         5        10        11     9      180.000000        1.529837         4    ;  uncertainty k = 0.161713
         6         7         8         9     9        0.000000       -0.240911         1    ;  uncertainty k = 0.371093
         6         7         8         9     9      180.000000       10.398812         2    ;  uncertainty k = 0.597331
         6         7         8         9     9        0.000000       -0.356859         3    ;  uncertainty k = 0.485244
         6         7         8         9     9      180.000000        1.004686         4    ;  uncertainty k = 0.485442
         6         7         8        34     9        0.000000       -0.047314         1    ;  uncertainty k = 0.411159
         6         7         8        34     9      180.000000        7.380193         2    ;  uncertainty k = 0.574618
         6         7         8        34     9        0.000000        1.224466         3    ;  uncertainty k = 0.445447
         6         7         8        34     9      180.000000        1.572494         4    ;  uncertainty k = 0.054283
         6         7        20        21     9        0.000000       -2.148172         1    ;  uncertainty k = 2.509361
         6         7        20        21     9      180.000000        0.995181         2    ;  uncertainty k = 0.564991
         6         7        20        21     9        0.000000        0.384626         3    ;  uncertainty k = 0.394300
         6         7        20        21     9      180.000000        0.017383         4    ;  uncertainty k = 0.196673
         6         7        20        22     9        0.000000       -2.148172         1    ;  uncertainty k = 2.509361
         6         7        20        22     9      180.000000        0.995181         2    ;  uncertainty k = 0.564991
         6         7        20        22     9        0.000000        0.384626         3    ;  uncertainty k = 0.394300
         6         7        20        22     9      180.000000        0.017383         4    ;  uncertainty k = 0.196673
         6         7        20        23     9        0.000000        2.994986         1    ;  uncertainty k = 2.019009
         6         7        20        23     9      180.000000       -0.804360         2    ;  uncertainty k = 0.537725
         6         7        20        23     9        0.000000        0.080763         3    ;  uncertainty k = 0.494102
         6         7        20        23     9      180.000000        0.150397         4    ;  uncertainty k = 0.177811
         7         6         2        30     9        0.000000        1.665252         1    ;  uncertainty k = 0.378914
         7         6         2        30     9      180.000000        1.957638         2    ;  uncertainty k = 0.546839
         7         6         2        30     9        0.000000       -0.102826         3    ;  uncertainty k = 0.079247
         7         6         2        30     9      180.000000        0.179903         4    ;  uncertainty k = 0.175536
         7         6         5        10     9        0.000000        0.061558         1    ;  uncertainty k = 0.593598
         7         6         5        10     9      180.000000        8.323951         2    ;  uncertainty k = 0.310468
         7         6         5        10     9        0.000000        0.128615         3    ;  uncertainty k = 0.217664
         7         6         5        10     9      180.000000        1.162054         4    ;  uncertainty k = 0.273253
         7         8         9        10     9        0.000000        0.076890         1    ;  uncertainty k = 0.395040
         7         8         9        10     9      180.000000       12.182889         2    ;  uncertainty k = 0.434386
         7         8         9        10     9        0.000000       -0.846206         3    ;  uncertainty k = 0.656856
         7         8         9        10     9      180.000000        0.876156         4    ;  uncertainty k = 0.382467
         7         8         9        35     9        0.000000       -0.053369         1    ;  uncertainty k = 0.451250
         7         8         9        35     9      180.000000        8.402177         2    ;  uncertainty k = 0.207693
         7         8         9        35     9        0.000000        1.200277         3    ;  uncertainty k = 0.239213
         7         8         9        35     9      180.000000        1.711609         4    ;  uncertainty k = 0.129957
         7        20        23        26     9        0.000000        0.642526         1    ;  uncertainty k = 1.034339
         7        20        23        26     9      180.000000       -0.431306         2    ;  uncertainty k = 0.701577
         7        20        23        26     9        0.000000        0.255541         3    ;  uncertainty k = 0.239662
         7        20        23        26     9      180.000000       -0.256880         4    ;  uncertainty k = 0.124625
         7        20        23        27     9        0.000000        0.642526         1    ;  uncertainty k = 1.034339
         7        20        23        27     9      180.000000       -0.431306         2    ;  uncertainty k = 0.701577
         7        20        23        27     9        0.000000        0.255541         3    ;  uncertainty k = 0.239662
         7        20        23        27     9      180.000000       -0.256880         4    ;  uncertainty k = 0.124625
         7        20        23        28     9        0.000000        0.642526         1    ;  uncertainty k = 1.034339
         7        20        23        28     9      180.000000       -0.431306         2    ;  uncertainty k = 0.701577
         7        20        23        28     9        0.000000        0.255541         3    ;  uncertainty k = 0.239662
         7        20        23        28     9      180.000000       -0.256880         4    ;  uncertainty k = 0.124625
         8         7        20        21     9        0.000000       -1.386975         1    ;  uncertainty k = 1.246857
         8         7        20        21     9      180.000000        1.192352         2    ;  uncertainty k = 0.931391
         8         7        20        21     9        0.000000        0.173855         3    ;  uncertainty k = 0.316164
         8         7        20        21     9      180.000000        0.036812         4    ;  uncertainty k = 0.219558
         8         7        20        22     9        0.000000       -1.386975         1    ;  uncertainty k = 1.246857
         8         7        20        22     9      180.000000        1.192352         2    ;  uncertainty k = 0.931391
         8         7        20        22     9        0.000000        0.173855         3    ;  uncertainty k = 0.316164
         8         7        20        22     9      180.000000        0.036812         4    ;  uncertainty k = 0.219558
         8         7        20        23     9        0.000000        3.122028         1    ;  uncertainty k = 1.202299
         8         7        20        23     9      180.000000       -0.277486         2    ;  uncertainty k = 0.687148
         8         7        20        23     9        0.000000        0.007382         3    ;  uncertainty k = 0.647597
         8         7        20        23     9      180.000000        0.151891         4    ;  uncertainty k = 0.142780
         8         9        10        11     9        0.000000       -0.022593         1    ;  uncertainty k = 0.311011
         8         9        10        11     9      180.000000       10.948044         2    ;  uncertainty k = 0.484692
         8         9        10        11     9        0.000000        1.500427         3    ;  uncertainty k = 0.308546
         8         9        10        11     9      180.000000        1.723257         4    ;  uncertainty k = 0.261066
         9         8         7        20     9        0.000000        0.473300         1    ;  uncertainty k = 0.208265
         9         8         7        20     9      180.000000        9.041350         2    ;  uncertainty k = 0.654327
         9         8         7        20     9        0.000000        1.336655         3    ;  uncertainty k = 0.345054
         9         8         7        20     9      180.000000        1.866587         4    ;  uncertainty k = 0.174231
         9        10        11        12     9        0.000000        5.045523         1    ;  uncertainty k = 0.384572
         9        10        11        12     9      180.000000        5.529690         2    ;  uncertainty k = 0.170200
         9        10        11        12     9        0.000000        0.369300         3    ;  uncertainty k = 0.099392
         9        10        11        12     9      180.000000        0.193107         4    ;  uncertainty k = 0.085065
        10         5         4        32     9        0.000000        0.795698         1    ;  uncertainty k = 0.222619
        10         5         4        32     9      180.000000        1.623060         2    ;  uncertainty k = 0.632438
        10         5         4        32     9        0.000000        0.136966         3    ;  uncertainty k = 0.236301
        10         5         4        32     9      180.000000        0.248553         4    ;  uncertainty k = 0.128002
        10         5         4        33     9        0.000000        0.795698         1    ;  uncertainty k = 0.222619
        10         5         4        33     9      180.000000        1.623060         2    ;  uncertainty k = 0.632438
        10         5         4        33     9        0.000000        0.136966         3    ;  uncertainty k = 0.236301
        10         5         4        33     9      180.000000        0.248553         4    ;  uncertainty k = 0.128002
        10         9         8        34     9        0.000000       -0.099998         1    ;  uncertainty k = 0.360295
        10         9         8        34     9      180.000000        7.919551         2    ;  uncertainty k = 0.154470
        10         9         8        34     9        0.000000        1.049634         3    ;  uncertainty k = 0.229197
        10         9         8        34     9      180.000000        1.717981         4    ;  uncertainty k = 0.065135
        10        11        12        13     9        0.000000        4.219418         1    ;  uncertainty k = 0.366782
        10        11        12        13     9      180.000000        5.410840         2    ;  uncertainty k = 0.273316
        10        11        12        13     9        0.000000        0.430805         3    ;  uncertainty k = 0.143280
        10        11        12        13     9      180.000000        0.162492         4    ;  uncertainty k = 0.096721
        10        11        12        19     9        0.000000        4.255206         1    ;  uncertainty k = 0.384598
        10        11        12        19     9      180.000000        5.665531         2    ;  uncertainty k = 0.265128
        10        11        12        19     9        0.000000        0.385932         3    ;  uncertainty k = 0.161879
        10        11        12        19     9      180.000000        0.144062         4    ;  uncertainty k = 0.119443
        11        10         9        35     9        0.000000       -0.026410         1    ;  uncertainty k = 0.160952
        11        10         9        35     9      180.000000        9.043166         2    ;  uncertainty k = 0.351743
        11        10         9        35     9        0.000000        0.849269         3    ;  uncertainty k = 0.234404
        11        10         9        35     9      180.000000        1.132229         4    ;  uncertainty k = 0.142261
        11        12        13        14     9        0.000000        0.110616         1    ;  uncertainty k = 0.280260
        11        12        13        14     9      180.000000       10.825049         2    ;  uncertainty k = 0.268023
        11        12        13        14     9        0.000000        1.291452         3    ;  uncertainty k = 0.181954
        11        12        13        14     9      180.000000        1.601789         4    ;  uncertainty k = 0.123424
        11        12        13        36     9        0.000000       -0.096546         1    ;  uncertainty k = 0.131039
        11        12        13        36     9      180.000000        8.372996         2    ;  uncertainty k = 0.282068
        11        12        13        36     9        0.000000        0.828749         3    ;  uncertainty k = 0.203572
        11        12        13        36     9      180.000000        1.093044         4    ;  uncertainty k = 0.104496
        11        12        19        17     9        0.000000       -0.066703         1    ;  uncertainty k = 0.256317
        11        12        19        17     9      180.000000       11.317502         2    ;  uncertainty k = 0.454829
        11        12        19        17     9        0.000000        1.188762         3    ;  uncertainty k = 0.073630
        11        12        19        17     9      180.000000        1.617869         4    ;  uncertainty k = 0.138905
        11        12        19        38     9        0.000000        0.114391         1    ;  uncertainty k = 0.181010
        11        12        19        38     9      180.000000        8.496717         2    ;  uncertainty k = 0.306846
        11        12        19        38     9        0.000000        0.848986         3    ;  uncertainty k = 0.295991
        11        12        19        38     9      180.000000        1.147922         4    ;  uncertainty k = 0.169207
        12        13        14        15     9        0.000000        0.029267         1    ;  uncertainty k = 0.076351
        12        13        14        15     9      180.000000       12.681220         2    ;  uncertainty k = 0.591249
        12        13        14        15     9        0.000000        1.486062         3    ;  uncertainty k = 0.376399
        12        13        14        15     9      180.000000        1.475435         4    ;  uncertainty k = 0.279101
        12        13        14        16     9        0.000000       -0.041312         1    ;  uncertainty k = 0.166168
        12        13        14        16     9      180.000000        8.711743         2    ;  uncertainty k = 0.535595
        12        13        14        16     9        0.000000        0.058226         3    ;  uncertainty k = 0.483440
        12        13        14        16     9      180.000000        1.296510         4    ;  uncertainty k = 0.287570
        12        19        17        16     9        0.000000       -0.126135         1    ;  uncertainty k = 0.335758
        12        19        17        16     9      180.000000       11.543728         2    ;  uncertainty k = 0.211528
        12        19        17        16     9        0.000000       -0.409273         3    ;  uncertainty k = 0.525587
        12        19        17        16     9      180.000000        1.114605         4    ;  uncertainty k = 0.265123
        12        19        17        18     9        0.000000        0.008933         1    ;  uncertainty k = 0.224406
        12        19        17        18     9      180.000000       10.110912         2    ;  uncertainty k = 0.333390
        12        19        17        18     9        0.000000        1.306913         3    ;  uncertainty k = 0.264685
        12        19        17        18     9      180.000000        1.637563         4    ;  uncertainty k = 0.199965
        13        12        19        17     9        0.000000       -0.051322         1    ;  uncertainty k = 0.175220
        13        12        19        17     9      180.000000        9.609478         2    ;  uncertainty k = 0.403633
        13        12        19        17     9        0.000000        0.176055         3    ;  uncertainty k = 0.389800
        13        12        19        17     9      180.000000        1.259071         4    ;  uncertainty k = 0.358591
        13        12        19        38     9        0.000000        0.319861         1    ;  uncertainty k = 0.231991
        13        12        19        38     9      180.000000        6.318270         2    ;  uncertainty k = 0.750341
        13        12        19        38     9        0.000000        1.465273         3    ;  uncertainty k = 0.273057
        13        12        19        38     9      180.000000        1.603175         4    ;  uncertainty k = 0.165843
        13        14        16        17     9        0.000000       -0.019167         1    ;  uncertainty k = 0.236218
        13        14        16        17     9      180.000000        9.329732         2    ;  uncertainty k = 0.304985
        13        14        16        17     9        0.000000        0.099008         3    ;  uncertainty k = 0.304607
        13        14        16        17     9      180.000000        1.274852         4    ;  uncertainty k = 0.274241
        13        14        16        37     9        0.000000       -0.000593         1    ;  uncertainty k = 0.199602
        13        14        16        37     9      180.000000        5.887325         2    ;  uncertainty k = 0.750109
        13        14        16        37     9        0.000000        1.321078         3    ;  uncertainty k = 0.278410
        13        14        16        37     9      180.000000        1.516102         4    ;  uncertainty k = 0.088176
        14        13        12        19     9        0.000000        0.083575         1    ;  uncertainty k = 0.184356
        14        13        12        19     9      180.000000        9.069038         2    ;  uncertainty k = 0.673942
        14        13        12        19     9        0.000000        0.004877         3    ;  uncertainty k = 0.505260
        14        13        12        19     9      180.000000        1.219759         4    ;  uncertainty k = 0.386904
        14        16        17        18     9        0.000000        0.042737         1    ;  uncertainty k = 0.291483
        14        16        17        18     9      180.000000        9.815526         2    ;  uncertainty k = 0.311825
        14        16        17        18     9        0.000000        1.325513         3    ;  uncertainty k = 0.249458
        14        16        17        18     9      180.000000        1.659796         4    ;  uncertainty k = 0.165102
        14        16        17        19     9        0.000000       -0.093634         1    ;  uncertainty k = 0.287446
        14        16        17        19     9      180.000000       11.524169         2    ;  uncertainty k = 0.474663
        14        16        17        19     9        0.000000       -0.540684         3    ;  uncertainty k = 0.386751
        14        16        17        19     9      180.000000        1.065656         4    ;  uncertainty k = 0.270989
        15        14        13        36     9        0.000000       -0.266165         1    ;  uncertainty k = 0.229666
        15        14        13        36     9      180.000000        8.750384         2    ;  uncertainty k = 0.391886
        15        14        13        36     9        0.000000        0.839204         3    ;  uncertainty k = 0.231015
        15        14        13        36     9      180.000000        1.056841         4    ;  uncertainty k = 0.208951
        15        14        16        17     9        0.000000       -0.039623         1    ;  uncertainty k = 0.207167
        15        14        16        17     9      180.000000       13.467148         2    ;  uncertainty k = 0.458195
        15        14        16        17     9        0.000000        1.330325         3    ;  uncertainty k = 0.272641
        15        14        16        17     9      180.000000        1.408183         4    ;  uncertainty k = 0.220523
        15        14        16        37     9        0.000000       -0.317019         1    ;  uncertainty k = 0.306342
        15        14        16        37     9      180.000000        8.994255         2    ;  uncertainty k = 0.352455
        15        14        16        37     9        0.000000        0.799840         3    ;  uncertainty k = 0.209801
        15        14        16        37     9      180.000000        1.001169         4    ;  uncertainty k = 0.172439
        16        14        13        36     9        0.000000        0.117728         1    ;  uncertainty k = 0.152876
        16        14        13        36     9      180.000000        5.739162         2    ;  uncertainty k = 0.725581
        16        14        13        36     9        0.000000        1.354805         3    ;  uncertainty k = 0.319905
        16        14        13        36     9      180.000000        1.531360         4    ;  uncertainty k = 0.102992
        16        17        18        25     9        0.000000        0.000000         1    ;  uncertainty k = 0.000000
        16        17        18        25     9      180.000000        0.000000         2    ;  uncertainty k = 0.000000
        16        17        18        25     9        0.000000        0.000000         3    ;  uncertainty k = 0.000000
        16        17        18        25     9      180.000000        0.000000         4    ;  uncertainty k = 0.000000
        16        17        19        38     9        0.000000        0.266901         1    ;  uncertainty k = 0.392933
        16        17        19        38     9      180.000000        6.702181         2    ;  uncertainty k = 0.686766
        16        17        19        38     9        0.000000        1.492380         3    ;  uncertainty k = 0.274536
        16        17        19        38     9      180.000000        1.680830         4    ;  uncertainty k = 0.134103
        18        17        16        37     9        0.000000       -0.401280         1    ;  uncertainty k = 0.467937
        18        17        16        37     9      180.000000        7.099068         2    ;  uncertainty k = 0.224071
        18        17        16        37     9        0.000000        0.520905         3    ;  uncertainty k = 0.112594
        18        17        16        37     9      180.000000        0.955860         4    ;  uncertainty k = 0.230500
        18        17        19        38     9        0.000000       -0.303371         1    ;  uncertainty k = 0.311612
        18        17        19        38     9      180.000000        7.433399         2    ;  uncertainty k = 0.295932
        18        17        19        38     9        0.000000        0.543142         3    ;  uncertainty k = 0.139134
        18        17        19        38     9      180.000000        0.967541         4    ;  uncertainty k = 0.213771
        19        12        13        36     9        0.000000        0.238077         1    ;  uncertainty k = 0.231773
        19        12        13        36     9      180.000000        5.993858         2    ;  uncertainty k = 0.765201
        19        12        13        36     9        0.000000        1.476771         3    ;  uncertainty k = 0.368309
        19        12        13        36     9      180.000000        1.569369         4    ;  uncertainty k = 0.131184
        19        17        16        37     9        0.000000        0.157284         1    ;  uncertainty k = 0.536677
        19        17        16        37     9      180.000000        6.651379         2    ;  uncertainty k = 0.604357
        19        17        16        37     9        0.000000        1.457227         3    ;  uncertainty k = 0.366961
        19        17        16        37     9      180.000000        1.599688         4    ;  uncertainty k = 0.107457
        19        17        18        25     9        0.000000        0.000000         1    ;  uncertainty k = 0.000000
        19        17        18        25     9      180.000000        0.000000         2    ;  uncertainty k = 0.000000
        19        17        18        25     9        0.000000        0.000000         3    ;  uncertainty k = 0.000000
        19        17        18        25     9      180.000000        0.000000         4    ;  uncertainty k = 0.000000
        20         7         8        34     9        0.000000       -0.274647         1    ;  uncertainty k = 0.399618
        20         7         8        34     9      180.000000        6.638330         2    ;  uncertainty k = 0.431754
        20         7         8        34     9        0.000000        0.821667         3    ;  uncertainty k = 0.190439
        20         7         8        34     9      180.000000        1.186164         4    ;  uncertainty k = 0.138623
        21        20        23        26     9        0.000000        1.240387         1    ;  uncertainty k = 0.704630
        21        20        23        26     9      180.000000       -0.465947         2    ;  uncertainty k = 0.475076
        21        20        23        26     9        0.000000        0.429513         3    ;  uncertainty k = 0.131938
        21        20        23        26     9      180.000000       -0.011191         4    ;  uncertainty k = 0.163591
        21        20        23        27     9        0.000000        1.240387         1    ;  uncertainty k = 0.704630
        21        20        23        27     9      180.000000       -0.465947         2    ;  uncertainty k = 0.475076
        21        20        23        27     9        0.000000        0.429513         3    ;  uncertainty k = 0.131938
        21        20        23        27     9      180.000000       -0.011191         4    ;  uncertainty k = 0.163591
        21        20        23        28     9        0.000000        1.240387         1    ;  uncertainty k = 0.704630
        21        20        23        28     9      180.000000       -0.465947         2    ;  uncertainty k = 0.475076
        21        20        23        28     9        0.000000        0.429513         3    ;  uncertainty k = 0.131938
        21        20        23        28     9      180.000000       -0.011191         4    ;  uncertainty k = 0.163591
        22        20        23        26     9        0.000000        1.240387         1    ;  uncertainty k = 0.704630
        22        20        23        26     9      180.000000       -0.465947         2    ;  uncertainty k = 0.475076
        22        20        23        26     9        0.000000        0.429513         3    ;  uncertainty k = 0.131938
        22        20        23        26     9      180.000000       -0.011191         4    ;  uncertainty k = 0.163591
        22        20        23        27     9        0.000000        1.240387         1    ;  uncertainty k = 0.704630
        22        20        23        27     9      180.000000       -0.465947         2    ;  uncertainty k = 0.475076
        22        20        23        27     9        0.000000        0.429513         3    ;  uncertainty k = 0.131938
        22        20        23        27     9      180.000000       -0.011191         4    ;  uncertainty k = 0.163591
        22        20        23        28     9        0.000000        1.240387         1    ;  uncertainty k = 0.704630
        22        20        23        28     9      180.000000       -0.465947         2    ;  uncertainty k = 0.475076
        22        20        23        28     9        0.000000        0.429513         3    ;  uncertainty k = 0.131938
        22        20        23        28     9      180.000000       -0.011191         4    ;  uncertainty k = 0.163591
        24         3         2        30     9        0.000000        0.701498         1    ;  uncertainty k = 0.252066
        24         3         2        30     9      180.000000       -0.807777         2    ;  uncertainty k = 0.331398
        24         3         2        30     9        0.000000        1.028713         3    ;  uncertainty k = 0.325617
        24         3         2        30     9      180.000000        0.063024         4    ;  uncertainty k = 0.119089
        24         3         4        32     9        0.000000        0.451072         1    ;  uncertainty k = 0.346765
        24         3         4        32     9      180.000000       -0.884484         2    ;  uncertainty k = 0.130277
        24         3         4        32     9        0.000000        1.105221         3    ;  uncertainty k = 0.218871
        24         3         4        32     9      180.000000        0.049821         4    ;  uncertainty k = 0.074363
        24         3         4        33     9        0.000000        0.451072         1    ;  uncertainty k = 0.346765
        24         3         4        33     9      180.000000       -0.884484         2    ;  uncertainty k = 0.130277
        24         3         4        33     9        0.000000        1.105221         3    ;  uncertainty k = 0.218871
        24         3         4        33     9      180.000000        0.049821         4    ;  uncertainty k = 0.074363
        29         1         2        30     9        0.000000       11.927810         1    ;  uncertainty k = 0.532733
        29         1         2        30     9      180.000000       -1.099850         2    ;  uncertainty k = 0.384523
        29         1         2        30     9        0.000000        0.867228         3    ;  uncertainty k = 0.154010
        29         1         2        30     9      180.000000        0.194787         4    ;  uncertainty k = 0.107424
        30         2         3        31     9        0.000000        0.024997         1    ;  uncertainty k = 0.308316
        30         2         3        31     9      180.000000       -0.736805         2    ;  uncertainty k = 0.186145
        30         2         3        31     9        0.000000        0.622597         3    ;  uncertainty k = 0.209883
        30         2         3        31     9      180.000000        0.117455         4    ;  uncertainty k = 0.103922
        31         3         4        32     9        0.000000        0.458668         1    ;  uncertainty k = 0.285925
        31         3         4        32     9      180.000000       -0.388433         2    ;  uncertainty k = 0.131941
        31         3         4        32     9        0.000000        0.754937         3    ;  uncertainty k = 0.065526
        31         3         4        32     9      180.000000        0.118381         4    ;  uncertainty k = 0.064119
        31         3         4        33     9        0.000000        0.458668         1    ;  uncertainty k = 0.285925
        31         3         4        33     9      180.000000       -0.388433         2    ;  uncertainty k = 0.131941
        31         3         4        33     9        0.000000        0.754937         3    ;  uncertainty k = 0.065526
        31         3         4        33     9      180.000000        0.118381         4    ;  uncertainty k = 0.064119
        34         8         9        35     9        0.000000       -0.165486         1    ;  uncertainty k = 0.419786
        34         8         9        35     9      180.000000        7.643531         2    ;  uncertainty k = 0.379022
        34         8         9        35     9        0.000000       -0.326619         3    ;  uncertainty k = 0.321270
        34         8         9        35     9      180.000000        0.277569         4    ;  uncertainty k = 0.115780

[ dihedrals ] ; impropers
;       ai        aj        ak        al funct           phase               k        pn
         5         4         6        10     4      180.000000        5.304962         2    ;  uncertainty k = 0.406749
         5         6        10         4     4      180.000000        5.304962         2    ;  uncertainty k = 0.406749
         5        10         4         6     4      180.000000        5.304962         2    ;  uncertainty k = 0.406749
         6         2         5         7     4      180.000000        6.360772         2    ;  uncertainty k = 0.273482
         6         5         7         2     4      180.000000        6.360772         2    ;  uncertainty k = 0.273482
         6         7         2         5     4      180.000000        6.360772         2    ;  uncertainty k = 0.273482
         7         6         8        20     4      180.000000        5.033028         2    ;  uncertainty k = 0.444116
         7         8        20         6     4      180.000000        5.033028         2    ;  uncertainty k = 0.444116
         7        20         6         8     4      180.000000        5.033028         2    ;  uncertainty k = 0.444116
         8         7         9        34     4      180.000000        5.366386         2    ;  uncertainty k = 0.241082
         8         9        34         7     4      180.000000        5.366386         2    ;  uncertainty k = 0.241082
         8        34         7         9     4      180.000000        5.366386         2    ;  uncertainty k = 0.241082
         9         8        10        35     4      180.000000        2.047046         2    ;  uncertainty k = 0.131131
         9        10        35         8     4      180.000000        2.047046         2    ;  uncertainty k = 0.131131
         9        35         8        10     4      180.000000        2.047046         2    ;  uncertainty k = 0.131131
        10         5         9        11     4      180.000000       17.356054         2    ;  uncertainty k = 0.102878
        10         9        11         5     4      180.000000       17.356054         2    ;  uncertainty k = 0.102878
        10        11         5         9     4      180.000000       17.356054         2    ;  uncertainty k = 0.102878
        12        11        13        19     4      180.000000       19.053422         2    ;  uncertainty k = 0.038066
        12        13        19        11     4      180.000000       19.053422         2    ;  uncertainty k = 0.038066
        12        19        11        13     4      180.000000       19.053422         2    ;  uncertainty k = 0.038066
        13        12        14        36     4      180.000000        1.848818         2    ;  uncertainty k = 0.255047
        13        14        36        12     4      180.000000        1.848818         2    ;  uncertainty k = 0.255047
        13        36        12        14     4      180.000000        1.848818         2    ;  uncertainty k = 0.255047
        14        13        15        16     4      180.000000       17.880537         2    ;  uncertainty k = 0.047509
        14        15        16        13     4      180.000000       17.880537         2    ;  uncertainty k = 0.047509
        14        16        13        15     4      180.000000       17.880537         2    ;  uncertainty k = 0.047509
        16        14        17        37     4      180.000000        2.461655         2    ;  uncertainty k = 0.340230
        16        17        37        14     4      180.000000        2.461655         2    ;  uncertainty k = 0.340230
        16        37        14        17     4      180.000000        2.461655         2    ;  uncertainty k = 0.340230
        17        16        18        19     4      180.000000       11.727372         2    ;  uncertainty k = 0.187314
        17        18        19        16     4      180.000000       11.727372         2    ;  uncertainty k = 0.187314
        17        19        16        18     4      180.000000       11.727372         2    ;  uncertainty k = 0.187314
        19        12        17        38     4      180.000000        2.852757         2    ;  uncertainty k = 0.269075
        19        17        38        12     4      180.000000        2.852757         2    ;  uncertainty k = 0.269075
        19        38        12        17     4      180.000000        2.852757         2    ;  uncertainty k = 0.269075

[ pairs ]
;       ai        aj funct
         1         4     1
         1         5     1
         1         7     1
         1        24     1
         1        31     1
         2         8     1
         2        10     1
         2        20     1
         2        32     1
         2        33     1
         3         7     1
         3        10     1
         3        29     1
         4         7     1
         4         9     1
         4        11     1
         4        30     1
         5         8     1
         5        12     1
         5        20     1
         5        24     1
         5        30     1
         5        31     1
         5        35     1
         6         9     1
         6        11     1
         6        21     1
         6        22     1
         6        23     1
         6        24     1
         6        29     1
         6        31     1
         6        32     1
         6        33     1
         6        34     1
         7        10     1
         7        26     1
         7        27     1
         7        28     1
         7        30     1
         7        35     1
         8        11     1
         8        21     1
         8        22     1
         8        23     1
         9        12     1
         9        20     1
        10        13     1
        10        19     1
        10        32     1
        10        33     1
        10        34     1
        11        14     1
        11        17     1
        11        35     1
        11        36     1
        11        38     1
        12        15     1
        12        16     1
        12        18     1
        13        17     1
        13        37     1
        13        38     1
        14        18     1
        14        19     1
        15        17     1
        15        36     1
        15        37     1
        16        25     1
        16        36     1
        16        38     1
        18        37     1
        18        38     1
        19        25     1
        19        36     1
        19        37     1
        20        34     1
        21        26     1
        21        27     1
        21        28     1
        22        26     1
        22        27     1
        22        28     1
        24        30     1
        24        32     1
        24        33     1
        29        30     1
        30        31     1
        31        32     1
        31        33     1
        34        35     1
