; ITP file created by ByteFF-joint-25, 2026-02-17 09:19:26.058802

[ atomtypes ]
;name           bonded.type        at.num        mass        charge   ptype           sigma         epsilon
 o0bf                                   8      0.0000       0.00000       A     3.24327e-01     3.88996e-01    ;  uncertainty sigma = 0.000020, epsilon = 0.001434
 c1bf                                   6      0.0000       0.00000       A     3.39701e-01     4.51121e-01    ;  uncertainty sigma = 0.000022, epsilon = 0.001306
 c2bf                                   6      0.0000       0.00000       A     3.39754e-01     4.50572e-01    ;  uncertainty sigma = 0.000009, epsilon = 0.000960
 c3bf                                   6      0.0000       0.00000       A     3.39763e-01     4.50696e-01    ;  uncertainty sigma = 0.000017, epsilon = 0.000751
 c4bf                                   6      0.0000       0.00000       A     3.31540e-01     4.13592e-01    ;  uncertainty sigma = 0.000006, epsilon = 0.000983
 c5bf                                   6      0.0000       0.00000       A     3.31567e-01     4.12748e-01    ;  uncertainty sigma = 0.000025, epsilon = 0.001053
 c6bf                                   6      0.0000       0.00000       A     3.31546e-01     4.12878e-01    ;  uncertainty sigma = 0.000021, epsilon = 0.001985
 c7bf                                   6      0.0000       0.00000       A     3.31488e-01     4.13281e-01    ;  uncertainty sigma = 0.000016, epsilon = 0.000289
 c8bf                                   6      0.0000       0.00000       A     3.31528e-01     4.13628e-01    ;  uncertainty sigma = 0.000009, epsilon = 0.000546
 c9bf                                   6      0.0000       0.00000       A     3.31531e-01     4.13175e-01    ;  uncertainty sigma = 0.000015, epsilon = 0.000584
 o10bf                                  8      0.0000       0.00000       A     3.15544e-01     3.01948e-01    ;  uncertainty sigma = 0.000035, epsilon = 0.001551
 c11bf                                  6      0.0000       0.00000       A     3.31511e-01     4.13571e-01    ;  uncertainty sigma = 0.000010, epsilon = 0.000767
 c12bf                                  6      0.0000       0.00000       A     3.31518e-01     4.13730e-01    ;  uncertainty sigma = 0.000004, epsilon = 0.000811
 c13bf                                  6      0.0000       0.00000       A     3.31509e-01     4.13333e-01    ;  uncertainty sigma = 0.000007, epsilon = 0.000387
 f14bf                                  9      0.0000       0.00000       A     3.03415e-01     3.47926e-01    ;  uncertainty sigma = 0.000006, epsilon = 0.000734
 c15bf                                  6      0.0000       0.00000       A     3.31525e-01     4.13682e-01    ;  uncertainty sigma = 0.000009, epsilon = 0.000681
 c16bf                                  6      0.0000       0.00000       A     3.31509e-01     4.13333e-01    ;  uncertainty sigma = 0.000007, epsilon = 0.000387
 f17bf                                  9      0.0000       0.00000       A     3.03415e-01     3.47927e-01    ;  uncertainty sigma = 0.000006, epsilon = 0.000734
 c18bf                                  6      0.0000       0.00000       A     3.31518e-01     4.13730e-01    ;  uncertainty sigma = 0.000004, epsilon = 0.000811
 s19bf                                 16      0.0000       0.00000       A     4.05952e-01     2.57052e-01    ;  uncertainty sigma = 0.000036, epsilon = 0.005064
 o20bf                                  8      0.0000       0.00000       A     3.04753e-01     6.10946e-01    ;  uncertainty sigma = 0.000057, epsilon = 0.002055
 o21bf                                  8      0.0000       0.00000       A     3.04753e-01     6.10946e-01    ;  uncertainty sigma = 0.000057, epsilon = 0.002055
 c22bf                                  6      0.0000       0.00000       A     3.39859e-01     4.51367e-01    ;  uncertainty sigma = 0.000048, epsilon = 0.003815
 f23bf                                  9      0.0000       0.00000       A     3.03556e-01     3.47331e-01    ;  uncertainty sigma = 0.000038, epsilon = 0.002391
 f24bf                                  9      0.0000       0.00000       A     3.03556e-01     3.47331e-01    ;  uncertainty sigma = 0.000038, epsilon = 0.002391
 o25bf                                  8      0.0000       0.00000       A     3.24326e-01     3.89314e-01    ;  uncertainty sigma = 0.000038, epsilon = 0.000706
 h26bf                                  1      0.0000       0.00000       A     5.38442e-02     1.94468e-02    ;  uncertainty sigma = 0.000118, epsilon = 0.001030
 h27bf                                  1      0.0000       0.00000       A     2.42317e-01     8.63135e-02    ;  uncertainty sigma = 0.000103, epsilon = 0.001174
 h28bf                                  1      0.0000       0.00000       A     2.42176e-01     8.67260e-02    ;  uncertainty sigma = 0.000095, epsilon = 0.001440
 h29bf                                  1      0.0000       0.00000       A     2.60019e-01     8.67271e-02    ;  uncertainty sigma = 0.000014, epsilon = 0.000529
 h30bf                                  1      0.0000       0.00000       A     2.60019e-01     8.67271e-02    ;  uncertainty sigma = 0.000014, epsilon = 0.000529
 h31bf                                  1      0.0000       0.00000       A     2.62567e-01     6.72430e-02    ;  uncertainty sigma = 0.000020, epsilon = 0.000765
 h32bf                                  1      0.0000       0.00000       A     2.62556e-01     6.70855e-02    ;  uncertainty sigma = 0.000006, epsilon = 0.000381
 h33bf                                  1      0.0000       0.00000       A     2.62552e-01     6.72491e-02    ;  uncertainty sigma = 0.000007, epsilon = 0.000350
 h34bf                                  1      0.0000       0.00000       A     2.62567e-01     6.73686e-02    ;  uncertainty sigma = 0.000010, epsilon = 0.000382
 h35bf                                  1      0.0000       0.00000       A     2.62552e-01     6.72491e-02    ;  uncertainty sigma = 0.000007, epsilon = 0.000350
 h36bf                                  1      0.0000       0.00000       A     2.06486e-01     8.66134e-02    ;  uncertainty sigma = 0.000324, epsilon = 0.003096
 h37bf                                  1      0.0000       0.00000       A     5.38074e-02     1.93308e-02    ;  uncertainty sigma = 0.000108, epsilon = 0.000743

[ moleculetype ]
;name             nrexcl
 MOL                   3

[ atoms ]
;       nr            type      resi   res      atom      cgnr      charge          mass ; qtot
         1            o0bf         1   UNL        o0         1    -0.59050       15.9990 ; qtot   -0.591
         2            c1bf         1   UNL        c1         2     0.16661       12.0110 ; qtot   -0.424
         3            c2bf         1   UNL        c2         3     0.12623       12.0110 ; qtot   -0.298
         4            c3bf         1   UNL        c3         4    -0.04470       12.0110 ; qtot   -0.342
         5            c4bf         1   UNL        c4         5    -0.09853       12.0110 ; qtot   -0.441
         6            c5bf         1   UNL        c5         6     0.01254       12.0110 ; qtot   -0.428
         7            c6bf         1   UNL        c6         7    -0.22388       12.0110 ; qtot   -0.652
         8            c7bf         1   UNL        c7         8    -0.00108       12.0110 ; qtot   -0.653
         9            c8bf         1   UNL        c8         9    -0.17781       12.0110 ; qtot   -0.831
        10            c9bf         1   UNL        c9        10     0.15834       12.0110 ; qtot   -0.673
        11           o10bf         1   UNL       o10        11    -0.24872       15.9990 ; qtot   -0.921
        12           c11bf         1   UNL       c11        12     0.17398       12.0110 ; qtot   -0.748
        13           c12bf         1   UNL       c12        13    -0.21553       12.0110 ; qtot   -0.963
        14           c13bf         1   UNL       c13        14     0.18115       12.0110 ; qtot   -0.782
        15           f14bf         1   UNL       f14        15    -0.13434       18.9980 ; qtot   -0.916
        16           c15bf         1   UNL       c15        16    -0.22603       12.0110 ; qtot   -1.142
        17           c16bf         1   UNL       c16        17     0.18115       12.0110 ; qtot   -0.961
        18           f17bf         1   UNL       f17        18    -0.13434       18.9980 ; qtot   -1.095
        19           c18bf         1   UNL       c18        19    -0.21553       12.0110 ; qtot   -1.311
        20           s19bf         1   UNL       s19        20     0.95070       32.0670 ; qtot   -0.360
        21           o20bf         1   UNL       o20        21    -0.54108       15.9990 ; qtot   -0.901
        22           o21bf         1   UNL       o21        22    -0.54108       15.9990 ; qtot   -1.442
        23           c22bf         1   UNL       c22        23     0.39889       12.0110 ; qtot   -1.044
        24           f23bf         1   UNL       f23        24    -0.20936       18.9980 ; qtot   -1.253
        25           f24bf         1   UNL       f24        25    -0.20936       18.9980 ; qtot   -1.462
        26           o25bf         1   UNL       o25        26    -0.59654       15.9990 ; qtot   -2.059
        27           h26bf         1   UNL       h26        27     0.41492        1.0080 ; qtot   -1.644
        28           h27bf         1   UNL       h27        28     0.08026        1.0080 ; qtot   -1.564
        29           h28bf         1   UNL       h28        29     0.06117        1.0080 ; qtot   -1.502
        30           h29bf         1   UNL       h29        30     0.07296        1.0080 ; qtot   -1.430
        31           h30bf         1   UNL       h30        31     0.07296        1.0080 ; qtot   -1.357
        32           h31bf         1   UNL       h31        32     0.16754        1.0080 ; qtot   -1.189
        33           h32bf         1   UNL       h32        33     0.15782        1.0080 ; qtot   -1.031
        34           h33bf         1   UNL       h33        34     0.17232        1.0080 ; qtot   -0.859
        35           h34bf         1   UNL       h34        35     0.17302        1.0080 ; qtot   -0.686
        36           h35bf         1   UNL       h35        36     0.17232        1.0080 ; qtot   -0.514
        37           h36bf         1   UNL       h36        37     0.09955        1.0080 ; qtot   -0.414
        38           h37bf         1   UNL       h37        38     0.41398        1.0080 ; qtot    0.000

[ bonds ]
;       ai        aj funct               r               k
         1         2     1        0.142517   251131.652686    ;  uncertainty r = 0.000218, k = 12.109640
         1        27     1        0.097128   461878.767383    ;  uncertainty r = 0.000048, k = 4.168675
         2         3     1        0.154907   186647.948877    ;  uncertainty r = 0.000175, k = 11.850109
         2         6     1        0.151830   241045.490430    ;  uncertainty r = 0.000067, k = 30.139784
         2        28     1        0.109509   304889.055518    ;  uncertainty r = 0.000057, k = 2.270575
         3         4     1        0.154648   212201.389233    ;  uncertainty r = 0.000116, k = 14.902376
         3        26     1        0.142188   250881.874219    ;  uncertainty r = 0.000108, k = 4.806614
         3        29     1        0.109553   304194.420605    ;  uncertainty r = 0.000068, k = 3.241931
         4         5     1        0.151146   251727.535596    ;  uncertainty r = 0.000107, k = 16.386010
         4        30     1        0.109568   308684.993604    ;  uncertainty r = 0.000015, k = 1.251944
         4        31     1        0.109568   308684.993604    ;  uncertainty r = 0.000015, k = 1.251944
         5         6     1        0.139581   360415.311768    ;  uncertainty r = 0.000074, k = 19.804497
         5        10     1        0.138886   352884.111768    ;  uncertainty r = 0.000114, k = 4.292026
         6         7     1        0.139454   334636.238281    ;  uncertainty r = 0.000151, k = 10.577888
         7         8     1        0.139273   347296.439014    ;  uncertainty r = 0.000187, k = 4.994304
         7        20     1        0.177648   133812.729370    ;  uncertainty r = 0.000106, k = 15.762860
         8         9     1        0.139047   365888.144141    ;  uncertainty r = 0.000089, k = 4.428435
         8        32     1        0.108451   328724.754980    ;  uncertainty r = 0.000029, k = 1.039879
         9        10     1        0.139732   353114.890625    ;  uncertainty r = 0.000048, k = 5.618242
         9        33     1        0.108753   336163.893701    ;  uncertainty r = 0.000031, k = 1.172871
        10        11     1        0.138577   316715.954834    ;  uncertainty r = 0.000135, k = 10.454401
        11        12     1        0.137463   318925.731982    ;  uncertainty r = 0.000071, k = 4.610372
        12        13     1        0.139530   359247.474219    ;  uncertainty r = 0.000036, k = 2.166069
        12        19     1        0.139530   359247.525293    ;  uncertainty r = 0.000036, k = 2.166043
        13        14     1        0.138947   361555.364941    ;  uncertainty r = 0.000040, k = 2.077232
        13        34     1        0.108788   339427.663965    ;  uncertainty r = 0.000020, k = 1.308496
        14        15     1        0.135169   340532.475928    ;  uncertainty r = 0.000051, k = 1.928135
        14        16     1        0.139095   364995.009277    ;  uncertainty r = 0.000024, k = 1.685249
        16        17     1        0.139095   364995.009277    ;  uncertainty r = 0.000024, k = 1.685270
        16        35     1        0.108736   339313.002344    ;  uncertainty r = 0.000017, k = 0.790660
        17        18     1        0.135169   340532.475928    ;  uncertainty r = 0.000051, k = 1.928140
        17        19     1        0.138947   361555.416016    ;  uncertainty r = 0.000040, k = 2.077265
        19        36     1        0.108788   339427.638428    ;  uncertainty r = 0.000020, k = 1.308504
        20        21     1        0.146996   488142.509668    ;  uncertainty r = 0.000109, k = 11.850675
        20        22     1        0.146996   488142.509668    ;  uncertainty r = 0.000109, k = 11.850675
        20        23     1        0.186536   142705.031763    ;  uncertainty r = 0.000116, k = 23.071414
        23        24     1        0.134863   311074.398779    ;  uncertainty r = 0.000139, k = 4.314222
        23        25     1        0.134863   311074.398779    ;  uncertainty r = 0.000139, k = 4.314222
        23        37     1        0.109695   322431.670654    ;  uncertainty r = 0.000162, k = 6.852620
        26        38     1        0.097134   463416.918555    ;  uncertainty r = 0.000049, k = 4.963790

[ angles ]
;       ai        aj        ak funct           theta             cth
         1         2         3     1      109.778763      664.091572    ;  uncertainty theta = 0.002407, k = 0.137048
         1         2         6     1      112.174332      672.153190    ;  uncertainty theta = 0.006561, k = 0.152383
         1         2        28     1      107.462219      445.736709    ;  uncertainty theta = 0.006253, k = 0.123125
         2         1        27     1      107.849442      458.276707    ;  uncertainty theta = 0.002767, k = 0.147059
         2         3         4     1      107.558701      688.195538    ;  uncertainty theta = 0.003202, k = 0.128433
         2         3        26     1      110.277176      649.068984    ;  uncertainty theta = 0.002463, k = 0.190733
         2         3        29     1      107.899742      385.369632    ;  uncertainty theta = 0.002646, k = 0.078633
         2         6         5     1      115.396957      498.439494    ;  uncertainty theta = 0.004077, k = 0.178244
         2         6         7     1      125.196312      355.403335    ;  uncertainty theta = 0.004095, k = 0.121156
         3         2         6     1      105.351379      708.322037    ;  uncertainty theta = 0.004739, k = 0.299543
         3         2        28     1      108.857498      385.625865    ;  uncertainty theta = 0.004027, k = 0.096566
         3         4         5     1      104.419411      709.063762    ;  uncertainty theta = 0.001825, k = 0.143562
         3         4        30     1      108.551720      396.719441    ;  uncertainty theta = 0.001499, k = 0.048607
         3         4        31     1      108.551720      396.719441    ;  uncertainty theta = 0.001499, k = 0.048607
         3        26        38     1      107.456665      475.848026    ;  uncertainty theta = 0.002059, k = 0.135056
         4         3        26     1      111.515457      677.898529    ;  uncertainty theta = 0.002165, k = 0.157208
         4         3        29     1      109.752831      392.730449    ;  uncertainty theta = 0.002616, k = 0.081299
         4         5         6     1      115.178940      528.571591    ;  uncertainty theta = 0.005751, k = 0.173190
         4         5        10     1      126.744675      383.545070    ;  uncertainty theta = 0.004605, k = 0.133781
         5         4        30     1      109.979126      391.017068    ;  uncertainty theta = 0.002016, k = 0.129055
         5         4        31     1      109.979126      391.017068    ;  uncertainty theta = 0.002016, k = 0.129055
         5         6         7     1      121.206581      427.087118    ;  uncertainty theta = 0.005385, k = 0.154897
         5        10         9     1      120.503441      382.222918    ;  uncertainty theta = 0.003756, k = 0.233888
         5        10        11     1      118.033813      405.826613    ;  uncertainty theta = 0.008386, k = 0.382690
         6         2        28     1      109.083176      382.303360    ;  uncertainty theta = 0.003947, k = 0.159948
         6         5        10     1      119.321457      420.121967    ;  uncertainty theta = 0.001526, k = 0.102442
         6         7         8     1      123.375595      443.428825    ;  uncertainty theta = 0.005861, k = 0.201830
         6         7        20     1      116.868698      336.835271    ;  uncertainty theta = 0.009918, k = 0.349281
         7         8         9     1      121.438210      489.952842    ;  uncertainty theta = 0.005972, k = 0.104429
         7         8        32     1      118.676147      262.844944    ;  uncertainty theta = 0.003039, k = 0.114920
         7        20        21     1      115.466003      629.025354    ;  uncertainty theta = 0.008768, k = 0.075993
         7        20        22     1      115.466003      629.025354    ;  uncertainty theta = 0.008768, k = 0.075993
         7        20        23     1      104.611618      508.727916    ;  uncertainty theta = 0.007882, k = 0.331625
         8         7        20     1      115.907082      352.277210    ;  uncertainty theta = 0.009852, k = 0.207011
         8         9        10     1      119.923508      509.308949    ;  uncertainty theta = 0.002471, k = 0.041345
         8         9        33     1      120.069801      277.121241    ;  uncertainty theta = 0.001669, k = 0.045307
         9         8        32     1      120.480507      283.263427    ;  uncertainty theta = 0.002371, k = 0.063445
         9        10        11     1      120.703674      434.440880    ;  uncertainty theta = 0.002858, k = 0.211387
        10         9        33     1      120.255821      275.806304    ;  uncertainty theta = 0.002295, k = 0.070159
        10        11        12     1      112.884933      473.139305    ;  uncertainty theta = 0.002317, k = 0.133316
        11        12        13     1      119.162613      420.809235    ;  uncertainty theta = 0.003695, k = 0.065402
        11        12        19     1      119.162613      420.809235    ;  uncertainty theta = 0.003695, k = 0.065402
        12        13        14     1      116.673340      503.115370    ;  uncertainty theta = 0.002511, k = 0.145406
        12        13        34     1      121.876328      273.916270    ;  uncertainty theta = 0.002382, k = 0.081280
        12        19        17     1      116.673340      503.115434    ;  uncertainty theta = 0.002511, k = 0.145406
        12        19        36     1      121.876328      273.916302    ;  uncertainty theta = 0.002382, k = 0.081280
        13        12        19     1      122.797623      387.741647    ;  uncertainty theta = 0.004027, k = 0.167872
        13        14        15     1      118.466934      493.794836    ;  uncertainty theta = 0.001910, k = 0.039540
        13        14        16     1      124.053566      371.417528    ;  uncertainty theta = 0.005120, k = 0.173620
        14        13        34     1      121.727890      284.014346    ;  uncertainty theta = 0.001918, k = 0.032736
        14        16        17     1      115.264389      471.325404    ;  uncertainty theta = 0.002949, k = 0.194271
        14        16        35     1      122.279922      279.016095    ;  uncertainty theta = 0.002258, k = 0.062816
        15        14        16     1      118.556541      504.699182    ;  uncertainty theta = 0.002808, k = 0.033772
        16        17        18     1      118.556541      504.699182    ;  uncertainty theta = 0.002808, k = 0.033772
        16        17        19     1      124.053566      371.417497    ;  uncertainty theta = 0.005120, k = 0.173620
        17        16        35     1      122.279922      279.016095    ;  uncertainty theta = 0.002258, k = 0.062816
        17        19        36     1      121.727890      284.014346    ;  uncertainty theta = 0.001918, k = 0.032737
        18        17        19     1      118.466934      493.794804    ;  uncertainty theta = 0.001910, k = 0.039540
        20        23        24     1      105.975853      511.799615    ;  uncertainty theta = 0.002875, k = 0.156926
        20        23        25     1      105.975853      511.799615    ;  uncertainty theta = 0.002875, k = 0.156926
        20        23        37     1      112.107346      381.893489    ;  uncertainty theta = 0.010585, k = 0.201519
        21        20        22     1      125.136795      859.031267    ;  uncertainty theta = 0.002708, k = 0.070467
        21        20        23     1      107.842819      525.272867    ;  uncertainty theta = 0.005343, k = 0.249030
        22        20        23     1      107.842819      525.272867    ;  uncertainty theta = 0.005343, k = 0.249030
        24        23        25     1      109.505371      835.368900    ;  uncertainty theta = 0.003942, k = 0.097215
        24        23        37     1      112.536720      472.683372    ;  uncertainty theta = 0.005070, k = 0.120464
        25        23        37     1      112.536720      472.683372    ;  uncertainty theta = 0.005070, k = 0.120464
        26         3        29     1      107.453903      468.130360    ;  uncertainty theta = 0.002583, k = 0.142356
        30         4        31     1      104.781189      294.543583    ;  uncertainty theta = 0.000832, k = 0.062557

[ dihedrals ] ; propers for gromacs 4.5 or higher, use funct 9
;       ai        aj        ak        al funct           phase               k        pn
         1         2         3         4     9        0.000000       -3.487057         1    ;  uncertainty k = 0.894359
         1         2         3         4     9      180.000000        1.469919         2    ;  uncertainty k = 0.783868
         1         2         3         4     9        0.000000        1.104465         3    ;  uncertainty k = 0.226845
         1         2         3         4     9      180.000000       -0.042975         4    ;  uncertainty k = 0.102598
         1         2         3        26     9        0.000000       -0.055414         1    ;  uncertainty k = 1.471479
         1         2         3        26     9      180.000000        0.197810         2    ;  uncertainty k = 0.555820
         1         2         3        26     9        0.000000        1.203669         3    ;  uncertainty k = 0.724778
         1         2         3        26     9      180.000000       -0.240825         4    ;  uncertainty k = 0.252397
         1         2         3        29     9        0.000000       -0.441594         1    ;  uncertainty k = 0.350866
         1         2         3        29     9      180.000000        0.561201         2    ;  uncertainty k = 0.353571
         1         2         3        29     9        0.000000        1.141806         3    ;  uncertainty k = 0.275335
         1         2         3        29     9      180.000000        0.179025         4    ;  uncertainty k = 0.095205
         1         2         6         5     9        0.000000       -4.169488         1    ;  uncertainty k = 1.102762
         1         2         6         5     9      180.000000        4.667008         2    ;  uncertainty k = 0.919843
         1         2         6         5     9        0.000000        1.156028         3    ;  uncertainty k = 0.679742
         1         2         6         5     9      180.000000        0.663192         4    ;  uncertainty k = 0.170505
         1         2         6         7     9        0.000000       -0.886359         1    ;  uncertainty k = 1.431985
         1         2         6         7     9      180.000000        3.820917         2    ;  uncertainty k = 0.500458
         1         2         6         7     9        0.000000       -0.109174         3    ;  uncertainty k = 0.156534
         1         2         6         7     9      180.000000        0.517623         4    ;  uncertainty k = 0.232535
         2         3         4         5     9        0.000000       -0.258446         1    ;  uncertainty k = 1.293337
         2         3         4         5     9      180.000000        2.588560         2    ;  uncertainty k = 0.826464
         2         3         4         5     9        0.000000       -0.124480         3    ;  uncertainty k = 0.386098
         2         3         4         5     9      180.000000       -0.667090         4    ;  uncertainty k = 0.398649
         2         3         4        30     9        0.000000       -0.293620         1    ;  uncertainty k = 0.418208
         2         3         4        30     9      180.000000       -0.562697         2    ;  uncertainty k = 0.116876
         2         3         4        30     9        0.000000        0.217084         3    ;  uncertainty k = 0.119233
         2         3         4        30     9      180.000000        0.080858         4    ;  uncertainty k = 0.066550
         2         3         4        31     9        0.000000       -0.293620         1    ;  uncertainty k = 0.418208
         2         3         4        31     9      180.000000       -0.562697         2    ;  uncertainty k = 0.116876
         2         3         4        31     9        0.000000        0.217084         3    ;  uncertainty k = 0.119233
         2         3         4        31     9      180.000000        0.080858         4    ;  uncertainty k = 0.066550
         2         3        26        38     9        0.000000       14.664360         1    ;  uncertainty k = 0.221594
         2         3        26        38     9      180.000000       -4.906484         2    ;  uncertainty k = 0.444680
         2         3        26        38     9        0.000000        1.091890         3    ;  uncertainty k = 0.223937
         2         3        26        38     9      180.000000        0.264466         4    ;  uncertainty k = 0.099666
         2         6         5         4     9        0.000000        0.558384         1    ;  uncertainty k = 0.669638
         2         6         5         4     9      180.000000       12.272573         2    ;  uncertainty k = 0.779467
         2         6         5         4     9        0.000000       -0.560732         3    ;  uncertainty k = 0.552468
         2         6         5         4     9      180.000000        1.227193         4    ;  uncertainty k = 0.246007
         2         6         5        10     9        0.000000        0.531092         1    ;  uncertainty k = 0.518034
         2         6         5        10     9      180.000000        8.817378         2    ;  uncertainty k = 0.339520
         2         6         5        10     9        0.000000        0.594283         3    ;  uncertainty k = 0.270108
         2         6         5        10     9      180.000000        1.290465         4    ;  uncertainty k = 0.140303
         2         6         7         8     9        0.000000        0.340490         1    ;  uncertainty k = 0.340056
         2         6         7         8     9      180.000000        6.674840         2    ;  uncertainty k = 0.190690
         2         6         7         8     9        0.000000        1.217037         3    ;  uncertainty k = 0.255159
         2         6         7         8     9      180.000000        1.563341         4    ;  uncertainty k = 0.164177
         2         6         7        20     9        0.000000        0.080391         1    ;  uncertainty k = 0.424054
         2         6         7        20     9      180.000000        6.723198         2    ;  uncertainty k = 0.695450
         2         6         7        20     9        0.000000        1.066746         3    ;  uncertainty k = 0.213600
         2         6         7        20     9      180.000000        1.198346         4    ;  uncertainty k = 0.218434
         3         2         1        27     9        0.000000       15.670632         1    ;  uncertainty k = 0.318694
         3         2         1        27     9      180.000000       -4.779602         2    ;  uncertainty k = 0.632795
         3         2         1        27     9        0.000000        1.079170         3    ;  uncertainty k = 0.215270
         3         2         1        27     9      180.000000        0.210478         4    ;  uncertainty k = 0.093819
         3         2         6         5     9        0.000000       -1.207906         1    ;  uncertainty k = 1.444999
         3         2         6         5     9      180.000000        9.623322         2    ;  uncertainty k = 1.200981
         3         2         6         5     9        0.000000       -1.380819         3    ;  uncertainty k = 0.389940
         3         2         6         5     9      180.000000        0.825821         4    ;  uncertainty k = 0.290719
         3         2         6         7     9        0.000000       -1.828898         1    ;  uncertainty k = 1.938767
         3         2         6         7     9      180.000000        2.986741         2    ;  uncertainty k = 0.387355
         3         2         6         7     9        0.000000        0.144182         3    ;  uncertainty k = 0.462724
         3         2         6         7     9      180.000000        0.689797         4    ;  uncertainty k = 0.181976
         3         4         5         6     9        0.000000       -1.513536         1    ;  uncertainty k = 1.400174
         3         4         5         6     9      180.000000       10.713770         2    ;  uncertainty k = 0.598004
         3         4         5         6     9        0.000000       -1.858180         3    ;  uncertainty k = 0.284475
         3         4         5         6     9      180.000000        0.880506         4    ;  uncertainty k = 0.238864
         3         4         5        10     9        0.000000       -0.710417         1    ;  uncertainty k = 0.882772
         3         4         5        10     9      180.000000        2.092441         2    ;  uncertainty k = 0.216986
         3         4         5        10     9        0.000000        0.279122         3    ;  uncertainty k = 0.195105
         3         4         5        10     9      180.000000        0.667244         4    ;  uncertainty k = 0.209995
         4         3         2         6     9        0.000000       -0.943051         1    ;  uncertainty k = 0.905379
         4         3         2         6     9      180.000000        1.710831         2    ;  uncertainty k = 0.685297
         4         3         2         6     9        0.000000        0.112108         3    ;  uncertainty k = 0.231532
         4         3         2         6     9      180.000000       -0.476399         4    ;  uncertainty k = 0.283582
         4         3         2        28     9        0.000000       -0.647100         1    ;  uncertainty k = 0.709069
         4         3         2        28     9      180.000000        0.437859         2    ;  uncertainty k = 0.334923
         4         3         2        28     9        0.000000        0.262237         3    ;  uncertainty k = 0.210880
         4         3         2        28     9      180.000000       -0.096475         4    ;  uncertainty k = 0.107097
         4         3        26        38     9        0.000000       15.547527         1    ;  uncertainty k = 0.253213
         4         3        26        38     9      180.000000       -2.208986         2    ;  uncertainty k = 0.263965
         4         3        26        38     9        0.000000        1.140926         3    ;  uncertainty k = 0.151442
         4         3        26        38     9      180.000000        0.332404         4    ;  uncertainty k = 0.133385
         4         5         6         7     9        0.000000        0.126144         1    ;  uncertainty k = 0.784824
         4         5         6         7     9      180.000000        8.860712         2    ;  uncertainty k = 0.323051
         4         5         6         7     9        0.000000        0.590405         3    ;  uncertainty k = 0.453728
         4         5         6         7     9      180.000000        1.189818         4    ;  uncertainty k = 0.197180
         4         5        10         9     9        0.000000        0.412748         1    ;  uncertainty k = 0.311213
         4         5        10         9     9      180.000000        6.243181         2    ;  uncertainty k = 0.339579
         4         5        10         9     9        0.000000        1.320404         3    ;  uncertainty k = 0.259415
         4         5        10         9     9      180.000000        1.603708         4    ;  uncertainty k = 0.264795
         4         5        10        11     9        0.000000       -0.092070         1    ;  uncertainty k = 0.396377
         4         5        10        11     9      180.000000        9.007290         2    ;  uncertainty k = 0.318768
         4         5        10        11     9        0.000000        1.004725         3    ;  uncertainty k = 0.160412
         4         5        10        11     9      180.000000        1.289840         4    ;  uncertainty k = 0.188775
         5         4         3        26     9        0.000000       -3.654127         1    ;  uncertainty k = 1.520096
         5         4         3        26     9      180.000000        0.363236         2    ;  uncertainty k = 0.744150
         5         4         3        26     9        0.000000        1.784823         3    ;  uncertainty k = 0.190207
         5         4         3        26     9      180.000000        0.136990         4    ;  uncertainty k = 0.073846
         5         4         3        29     9        0.000000       -0.906657         1    ;  uncertainty k = 0.675042
         5         4         3        29     9      180.000000        0.731478         2    ;  uncertainty k = 0.168317
         5         4         3        29     9        0.000000        0.685953         3    ;  uncertainty k = 0.282704
         5         4         3        29     9      180.000000       -0.061511         4    ;  uncertainty k = 0.069227
         5         6         2        28     9        0.000000       -0.819685         1    ;  uncertainty k = 0.314458
         5         6         2        28     9      180.000000        3.157389         2    ;  uncertainty k = 0.650199
         5         6         2        28     9        0.000000        0.786957         3    ;  uncertainty k = 0.126729
         5         6         2        28     9      180.000000        0.201297         4    ;  uncertainty k = 0.166463
         5         6         7         8     9        0.000000       -0.290732         1    ;  uncertainty k = 0.543007
         5         6         7         8     9      180.000000        9.934474         2    ;  uncertainty k = 0.529207
         5         6         7         8     9        0.000000       -0.656093         3    ;  uncertainty k = 0.434591
         5         6         7         8     9      180.000000        0.888470         4    ;  uncertainty k = 0.221725
         5         6         7        20     9        0.000000        0.569303         1    ;  uncertainty k = 0.879142
         5         6         7        20     9      180.000000        7.888670         2    ;  uncertainty k = 0.866626
         5         6         7        20     9        0.000000        1.382532         3    ;  uncertainty k = 0.509040
         5         6         7        20     9      180.000000        1.642116         4    ;  uncertainty k = 0.228675
         5        10         9         8     9        0.000000        0.266722         1    ;  uncertainty k = 0.165487
         5        10         9         8     9      180.000000        9.054036         2    ;  uncertainty k = 0.413322
         5        10         9         8     9        0.000000        0.201721         3    ;  uncertainty k = 0.386019
         5        10         9         8     9      180.000000        1.309680         4    ;  uncertainty k = 0.296821
         5        10         9        33     9        0.000000        0.195438         1    ;  uncertainty k = 0.305683
         5        10         9        33     9      180.000000        6.757383         2    ;  uncertainty k = 0.466994
         5        10         9        33     9        0.000000        1.365666         3    ;  uncertainty k = 0.472792
         5        10         9        33     9      180.000000        1.620103         4    ;  uncertainty k = 0.105936
         5        10        11        12     9        0.000000        4.529933         1    ;  uncertainty k = 0.766194
         5        10        11        12     9      180.000000        4.896844         2    ;  uncertainty k = 0.388873
         5        10        11        12     9        0.000000        0.783615         3    ;  uncertainty k = 0.077430
         5        10        11        12     9      180.000000        0.133079         4    ;  uncertainty k = 0.079877
         6         2         1        27     9        0.000000       15.661424         1    ;  uncertainty k = 0.610726
         6         2         1        27     9      180.000000       -4.341136         2    ;  uncertainty k = 0.562277
         6         2         1        27     9        0.000000        1.018037         3    ;  uncertainty k = 0.174211
         6         2         1        27     9      180.000000        0.068049         4    ;  uncertainty k = 0.101693
         6         2         3        26     9        0.000000       -2.745287         1    ;  uncertainty k = 1.912160
         6         2         3        26     9      180.000000        0.726276         2    ;  uncertainty k = 0.556639
         6         2         3        26     9        0.000000        1.499731         3    ;  uncertainty k = 0.323762
         6         2         3        26     9      180.000000        0.266805         4    ;  uncertainty k = 0.216623
         6         2         3        29     9        0.000000       -0.684167         1    ;  uncertainty k = 0.841630
         6         2         3        29     9      180.000000        0.155684         2    ;  uncertainty k = 0.349474
         6         2         3        29     9        0.000000        0.466479         3    ;  uncertainty k = 0.180364
         6         2         3        29     9      180.000000       -0.079596         4    ;  uncertainty k = 0.081619
         6         5         4        30     9        0.000000       -0.320029         1    ;  uncertainty k = 0.477444
         6         5         4        30     9      180.000000        1.815999         2    ;  uncertainty k = 0.371870
         6         5         4        30     9        0.000000        0.278286         3    ;  uncertainty k = 0.105142
         6         5         4        30     9      180.000000        0.242715         4    ;  uncertainty k = 0.107044
         6         5         4        31     9        0.000000       -0.320029         1    ;  uncertainty k = 0.477444
         6         5         4        31     9      180.000000        1.815999         2    ;  uncertainty k = 0.371870
         6         5         4        31     9        0.000000        0.278286         3    ;  uncertainty k = 0.105142
         6         5         4        31     9      180.000000        0.242715         4    ;  uncertainty k = 0.107044
         6         5        10         9     9        0.000000       -0.220171         1    ;  uncertainty k = 0.191148
         6         5        10         9     9      180.000000        8.215209         2    ;  uncertainty k = 0.571307
         6         5        10         9     9        0.000000       -0.470321         3    ;  uncertainty k = 0.470521
         6         5        10         9     9      180.000000        1.077778         4    ;  uncertainty k = 0.294052
         6         5        10        11     9        0.000000        0.046913         1    ;  uncertainty k = 0.224983
         6         5        10        11     9      180.000000        9.683281         2    ;  uncertainty k = 0.346256
         6         5        10        11     9        0.000000        1.383055         3    ;  uncertainty k = 0.269958
         6         5        10        11     9      180.000000        1.537502         4    ;  uncertainty k = 0.185382
         6         7         8         9     9        0.000000       -0.232425         1    ;  uncertainty k = 0.341415
         6         7         8         9     9      180.000000       10.319686         2    ;  uncertainty k = 0.581261
         6         7         8         9     9        0.000000       -0.335863         3    ;  uncertainty k = 0.455771
         6         7         8         9     9      180.000000        1.031043         4    ;  uncertainty k = 0.458548
         6         7         8        32     9        0.000000       -0.034651         1    ;  uncertainty k = 0.405617
         6         7         8        32     9      180.000000        7.366675         2    ;  uncertainty k = 0.548515
         6         7         8        32     9        0.000000        1.230342         3    ;  uncertainty k = 0.452414
         6         7         8        32     9      180.000000        1.590880         4    ;  uncertainty k = 0.071672
         6         7        20        21     9        0.000000       -2.298282         1    ;  uncertainty k = 2.181280
         6         7        20        21     9      180.000000        0.851801         2    ;  uncertainty k = 0.595830
         6         7        20        21     9        0.000000        0.440224         3    ;  uncertainty k = 0.336080
         6         7        20        21     9      180.000000       -0.007123         4    ;  uncertainty k = 0.208115
         6         7        20        22     9        0.000000       -2.298282         1    ;  uncertainty k = 2.181280
         6         7        20        22     9      180.000000        0.851801         2    ;  uncertainty k = 0.595830
         6         7        20        22     9        0.000000        0.440224         3    ;  uncertainty k = 0.336080
         6         7        20        22     9      180.000000       -0.007123         4    ;  uncertainty k = 0.208115
         6         7        20        23     9        0.000000        2.442632         1    ;  uncertainty k = 2.036209
         6         7        20        23     9      180.000000       -0.630304         2    ;  uncertainty k = 0.493729
         6         7        20        23     9        0.000000        0.272433         3    ;  uncertainty k = 0.346585
         6         7        20        23     9      180.000000        0.263101         4    ;  uncertainty k = 0.165004
         7         6         2        28     9        0.000000        1.795272         1    ;  uncertainty k = 0.464324
         7         6         2        28     9      180.000000        1.995158         2    ;  uncertainty k = 0.676837
         7         6         2        28     9        0.000000       -0.119701         3    ;  uncertainty k = 0.116654
         7         6         2        28     9      180.000000        0.181297         4    ;  uncertainty k = 0.193087
         7         6         5        10     9        0.000000        0.070630         1    ;  uncertainty k = 0.615584
         7         6         5        10     9      180.000000        8.264579         2    ;  uncertainty k = 0.363922
         7         6         5        10     9        0.000000        0.154409         3    ;  uncertainty k = 0.242824
         7         6         5        10     9      180.000000        1.168063         4    ;  uncertainty k = 0.301532
         7         8         9        10     9        0.000000        0.097396         1    ;  uncertainty k = 0.375511
         7         8         9        10     9      180.000000       12.156521         2    ;  uncertainty k = 0.422228
         7         8         9        10     9        0.000000       -0.879100         3    ;  uncertainty k = 0.661759
         7         8         9        10     9      180.000000        0.879476         4    ;  uncertainty k = 0.382652
         7         8         9        33     9        0.000000       -0.032980         1    ;  uncertainty k = 0.457046
         7         8         9        33     9      180.000000        8.344006         2    ;  uncertainty k = 0.255199
         7         8         9        33     9        0.000000        1.200115         3    ;  uncertainty k = 0.236198
         7         8         9        33     9      180.000000        1.708922         4    ;  uncertainty k = 0.116019
         7        20        23        24     9        0.000000        1.457335         1    ;  uncertainty k = 0.915592
         7        20        23        24     9      180.000000       -1.175182         2    ;  uncertainty k = 0.326212
         7        20        23        24     9        0.000000        0.334696         3    ;  uncertainty k = 0.327538
         7        20        23        24     9      180.000000       -0.136015         4    ;  uncertainty k = 0.236016
         7        20        23        25     9        0.000000        1.457335         1    ;  uncertainty k = 0.915592
         7        20        23        25     9      180.000000       -1.175182         2    ;  uncertainty k = 0.326212
         7        20        23        25     9        0.000000        0.334696         3    ;  uncertainty k = 0.327538
         7        20        23        25     9      180.000000       -0.136015         4    ;  uncertainty k = 0.236016
         7        20        23        37     9        0.000000        1.377914         1    ;  uncertainty k = 0.480403
         7        20        23        37     9      180.000000       -1.455174         2    ;  uncertainty k = 0.888703
         7        20        23        37     9        0.000000        0.116154         3    ;  uncertainty k = 0.244596
         7        20        23        37     9      180.000000       -0.146202         4    ;  uncertainty k = 0.189440
         8         7        20        21     9        0.000000       -1.538915         1    ;  uncertainty k = 0.961411
         8         7        20        21     9      180.000000        1.072224         2    ;  uncertainty k = 0.904160
         8         7        20        21     9        0.000000        0.203926         3    ;  uncertainty k = 0.286215
         8         7        20        21     9      180.000000        0.004603         4    ;  uncertainty k = 0.220299
         8         7        20        22     9        0.000000       -1.538915         1    ;  uncertainty k = 0.961411
         8         7        20        22     9      180.000000        1.072224         2    ;  uncertainty k = 0.904160
         8         7        20        22     9        0.000000        0.203926         3    ;  uncertainty k = 0.286215
         8         7        20        22     9      180.000000        0.004603         4    ;  uncertainty k = 0.220299
         8         7        20        23     9        0.000000        2.251340         1    ;  uncertainty k = 0.939497
         8         7        20        23     9      180.000000        0.061294         2    ;  uncertainty k = 0.516969
         8         7        20        23     9        0.000000        0.124025         3    ;  uncertainty k = 0.611257
         8         7        20        23     9      180.000000        0.249451         4    ;  uncertainty k = 0.141743
         8         9        10        11     9        0.000000       -0.021776         1    ;  uncertainty k = 0.294111
         8         9        10        11     9      180.000000       10.849446         2    ;  uncertainty k = 0.455532
         8         9        10        11     9        0.000000        1.495230         3    ;  uncertainty k = 0.295963
         8         9        10        11     9      180.000000        1.740355         4    ;  uncertainty k = 0.246695
         9         8         7        20     9        0.000000        0.484552         1    ;  uncertainty k = 0.261828
         9         8         7        20     9      180.000000        8.848781         2    ;  uncertainty k = 0.533337
         9         8         7        20     9        0.000000        1.357118         3    ;  uncertainty k = 0.336085
         9         8         7        20     9      180.000000        1.870129         4    ;  uncertainty k = 0.152960
         9        10        11        12     9        0.000000        5.317331         1    ;  uncertainty k = 0.350239
         9        10        11        12     9      180.000000        5.730039         2    ;  uncertainty k = 0.235840
         9        10        11        12     9        0.000000        0.400010         3    ;  uncertainty k = 0.190419
         9        10        11        12     9      180.000000        0.189317         4    ;  uncertainty k = 0.087226
        10         5         4        30     9        0.000000        0.710979         1    ;  uncertainty k = 0.334465
        10         5         4        30     9      180.000000        1.669134         2    ;  uncertainty k = 0.668586
        10         5         4        30     9        0.000000        0.161587         3    ;  uncertainty k = 0.231569
        10         5         4        30     9      180.000000        0.263971         4    ;  uncertainty k = 0.121937
        10         5         4        31     9        0.000000        0.710979         1    ;  uncertainty k = 0.334465
        10         5         4        31     9      180.000000        1.669134         2    ;  uncertainty k = 0.668586
        10         5         4        31     9        0.000000        0.161587         3    ;  uncertainty k = 0.231569
        10         5         4        31     9      180.000000        0.263971         4    ;  uncertainty k = 0.121937
        10         9         8        32     9        0.000000       -0.098295         1    ;  uncertainty k = 0.349861
        10         9         8        32     9      180.000000        7.888413         2    ;  uncertainty k = 0.164721
        10         9         8        32     9        0.000000        1.049123         3    ;  uncertainty k = 0.224040
        10         9         8        32     9      180.000000        1.720222         4    ;  uncertainty k = 0.065984
        10        11        12        13     9        0.000000        4.383169         1    ;  uncertainty k = 0.400841
        10        11        12        13     9      180.000000        5.609287         2    ;  uncertainty k = 0.180396
        10        11        12        13     9        0.000000        0.503344         3    ;  uncertainty k = 0.173410
        10        11        12        13     9      180.000000        0.146109         4    ;  uncertainty k = 0.063053
        10        11        12        19     9        0.000000        4.383170         1    ;  uncertainty k = 0.400841
        10        11        12        19     9      180.000000        5.609287         2    ;  uncertainty k = 0.180396
        10        11        12        19     9        0.000000        0.503345         3    ;  uncertainty k = 0.173409
        10        11        12        19     9      180.000000        0.146109         4    ;  uncertainty k = 0.063053
        11        10         9        33     9        0.000000       -0.020083         1    ;  uncertainty k = 0.148222
        11        10         9        33     9      180.000000        8.980938         2    ;  uncertainty k = 0.349961
        11        10         9        33     9        0.000000        0.850924         3    ;  uncertainty k = 0.243033
        11        10         9        33     9      180.000000        1.142007         4    ;  uncertainty k = 0.152267
        11        12        13        14     9        0.000000        0.072052         1    ;  uncertainty k = 0.150060
        11        12        13        14     9      180.000000       10.619269         2    ;  uncertainty k = 0.305035
        11        12        13        14     9        0.000000        1.304108         3    ;  uncertainty k = 0.154314
        11        12        13        14     9      180.000000        1.616795         4    ;  uncertainty k = 0.132282
        11        12        13        34     9        0.000000       -0.070575         1    ;  uncertainty k = 0.071484
        11        12        13        34     9      180.000000        8.196714         2    ;  uncertainty k = 0.278176
        11        12        13        34     9        0.000000        0.858407         3    ;  uncertainty k = 0.256561
        11        12        13        34     9      180.000000        1.107411         4    ;  uncertainty k = 0.104777
        11        12        19        17     9        0.000000        0.072051         1    ;  uncertainty k = 0.150060
        11        12        19        17     9      180.000000       10.619270         2    ;  uncertainty k = 0.305036
        11        12        19        17     9        0.000000        1.304107         3    ;  uncertainty k = 0.154315
        11        12        19        17     9      180.000000        1.616795         4    ;  uncertainty k = 0.132282
        11        12        19        36     9        0.000000       -0.070575         1    ;  uncertainty k = 0.071485
        11        12        19        36     9      180.000000        8.196715         2    ;  uncertainty k = 0.278176
        11        12        19        36     9        0.000000        0.858407         3    ;  uncertainty k = 0.256560
        11        12        19        36     9      180.000000        1.107412         4    ;  uncertainty k = 0.104777
        12        13        14        15     9        0.000000        0.021310         1    ;  uncertainty k = 0.082079
        12        13        14        15     9      180.000000       12.621670         2    ;  uncertainty k = 0.597171
        12        13        14        15     9        0.000000        1.514721         3    ;  uncertainty k = 0.352433
        12        13        14        15     9      180.000000        1.493583         4    ;  uncertainty k = 0.264785
        12        13        14        16     9        0.000000       -0.068499         1    ;  uncertainty k = 0.229741
        12        13        14        16     9      180.000000        9.347409         2    ;  uncertainty k = 0.435040
        12        13        14        16     9        0.000000       -0.034722         3    ;  uncertainty k = 0.546730
        12        13        14        16     9      180.000000        1.309149         4    ;  uncertainty k = 0.251917
        12        19        17        16     9        0.000000       -0.068498         1    ;  uncertainty k = 0.229742
        12        19        17        16     9      180.000000        9.347410         2    ;  uncertainty k = 0.435040
        12        19        17        16     9        0.000000       -0.034722         3    ;  uncertainty k = 0.546729
        12        19        17        16     9      180.000000        1.309149         4    ;  uncertainty k = 0.251918
        12        19        17        18     9        0.000000        0.021309         1    ;  uncertainty k = 0.082078
        12        19        17        18     9      180.000000       12.621674         2    ;  uncertainty k = 0.597170
        12        19        17        18     9        0.000000        1.514721         3    ;  uncertainty k = 0.352433
        12        19        17        18     9      180.000000        1.493583         4    ;  uncertainty k = 0.264786
        13        12        19        17     9        0.000000       -0.024646         1    ;  uncertainty k = 0.133982
        13        12        19        17     9      180.000000        9.575445         2    ;  uncertainty k = 0.511833
        13        12        19        17     9        0.000000       -0.133339         3    ;  uncertainty k = 0.552962
        13        12        19        17     9      180.000000        1.231268         4    ;  uncertainty k = 0.293001
        13        12        19        36     9        0.000000        0.187463         1    ;  uncertainty k = 0.312467
        13        12        19        36     9      180.000000        6.012782         2    ;  uncertainty k = 0.790760
        13        12        19        36     9        0.000000        1.452632         3    ;  uncertainty k = 0.400769
        13        12        19        36     9      180.000000        1.585435         4    ;  uncertainty k = 0.171144
        13        14        16        17     9        0.000000        0.012644         1    ;  uncertainty k = 0.186478
        13        14        16        17     9      180.000000        9.254012         2    ;  uncertainty k = 0.455270
        13        14        16        17     9        0.000000       -0.196366         3    ;  uncertainty k = 0.525204
        13        14        16        17     9      180.000000        1.256392         4    ;  uncertainty k = 0.239378
        13        14        16        35     9        0.000000        0.007887         1    ;  uncertainty k = 0.273454
        13        14        16        35     9      180.000000        5.748778         2    ;  uncertainty k = 0.734862
        13        14        16        35     9        0.000000        1.320563         3    ;  uncertainty k = 0.345125
        13        14        16        35     9      180.000000        1.469363         4    ;  uncertainty k = 0.139893
        14        13        12        19     9        0.000000       -0.024648         1    ;  uncertainty k = 0.133983
        14        13        12        19     9      180.000000        9.575444         2    ;  uncertainty k = 0.511834
        14        13        12        19     9        0.000000       -0.133340         3    ;  uncertainty k = 0.552963
        14        13        12        19     9      180.000000        1.231268         4    ;  uncertainty k = 0.293001
        14        16        17        18     9        0.000000       -0.084080         1    ;  uncertainty k = 0.246580
        14        16        17        18     9      180.000000       12.571784         2    ;  uncertainty k = 0.622502
        14        16        17        18     9        0.000000        1.580271         3    ;  uncertainty k = 0.300212
        14        16        17        18     9      180.000000        1.496894         4    ;  uncertainty k = 0.275368
        14        16        17        19     9        0.000000        0.012644         1    ;  uncertainty k = 0.186477
        14        16        17        19     9      180.000000        9.254014         2    ;  uncertainty k = 0.455269
        14        16        17        19     9        0.000000       -0.196365         3    ;  uncertainty k = 0.525204
        14        16        17        19     9      180.000000        1.256392         4    ;  uncertainty k = 0.239378
        15        14        13        34     9        0.000000       -0.292576         1    ;  uncertainty k = 0.229076
        15        14        13        34     9      180.000000        8.728901         2    ;  uncertainty k = 0.342947
        15        14        13        34     9        0.000000        0.836645         3    ;  uncertainty k = 0.291580
        15        14        13        34     9      180.000000        1.027813         4    ;  uncertainty k = 0.201885
        15        14        16        17     9        0.000000       -0.084081         1    ;  uncertainty k = 0.246579
        15        14        16        17     9      180.000000       12.571783         2    ;  uncertainty k = 0.622503
        15        14        16        17     9        0.000000        1.580271         3    ;  uncertainty k = 0.300211
        15        14        16        17     9      180.000000        1.496893         4    ;  uncertainty k = 0.275368
        15        14        16        35     9        0.000000       -0.235152         1    ;  uncertainty k = 0.270124
        15        14        16        35     9      180.000000        8.558982         2    ;  uncertainty k = 0.295736
        15        14        16        35     9        0.000000        0.809460         3    ;  uncertainty k = 0.314206
        15        14        16        35     9      180.000000        0.978765         4    ;  uncertainty k = 0.218612
        16        14        13        34     9        0.000000        0.084601         1    ;  uncertainty k = 0.213740
        16        14        13        34     9      180.000000        5.883624         2    ;  uncertainty k = 0.684423
        16        14        13        34     9        0.000000        1.370202         3    ;  uncertainty k = 0.375339
        16        14        13        34     9      180.000000        1.558143         4    ;  uncertainty k = 0.172439
        16        17        19        36     9        0.000000        0.084600         1    ;  uncertainty k = 0.213740
        16        17        19        36     9      180.000000        5.883621         2    ;  uncertainty k = 0.684423
        16        17        19        36     9        0.000000        1.370202         3    ;  uncertainty k = 0.375339
        16        17        19        36     9      180.000000        1.558143         4    ;  uncertainty k = 0.172438
        18        17        16        35     9        0.000000       -0.235150         1    ;  uncertainty k = 0.270124
        18        17        16        35     9      180.000000        8.558983         2    ;  uncertainty k = 0.295736
        18        17        16        35     9        0.000000        0.809459         3    ;  uncertainty k = 0.314206
        18        17        16        35     9      180.000000        0.978765         4    ;  uncertainty k = 0.218612
        18        17        19        36     9        0.000000       -0.292575         1    ;  uncertainty k = 0.229076
        18        17        19        36     9      180.000000        8.728902         2    ;  uncertainty k = 0.342947
        18        17        19        36     9        0.000000        0.836645         3    ;  uncertainty k = 0.291581
        18        17        19        36     9      180.000000        1.027813         4    ;  uncertainty k = 0.201886
        19        12        13        34     9        0.000000        0.187463         1    ;  uncertainty k = 0.312469
        19        12        13        34     9      180.000000        6.012783         2    ;  uncertainty k = 0.790761
        19        12        13        34     9        0.000000        1.452632         3    ;  uncertainty k = 0.400769
        19        12        13        34     9      180.000000        1.585435         4    ;  uncertainty k = 0.171144
        19        17        16        35     9        0.000000        0.007885         1    ;  uncertainty k = 0.273453
        19        17        16        35     9      180.000000        5.748779         2    ;  uncertainty k = 0.734862
        19        17        16        35     9        0.000000        1.320562         3    ;  uncertainty k = 0.345124
        19        17        16        35     9      180.000000        1.469364         4    ;  uncertainty k = 0.139894
        20         7         8        32     9        0.000000       -0.327074         1    ;  uncertainty k = 0.357548
        20         7         8        32     9      180.000000        6.609272         2    ;  uncertainty k = 0.416863
        20         7         8        32     9        0.000000        0.809160         3    ;  uncertainty k = 0.194085
        20         7         8        32     9      180.000000        1.190377         4    ;  uncertainty k = 0.189305
        21        20        23        24     9        0.000000        0.866315         1    ;  uncertainty k = 0.447985
        21        20        23        24     9      180.000000        0.207300         2    ;  uncertainty k = 0.372008
        21        20        23        24     9        0.000000        0.562711         3    ;  uncertainty k = 0.310237
        21        20        23        24     9      180.000000       -0.021132         4    ;  uncertainty k = 0.176620
        21        20        23        25     9        0.000000        0.866315         1    ;  uncertainty k = 0.447985
        21        20        23        25     9      180.000000        0.207300         2    ;  uncertainty k = 0.372008
        21        20        23        25     9        0.000000        0.562711         3    ;  uncertainty k = 0.310237
        21        20        23        25     9      180.000000       -0.021132         4    ;  uncertainty k = 0.176620
        21        20        23        37     9        0.000000        0.040597         1    ;  uncertainty k = 0.552982
        21        20        23        37     9      180.000000       -0.240104         2    ;  uncertainty k = 0.195524
        21        20        23        37     9        0.000000        0.226848         3    ;  uncertainty k = 0.136800
        21        20        23        37     9      180.000000       -0.103279         4    ;  uncertainty k = 0.122284
        22        20        23        24     9        0.000000        0.866315         1    ;  uncertainty k = 0.447985
        22        20        23        24     9      180.000000        0.207300         2    ;  uncertainty k = 0.372008
        22        20        23        24     9        0.000000        0.562711         3    ;  uncertainty k = 0.310237
        22        20        23        24     9      180.000000       -0.021132         4    ;  uncertainty k = 0.176620
        22        20        23        25     9        0.000000        0.866315         1    ;  uncertainty k = 0.447985
        22        20        23        25     9      180.000000        0.207300         2    ;  uncertainty k = 0.372008
        22        20        23        25     9        0.000000        0.562711         3    ;  uncertainty k = 0.310237
        22        20        23        25     9      180.000000       -0.021132         4    ;  uncertainty k = 0.176620
        22        20        23        37     9        0.000000        0.040597         1    ;  uncertainty k = 0.552982
        22        20        23        37     9      180.000000       -0.240104         2    ;  uncertainty k = 0.195524
        22        20        23        37     9        0.000000        0.226848         3    ;  uncertainty k = 0.136800
        22        20        23        37     9      180.000000       -0.103279         4    ;  uncertainty k = 0.122284
        26         3         2        28     9        0.000000       -0.629870         1    ;  uncertainty k = 0.508326
        26         3         2        28     9      180.000000        0.376228         2    ;  uncertainty k = 0.508295
        26         3         2        28     9        0.000000        1.219704         3    ;  uncertainty k = 0.345990
        26         3         2        28     9      180.000000        0.111051         4    ;  uncertainty k = 0.158258
        26         3         4        30     9        0.000000       -0.289714         1    ;  uncertainty k = 0.499052
        26         3         4        30     9      180.000000       -0.105339         2    ;  uncertainty k = 0.231226
        26         3         4        30     9        0.000000        1.240177         3    ;  uncertainty k = 0.190251
        26         3         4        30     9      180.000000        0.067476         4    ;  uncertainty k = 0.121098
        26         3         4        31     9        0.000000       -0.289714         1    ;  uncertainty k = 0.499052
        26         3         4        31     9      180.000000       -0.105339         2    ;  uncertainty k = 0.231226
        26         3         4        31     9        0.000000        1.240177         3    ;  uncertainty k = 0.190251
        26         3         4        31     9      180.000000        0.067476         4    ;  uncertainty k = 0.121098
        27         1         2        28     9        0.000000       12.790575         1    ;  uncertainty k = 0.443018
        27         1         2        28     9      180.000000       -1.311577         2    ;  uncertainty k = 0.603071
        27         1         2        28     9        0.000000        0.860804         3    ;  uncertainty k = 0.228962
        27         1         2        28     9      180.000000        0.231304         4    ;  uncertainty k = 0.128748
        28         2         3        29     9        0.000000        0.506680         1    ;  uncertainty k = 0.450750
        28         2         3        29     9      180.000000       -0.831585         2    ;  uncertainty k = 0.236151
        28         2         3        29     9        0.000000        0.640296         3    ;  uncertainty k = 0.246740
        28         2         3        29     9      180.000000        0.116215         4    ;  uncertainty k = 0.120959
        29         3         4        30     9        0.000000        0.623837         1    ;  uncertainty k = 0.328858
        29         3         4        30     9      180.000000       -0.543119         2    ;  uncertainty k = 0.096578
        29         3         4        30     9        0.000000        0.705508         3    ;  uncertainty k = 0.049813
        29         3         4        30     9      180.000000        0.102165         4    ;  uncertainty k = 0.051590
        29         3         4        31     9        0.000000        0.623837         1    ;  uncertainty k = 0.328858
        29         3         4        31     9      180.000000       -0.543119         2    ;  uncertainty k = 0.096578
        29         3         4        31     9        0.000000        0.705508         3    ;  uncertainty k = 0.049813
        29         3         4        31     9      180.000000        0.102165         4    ;  uncertainty k = 0.051590
        29         3        26        38     9        0.000000       13.321617         1    ;  uncertainty k = 0.338952
        29         3        26        38     9      180.000000       -2.369311         2    ;  uncertainty k = 0.535916
        29         3        26        38     9        0.000000        0.549810         3    ;  uncertainty k = 0.146344
        29         3        26        38     9      180.000000        0.236090         4    ;  uncertainty k = 0.112541
        32         8         9        33     9        0.000000       -0.148180         1    ;  uncertainty k = 0.424417
        32         8         9        33     9      180.000000        7.608203         2    ;  uncertainty k = 0.385312
        32         8         9        33     9        0.000000       -0.327533         3    ;  uncertainty k = 0.307859
        32         8         9        33     9      180.000000        0.270460         4    ;  uncertainty k = 0.108533

[ dihedrals ] ; impropers
;       ai        aj        ak        al funct           phase               k        pn
         5         4         6        10     4      180.000000        4.917635         2    ;  uncertainty k = 0.412211
         5         6        10         4     4      180.000000        4.917635         2    ;  uncertainty k = 0.412211
         5        10         4         6     4      180.000000        4.917635         2    ;  uncertainty k = 0.412211
         6         2         5         7     4      180.000000        6.169915         2    ;  uncertainty k = 0.312818
         6         5         7         2     4      180.000000        6.169915         2    ;  uncertainty k = 0.312818
         6         7         2         5     4      180.000000        6.169915         2    ;  uncertainty k = 0.312818
         7         6         8        20     4      180.000000        4.471808         2    ;  uncertainty k = 0.409957
         7         8        20         6     4      180.000000        4.471808         2    ;  uncertainty k = 0.409957
         7        20         6         8     4      180.000000        4.471808         2    ;  uncertainty k = 0.409957
         8         7         9        32     4      180.000000        5.242805         2    ;  uncertainty k = 0.202629
         8         9        32         7     4      180.000000        5.242805         2    ;  uncertainty k = 0.202629
         8        32         7         9     4      180.000000        5.242805         2    ;  uncertainty k = 0.202629
         9         8        10        33     4      180.000000        1.989605         2    ;  uncertainty k = 0.096927
         9        10        33         8     4      180.000000        1.989605         2    ;  uncertainty k = 0.096927
         9        33         8        10     4      180.000000        1.989605         2    ;  uncertainty k = 0.096927
        10         5         9        11     4      180.000000       17.273810         2    ;  uncertainty k = 0.106302
        10         9        11         5     4      180.000000       17.273810         2    ;  uncertainty k = 0.106302
        10        11         5         9     4      180.000000       17.273810         2    ;  uncertainty k = 0.106302
        12        11        13        19     4      180.000000       19.463601         2    ;  uncertainty k = 0.034027
        12        13        19        11     4      180.000000       19.463601         2    ;  uncertainty k = 0.034027
        12        19        11        13     4      180.000000       19.463601         2    ;  uncertainty k = 0.034027
        13        12        14        34     4      180.000000        1.406376         2    ;  uncertainty k = 0.424044
        13        14        34        12     4      180.000000        1.406376         2    ;  uncertainty k = 0.424044
        13        34        12        14     4      180.000000        1.406376         2    ;  uncertainty k = 0.424044
        14        13        15        16     4      180.000000       18.559984         2    ;  uncertainty k = 0.051312
        14        15        16        13     4      180.000000       18.559984         2    ;  uncertainty k = 0.051312
        14        16        13        15     4      180.000000       18.559984         2    ;  uncertainty k = 0.051312
        16        14        17        35     4      180.000000        1.388756         2    ;  uncertainty k = 0.630805
        16        17        35        14     4      180.000000        1.388756         2    ;  uncertainty k = 0.630805
        16        35        14        17     4      180.000000        1.388756         2    ;  uncertainty k = 0.630805
        17        16        18        19     4      180.000000       18.559980         2    ;  uncertainty k = 0.051312
        17        18        19        16     4      180.000000       18.559980         2    ;  uncertainty k = 0.051312
        17        19        16        18     4      180.000000       18.559980         2    ;  uncertainty k = 0.051312
        19        12        17        36     4      180.000000        1.406376         2    ;  uncertainty k = 0.424044
        19        17        36        12     4      180.000000        1.406376         2    ;  uncertainty k = 0.424044
        19        36        12        17     4      180.000000        1.406376         2    ;  uncertainty k = 0.424044

[ pairs ]
;       ai        aj funct
         1         4     1
         1         5     1
         1         7     1
         1        26     1
         1        29     1
         2         8     1
         2        10     1
         2        20     1
         2        30     1
         2        31     1
         2        38     1
         3         7     1
         3        10     1
         3        27     1
         4         7     1
         4         9     1
         4        11     1
         4        28     1
         4        38     1
         5         8     1
         5        12     1
         5        20     1
         5        26     1
         5        28     1
         5        29     1
         5        33     1
         6         9     1
         6        11     1
         6        21     1
         6        22     1
         6        23     1
         6        26     1
         6        27     1
         6        29     1
         6        30     1
         6        31     1
         6        32     1
         7        10     1
         7        24     1
         7        25     1
         7        28     1
         7        33     1
         7        37     1
         8        11     1
         8        21     1
         8        22     1
         8        23     1
         9        12     1
         9        20     1
        10        13     1
        10        19     1
        10        30     1
        10        31     1
        10        32     1
        11        14     1
        11        17     1
        11        33     1
        11        34     1
        11        36     1
        12        15     1
        12        16     1
        12        18     1
        13        17     1
        13        35     1
        13        36     1
        14        18     1
        14        19     1
        15        17     1
        15        34     1
        15        35     1
        16        34     1
        16        36     1
        18        35     1
        18        36     1
        19        34     1
        19        35     1
        20        32     1
        21        24     1
        21        25     1
        21        37     1
        22        24     1
        22        25     1
        22        37     1
        26        28     1
        26        30     1
        26        31     1
        27        28     1
        28        29     1
        29        30     1
        29        31     1
        29        38     1
        32        33     1
