; ITP file created by ByteFF-joint-25, 2026-02-17 09:17:20.051283

[ atomtypes ]
;name           bonded.type        at.num        mass        charge   ptype           sigma         epsilon
 o0bf                                   8      0.0000       0.00000       A     3.24314e-01     3.87820e-01    ;  uncertainty sigma = 0.000033, epsilon = 0.000883
 c1bf                                   6      0.0000       0.00000       A     3.39735e-01     4.50327e-01    ;  uncertainty sigma = 0.000031, epsilon = 0.001400
 c2bf                                   6      0.0000       0.00000       A     3.39804e-01     4.51139e-01    ;  uncertainty sigma = 0.000023, epsilon = 0.001153
 c3bf                                   6      0.0000       0.00000       A     3.39790e-01     4.50784e-01    ;  uncertainty sigma = 0.000016, epsilon = 0.000744
 c4bf                                   6      0.0000       0.00000       A     3.31546e-01     4.13508e-01    ;  uncertainty sigma = 0.000009, epsilon = 0.000938
 c5bf                                   6      0.0000       0.00000       A     3.31549e-01     4.12756e-01    ;  uncertainty sigma = 0.000028, epsilon = 0.001242
 c6bf                                   6      0.0000       0.00000       A     3.31528e-01     4.13040e-01    ;  uncertainty sigma = 0.000031, epsilon = 0.001441
 c7bf                                   6      0.0000       0.00000       A     3.31515e-01     4.13375e-01    ;  uncertainty sigma = 0.000009, epsilon = 0.000608
 c8bf                                   6      0.0000       0.00000       A     3.31528e-01     4.13628e-01    ;  uncertainty sigma = 0.000009, epsilon = 0.000546
 c9bf                                   6      0.0000       0.00000       A     3.31531e-01     4.13205e-01    ;  uncertainty sigma = 0.000015, epsilon = 0.000623
 o10bf                                  8      0.0000       0.00000       A     3.15559e-01     3.01989e-01    ;  uncertainty sigma = 0.000032, epsilon = 0.001303
 c11bf                                  6      0.0000       0.00000       A     3.31499e-01     4.13946e-01    ;  uncertainty sigma = 0.000009, epsilon = 0.001053
 c12bf                                  6      0.0000       0.00000       A     3.31526e-01     4.13386e-01    ;  uncertainty sigma = 0.000002, epsilon = 0.000656
 c13bf                                  6      0.0000       0.00000       A     3.31523e-01     4.13353e-01    ;  uncertainty sigma = 0.000004, epsilon = 0.000432
 cl14bf                                17      0.0000       0.00000       A     3.46582e-01     1.10389e+00    ;  uncertainty sigma = 0.000013, epsilon = 0.001569
 c15bf                                  6      0.0000       0.00000       A     3.31516e-01     4.13405e-01    ;  uncertainty sigma = 0.000008, epsilon = 0.000444
 c16bf                                  6      0.0000       0.00000       A     3.31514e-01     4.13650e-01    ;  uncertainty sigma = 0.000013, epsilon = 0.000858
 c17bf                                  6      0.0000       0.00000       A     3.47928e-01     6.68050e-01    ;  uncertainty sigma = 0.000022, epsilon = 0.001559
 c18bf                                  6      0.0000       0.00000       A     3.31519e-01     4.13357e-01    ;  uncertainty sigma = 0.000009, epsilon = 0.000779
 s19bf                                 16      0.0000       0.00000       A     4.05857e-01     2.55880e-01    ;  uncertainty sigma = 0.000020, epsilon = 0.001911
 o20bf                                  8      0.0000       0.00000       A     3.04791e-01     6.12049e-01    ;  uncertainty sigma = 0.000024, epsilon = 0.000962
 o21bf                                  8      0.0000       0.00000       A     3.04791e-01     6.12049e-01    ;  uncertainty sigma = 0.000024, epsilon = 0.000962
 c22bf                                  6      0.0000       0.00000       A     3.39782e-01     4.50649e-01    ;  uncertainty sigma = 0.000005, epsilon = 0.001022
 f23bf                                  9      0.0000       0.00000       A     3.03449e-01     3.47672e-01    ;  uncertainty sigma = 0.000012, epsilon = 0.001616
 f24bf                                  9      0.0000       0.00000       A     3.03449e-01     3.47672e-01    ;  uncertainty sigma = 0.000012, epsilon = 0.001616
 n25bf                                  7      0.0000       0.00000       A     3.27375e-01     4.59084e-01    ;  uncertainty sigma = 0.000021, epsilon = 0.000492
 h26bf                                  1      0.0000       0.00000       A     5.38093e-02     1.93077e-02    ;  uncertainty sigma = 0.000062, epsilon = 0.000926
 h27bf                                  1      0.0000       0.00000       A     2.42326e-01     8.68827e-02    ;  uncertainty sigma = 0.000128, epsilon = 0.000858
 h28bf                                  1      0.0000       0.00000       A     2.60052e-01     8.67185e-02    ;  uncertainty sigma = 0.000035, epsilon = 0.000545
 h29bf                                  1      0.0000       0.00000       A     2.60052e-01     8.67184e-02    ;  uncertainty sigma = 0.000035, epsilon = 0.000545
 h30bf                                  1      0.0000       0.00000       A     2.62567e-01     6.72430e-02    ;  uncertainty sigma = 0.000020, epsilon = 0.000765
 h31bf                                  1      0.0000       0.00000       A     2.62556e-01     6.70855e-02    ;  uncertainty sigma = 0.000006, epsilon = 0.000381
 h32bf                                  1      0.0000       0.00000       A     2.62563e-01     6.72159e-02    ;  uncertainty sigma = 0.000003, epsilon = 0.000466
 h33bf                                  1      0.0000       0.00000       A     2.62555e-01     6.70145e-02    ;  uncertainty sigma = 0.000013, epsilon = 0.000613
 h34bf                                  1      0.0000       0.00000       A     2.62547e-01     6.71166e-02    ;  uncertainty sigma = 0.000014, epsilon = 0.000743
 h35bf                                  1      0.0000       0.00000       A     2.42169e-01     8.68377e-02    ;  uncertainty sigma = 0.000012, epsilon = 0.000624
 h36bf                                  1      0.0000       0.00000       A     2.42169e-01     8.68377e-02    ;  uncertainty sigma = 0.000012, epsilon = 0.000623
 h37bf                                  1      0.0000       0.00000       A     2.42169e-01     8.68378e-02    ;  uncertainty sigma = 0.000012, epsilon = 0.000623

[ moleculetype ]
;name             nrexcl
 MOL                   3

[ atoms ]
;       nr            type      resi   res      atom      cgnr      charge          mass ; qtot
         1            o0bf         1   UNL        o0         1    -0.57153       15.9990 ; qtot   -0.572
         2            c1bf         1   UNL        c1         2     0.16359       12.0110 ; qtot   -0.408
         3            c2bf         1   UNL        c2         3     0.38805       12.0110 ; qtot   -0.020
         4            c3bf         1   UNL        c3         4    -0.05626       12.0110 ; qtot   -0.076
         5            c4bf         1   UNL        c4         5    -0.10138       12.0110 ; qtot   -0.178
         6            c5bf         1   UNL        c5         6     0.00215       12.0110 ; qtot   -0.175
         7            c6bf         1   UNL        c6         7    -0.22309       12.0110 ; qtot   -0.398
         8            c7bf         1   UNL        c7         8    -0.01424       12.0110 ; qtot   -0.413
         9            c8bf         1   UNL        c8         9    -0.17784       12.0110 ; qtot   -0.591
        10            c9bf         1   UNL        c9        10     0.16704       12.0110 ; qtot   -0.424
        11           o10bf         1   UNL       o10        11    -0.24775       15.9990 ; qtot   -0.671
        12           c11bf         1   UNL       c11        12     0.13272       12.0110 ; qtot   -0.539
        13           c12bf         1   UNL       c12        13    -0.13379       12.0110 ; qtot   -0.672
        14           c13bf         1   UNL       c13        14     0.04765       12.0110 ; qtot   -0.625
        15          cl14bf         1   UNL      cl14        15    -0.08313       35.4530 ; qtot   -0.708
        16           c15bf         1   UNL       c15        16    -0.10749       12.0110 ; qtot   -0.815
        17           c16bf         1   UNL       c16        17     0.02042       12.0110 ; qtot   -0.795
        18           c17bf         1   UNL       c17        18     0.22849       12.0110 ; qtot   -0.566
        19           c18bf         1   UNL       c18        19    -0.12514       12.0110 ; qtot   -0.692
        20           s19bf         1   UNL       s19        20     1.01909       32.0670 ; qtot    0.328
        21           o20bf         1   UNL       o20        21    -0.57914       15.9990 ; qtot   -0.252
        22           o21bf         1   UNL       o21        22    -0.57914       15.9990 ; qtot   -0.831
        23           c22bf         1   UNL       c22        23    -0.18581       12.0110 ; qtot   -1.017
        24           f23bf         1   UNL       f23        24    -0.22758       18.9980 ; qtot   -1.244
        25           f24bf         1   UNL       f24        25    -0.22758       18.9980 ; qtot   -1.472
        26           n25bf         1   UNL       n25        26    -0.34809       14.0070 ; qtot   -1.820
        27           h26bf         1   UNL       h26        27     0.41807        1.0080 ; qtot   -1.402
        28           h27bf         1   UNL       h27        28     0.09251        1.0080 ; qtot   -1.309
        29           h28bf         1   UNL       h28        29     0.09141        1.0080 ; qtot   -1.218
        30           h29bf         1   UNL       h29        30     0.09141        1.0080 ; qtot   -1.126
        31           h30bf         1   UNL       h30        31     0.16421        1.0080 ; qtot   -0.962
        32           h31bf         1   UNL       h31        32     0.15782        1.0080 ; qtot   -0.804
        33           h32bf         1   UNL       h32        33     0.16646        1.0080 ; qtot   -0.638
        34           h33bf         1   UNL       h33        34     0.16243        1.0080 ; qtot   -0.475
        35           h34bf         1   UNL       h34        35     0.16624        1.0080 ; qtot   -0.309
        36           h35bf         1   UNL       h35        36     0.10307        1.0080 ; qtot   -0.206
        37           h36bf         1   UNL       h36        37     0.10307        1.0080 ; qtot   -0.103
        38           h37bf         1   UNL       h37        38     0.10308        1.0080 ; qtot   -0.000

[ bonds ]
;       ai        aj funct               r               k
         1         2     1        0.141341   266784.598340    ;  uncertainty r = 0.000175, k = 15.524028
         1        27     1        0.097120   457921.536914    ;  uncertainty r = 0.000049, k = 2.604885
         2         3     1        0.154750   188145.853564    ;  uncertainty r = 0.000252, k = 8.551885
         2         6     1        0.151723   244782.718701    ;  uncertainty r = 0.000136, k = 23.418546
         2        28     1        0.109523   308370.733936    ;  uncertainty r = 0.000079, k = 3.008193
         3         4     1        0.153436   201677.482617    ;  uncertainty r = 0.000098, k = 9.661873
         3        24     1        0.137560   301163.370020    ;  uncertainty r = 0.000061, k = 5.585031
         3        25     1        0.137560   301163.370020    ;  uncertainty r = 0.000061, k = 5.585031
         4         5     1        0.151090   252656.524561    ;  uncertainty r = 0.000114, k = 18.986535
         4        29     1        0.109406   310072.348145    ;  uncertainty r = 0.000044, k = 1.784813
         4        30     1        0.109406   310072.348145    ;  uncertainty r = 0.000044, k = 1.784813
         5         6     1        0.139537   361944.039746    ;  uncertainty r = 0.000131, k = 18.927627
         5        10     1        0.138874   352248.390967    ;  uncertainty r = 0.000123, k = 4.466178
         6         7     1        0.139327   334327.341406    ;  uncertainty r = 0.000111, k = 12.556522
         7         8     1        0.139276   348439.020361    ;  uncertainty r = 0.000169, k = 3.228603
         7        20     1        0.179287   144923.465991    ;  uncertainty r = 0.000115, k = 16.512142
         8         9     1        0.139189   367471.240625    ;  uncertainty r = 0.000069, k = 3.496435
         8        31     1        0.108504   328712.497168    ;  uncertainty r = 0.000047, k = 1.273804
         9        10     1        0.139689   352955.794434    ;  uncertainty r = 0.000048, k = 6.725251
         9        32     1        0.108753   336163.893701    ;  uncertainty r = 0.000031, k = 1.172871
        10        11     1        0.138297   316796.269043    ;  uncertainty r = 0.000147, k = 11.228395
        11        12     1        0.137153   316126.609424    ;  uncertainty r = 0.000123, k = 10.055874
        12        13     1        0.139373   356340.329687    ;  uncertainty r = 0.000045, k = 3.073924
        12        19     1        0.139129   356675.223340    ;  uncertainty r = 0.000044, k = 1.580734
        13        14     1        0.139327   361022.762988    ;  uncertainty r = 0.000059, k = 2.491231
        13        33     1        0.108739   337896.458887    ;  uncertainty r = 0.000013, k = 1.426574
        14        15     1        0.174906   199623.456299    ;  uncertainty r = 0.000090, k = 2.362638
        14        16     1        0.139196   359616.842969    ;  uncertainty r = 0.000013, k = 2.662879
        16        17     1        0.140249   360584.188672    ;  uncertainty r = 0.000057, k = 1.141683
        16        34     1        0.108591   334977.797119    ;  uncertainty r = 0.000019, k = 0.962765
        17        18     1        0.143694   316348.782275    ;  uncertainty r = 0.000030, k = 2.954296
        17        19     1        0.140029   359054.617969    ;  uncertainty r = 0.000047, k = 3.864958
        18        26     1        0.116626  1127936.530469    ;  uncertainty r = 0.000025, k = 3.003973
        19        35     1        0.108683   335344.229102    ;  uncertainty r = 0.000025, k = 1.546521
        20        21     1        0.147580   512419.056250    ;  uncertainty r = 0.000065, k = 2.863474
        20        22     1        0.147580   512419.056250    ;  uncertainty r = 0.000065, k = 2.863474
        20        23     1        0.181275   175793.094092    ;  uncertainty r = 0.000034, k = 12.187133
        23        36     1        0.109296   321460.851904    ;  uncertainty r = 0.000032, k = 1.852504
        23        37     1        0.109296   321460.851904    ;  uncertainty r = 0.000032, k = 1.852504
        23        38     1        0.109296   321460.851904    ;  uncertainty r = 0.000032, k = 1.852504

[ angles ]
;       ai        aj        ak funct           theta             cth
         1         2         3     1      107.410141      628.438511    ;  uncertainty theta = 0.008670, k = 0.247901
         1         2         6     1      112.352455      675.991418    ;  uncertainty theta = 0.006094, k = 0.205580
         1         2        28     1      108.003479      442.344456    ;  uncertainty theta = 0.007986, k = 0.200175
         2         1        27     1      107.329124      457.634098    ;  uncertainty theta = 0.001447, k = 0.131498
         2         3         4     1      111.123581      611.251015    ;  uncertainty theta = 0.003918, k = 0.280397
         2         3        24     1      109.530434      593.873012    ;  uncertainty theta = 0.003178, k = 0.146818
         2         3        25     1      109.530434      593.873012    ;  uncertainty theta = 0.003178, k = 0.146818
         2         6         5     1      115.410240      509.777044    ;  uncertainty theta = 0.004426, k = 0.179372
         2         6         7     1      124.912560      357.808547    ;  uncertainty theta = 0.004156, k = 0.180018
         3         2         6     1      104.711624      716.990289    ;  uncertainty theta = 0.005409, k = 0.228032
         3         2        28     1      107.064758      384.815956    ;  uncertainty theta = 0.005442, k = 0.198908
         3         4         5     1      103.987465      711.936176    ;  uncertainty theta = 0.005472, k = 0.351798
         3         4        29     1      107.225937      380.179726    ;  uncertainty theta = 0.002622, k = 0.088553
         3         4        30     1      107.225937      380.179694    ;  uncertainty theta = 0.002622, k = 0.088553
         4         3        24     1      111.588036      659.455501    ;  uncertainty theta = 0.002894, k = 0.086543
         4         3        25     1      111.588036      659.455501    ;  uncertainty theta = 0.002894, k = 0.086543
         4         5         6     1      115.272667      534.571024    ;  uncertainty theta = 0.004942, k = 0.050357
         4         5        10     1      125.782852      387.701394    ;  uncertainty theta = 0.006394, k = 0.185200
         5         4        29     1      110.505714      380.194186    ;  uncertainty theta = 0.002396, k = 0.102522
         5         4        30     1      110.505722      380.194250    ;  uncertainty theta = 0.002396, k = 0.102521
         5         6         7     1      121.489037      426.820000    ;  uncertainty theta = 0.007619, k = 0.189101
         5        10         9     1      120.340919      383.447390    ;  uncertainty theta = 0.004246, k = 0.224386
         5        10        11     1      118.108017      403.389191    ;  uncertainty theta = 0.007405, k = 0.362649
         6         2        28     1      109.860855      376.528781    ;  uncertainty theta = 0.004226, k = 0.163535
         6         5        10     1      119.444565      420.043760    ;  uncertainty theta = 0.001876, k = 0.146348
         6         7         8     1      122.548668      449.343922    ;  uncertainty theta = 0.006027, k = 0.104715
         6         7        20     1      117.495750      336.239394    ;  uncertainty theta = 0.008123, k = 0.211168
         7         8         9     1      121.450378      493.785132    ;  uncertainty theta = 0.005274, k = 0.054584
         7         8        31     1      118.834206      261.929694    ;  uncertainty theta = 0.002619, k = 0.108553
         7        20        21     1      113.082787      606.896235    ;  uncertainty theta = 0.002779, k = 0.245503
         7        20        22     1      113.082787      606.896235    ;  uncertainty theta = 0.002779, k = 0.245503
         7        20        23     1      104.821449      606.977060    ;  uncertainty theta = 0.001301, k = 0.048202
         8         7        20     1      117.068771      360.133031    ;  uncertainty theta = 0.006504, k = 0.156042
         8         9        10     1      120.022095      512.890050    ;  uncertainty theta = 0.001614, k = 0.054349
         8         9        32     1      120.278748      277.936865    ;  uncertainty theta = 0.001417, k = 0.051834
         9         8        31     1      120.454002      281.057659    ;  uncertainty theta = 0.002477, k = 0.059570
         9        10        11     1      120.817062      433.564510    ;  uncertainty theta = 0.002585, k = 0.198450
        10         9        32     1      120.189857      275.876978    ;  uncertainty theta = 0.002292, k = 0.072971
        10        11        12     1      112.668846      473.487535    ;  uncertainty theta = 0.002322, k = 0.083212
        11        12        13     1      119.086830      414.102998    ;  uncertainty theta = 0.001900, k = 0.054749
        11        12        19     1      119.343956      404.100559    ;  uncertainty theta = 0.003466, k = 0.056820
        12        13        14     1      117.572205      511.876642    ;  uncertainty theta = 0.003371, k = 0.061622
        12        13        33     1      121.091873      274.405593    ;  uncertainty theta = 0.002810, k = 0.131879
        12        19        17     1      118.773666      526.320846    ;  uncertainty theta = 0.002077, k = 0.058614
        12        19        35     1      120.923935      280.016958    ;  uncertainty theta = 0.002145, k = 0.061882
        13        12        19     1      122.217529      383.559243    ;  uncertainty theta = 0.005220, k = 0.147263
        13        14        15     1      119.920059      437.226276    ;  uncertainty theta = 0.002174, k = 0.033206
        13        14        16     1      122.145401      368.717362    ;  uncertainty theta = 0.002168, k = 0.113067
        14        13        33     1      121.747643      289.192441    ;  uncertainty theta = 0.002015, k = 0.048386
        14        16        17     1      118.052811      502.707766    ;  uncertainty theta = 0.001811, k = 0.144155
        14        16        34     1      121.451340      292.498156    ;  uncertainty theta = 0.002606, k = 0.064374
        15        14        16     1      120.082375      440.618370    ;  uncertainty theta = 0.001564, k = 0.072900
        16        17        18     1      119.088196      371.245919    ;  uncertainty theta = 0.002595, k = 0.109987
        16        17        19     1      122.383377      452.770842    ;  uncertainty theta = 0.001986, k = 0.133559
        17        16        34     1      120.448280      281.288387    ;  uncertainty theta = 0.002973, k = 0.057649
        17        18        26     1      180.000000      233.965889    ;  uncertainty theta = 0.000000, k = 0.675759
        17        19        35     1      120.570068      284.115568    ;  uncertainty theta = 0.004390, k = 0.085654
        18        17        19     1      118.951149      374.549559    ;  uncertainty theta = 0.002360, k = 0.110111
        20        23        36     1      107.091141      365.748673    ;  uncertainty theta = 0.000911, k = 0.032818
        20        23        37     1      107.091141      365.748673    ;  uncertainty theta = 0.000911, k = 0.032818
        20        23        38     1      107.091141      365.748673    ;  uncertainty theta = 0.000911, k = 0.032818
        21        20        22     1      123.749496      835.305888    ;  uncertainty theta = 0.001537, k = 0.034574
        21        20        23     1      112.725998      740.054959    ;  uncertainty theta = 0.002021, k = 0.038936
        22        20        23     1      112.725998      740.054959    ;  uncertainty theta = 0.002021, k = 0.038936
        24         3        25     1      107.133316      788.630883    ;  uncertainty theta = 0.004222, k = 0.140640
        29         4        30     1      105.669456      291.017291    ;  uncertainty theta = 0.002858, k = 0.056929
        36        23        37     1      108.798363      296.170520    ;  uncertainty theta = 0.002208, k = 0.021202
        36        23        38     1      108.798363      296.170520    ;  uncertainty theta = 0.002208, k = 0.021202
        37        23        38     1      108.798363      296.170520    ;  uncertainty theta = 0.002208, k = 0.021202

[ dihedrals ] ; propers for gromacs 4.5 or higher, use funct 9
;       ai        aj        ak        al funct           phase               k        pn
         1         2         3         4     9        0.000000       -2.647338         1    ;  uncertainty k = 0.986579
         1         2         3         4     9      180.000000        1.652150         2    ;  uncertainty k = 0.518109
         1         2         3         4     9        0.000000        1.033401         3    ;  uncertainty k = 0.310740
         1         2         3         4     9      180.000000        0.042296         4    ;  uncertainty k = 0.270326
         1         2         3        24     9        0.000000       -0.282027         1    ;  uncertainty k = 1.406562
         1         2         3        24     9      180.000000        0.319715         2    ;  uncertainty k = 0.697098
         1         2         3        24     9        0.000000        1.460301         3    ;  uncertainty k = 0.368849
         1         2         3        24     9      180.000000        0.083291         4    ;  uncertainty k = 0.260871
         1         2         3        25     9        0.000000       -0.282027         1    ;  uncertainty k = 1.406562
         1         2         3        25     9      180.000000        0.319715         2    ;  uncertainty k = 0.697098
         1         2         3        25     9        0.000000        1.460301         3    ;  uncertainty k = 0.368849
         1         2         3        25     9      180.000000        0.083291         4    ;  uncertainty k = 0.260871
         1         2         6         5     9        0.000000       -4.179736         1    ;  uncertainty k = 2.250557
         1         2         6         5     9      180.000000        4.857700         2    ;  uncertainty k = 1.174849
         1         2         6         5     9        0.000000        1.077946         3    ;  uncertainty k = 0.695879
         1         2         6         5     9      180.000000        0.597958         4    ;  uncertainty k = 0.215354
         1         2         6         7     9        0.000000       -1.382138         1    ;  uncertainty k = 1.326128
         1         2         6         7     9      180.000000        3.413217         2    ;  uncertainty k = 0.230281
         1         2         6         7     9        0.000000       -0.118282         3    ;  uncertainty k = 0.267426
         1         2         6         7     9      180.000000        0.455005         4    ;  uncertainty k = 0.193326
         2         3         4         5     9        0.000000       -0.343517         1    ;  uncertainty k = 1.847992
         2         3         4         5     9      180.000000        1.882240         2    ;  uncertainty k = 0.624184
         2         3         4         5     9        0.000000       -0.007238         3    ;  uncertainty k = 0.517955
         2         3         4         5     9      180.000000       -0.165939         4    ;  uncertainty k = 0.372661
         2         3         4        29     9        0.000000       -0.273393         1    ;  uncertainty k = 0.290133
         2         3         4        29     9      180.000000       -0.226858         2    ;  uncertainty k = 0.647079
         2         3         4        29     9        0.000000       -0.001285         3    ;  uncertainty k = 0.213938
         2         3         4        29     9      180.000000       -0.023110         4    ;  uncertainty k = 0.191048
         2         3         4        30     9        0.000000       -0.273391         1    ;  uncertainty k = 0.290130
         2         3         4        30     9      180.000000       -0.226858         2    ;  uncertainty k = 0.647078
         2         3         4        30     9        0.000000       -0.001285         3    ;  uncertainty k = 0.213938
         2         3         4        30     9      180.000000       -0.023110         4    ;  uncertainty k = 0.191048
         2         6         5         4     9        0.000000        0.563487         1    ;  uncertainty k = 0.590609
         2         6         5         4     9      180.000000       11.734519         2    ;  uncertainty k = 0.633277
         2         6         5         4     9        0.000000       -0.493617         3    ;  uncertainty k = 0.931182
         2         6         5         4     9      180.000000        1.192741         4    ;  uncertainty k = 0.283697
         2         6         5        10     9        0.000000        0.617855         1    ;  uncertainty k = 0.530567
         2         6         5        10     9      180.000000        8.611012         2    ;  uncertainty k = 0.378628
         2         6         5        10     9        0.000000        0.664604         3    ;  uncertainty k = 0.278590
         2         6         5        10     9      180.000000        1.266824         4    ;  uncertainty k = 0.178525
         2         6         7         8     9        0.000000        0.335835         1    ;  uncertainty k = 0.501372
         2         6         7         8     9      180.000000        6.695341         2    ;  uncertainty k = 0.171193
         2         6         7         8     9        0.000000        1.251482         3    ;  uncertainty k = 0.185553
         2         6         7         8     9      180.000000        1.604439         4    ;  uncertainty k = 0.125628
         2         6         7        20     9        0.000000       -0.111515         1    ;  uncertainty k = 0.818345
         2         6         7        20     9      180.000000        6.715888         2    ;  uncertainty k = 0.509184
         2         6         7        20     9        0.000000        1.013534         3    ;  uncertainty k = 0.150875
         2         6         7        20     9      180.000000        1.216507         4    ;  uncertainty k = 0.199634
         3         2         1        27     9        0.000000       13.878324         1    ;  uncertainty k = 0.471464
         3         2         1        27     9      180.000000       -4.488746         2    ;  uncertainty k = 0.235496
         3         2         1        27     9        0.000000        1.023469         3    ;  uncertainty k = 0.242500
         3         2         1        27     9      180.000000        0.093198         4    ;  uncertainty k = 0.074143
         3         2         6         5     9        0.000000       -0.807527         1    ;  uncertainty k = 2.057160
         3         2         6         5     9      180.000000        8.609249         2    ;  uncertainty k = 1.026915
         3         2         6         5     9        0.000000       -1.068839         3    ;  uncertainty k = 0.488562
         3         2         6         5     9      180.000000        0.867961         4    ;  uncertainty k = 0.265289
         3         2         6         7     9        0.000000       -1.568833         1    ;  uncertainty k = 1.365680
         3         2         6         7     9      180.000000        3.652740         2    ;  uncertainty k = 0.572314
         3         2         6         7     9        0.000000        0.126348         3    ;  uncertainty k = 0.362760
         3         2         6         7     9      180.000000        0.661669         4    ;  uncertainty k = 0.248240
         3         4         5         6     9        0.000000       -2.099061         1    ;  uncertainty k = 1.580695
         3         4         5         6     9      180.000000        9.583122         2    ;  uncertainty k = 0.533021
         3         4         5         6     9        0.000000       -1.807467         3    ;  uncertainty k = 0.398975
         3         4         5         6     9      180.000000        0.941191         4    ;  uncertainty k = 0.130112
         3         4         5        10     9        0.000000       -0.358544         1    ;  uncertainty k = 0.756637
         3         4         5        10     9      180.000000        2.392009         2    ;  uncertainty k = 0.572052
         3         4         5        10     9        0.000000        0.130586         3    ;  uncertainty k = 0.228072
         3         4         5        10     9      180.000000        0.633389         4    ;  uncertainty k = 0.116399
         4         3         2         6     9        0.000000       -0.272332         1    ;  uncertainty k = 1.879280
         4         3         2         6     9      180.000000        1.239633         2    ;  uncertainty k = 0.641064
         4         3         2         6     9        0.000000        0.100530         3    ;  uncertainty k = 0.262273
         4         3         2         6     9      180.000000       -0.058192         4    ;  uncertainty k = 0.267878
         4         3         2        28     9        0.000000       -0.827317         1    ;  uncertainty k = 0.603778
         4         3         2        28     9      180.000000        0.450455         2    ;  uncertainty k = 0.547083
         4         3         2        28     9        0.000000        0.144562         3    ;  uncertainty k = 0.273661
         4         3         2        28     9      180.000000       -0.113838         4    ;  uncertainty k = 0.222036
         4         5         6         7     9        0.000000        0.254001         1    ;  uncertainty k = 0.553112
         4         5         6         7     9      180.000000        8.737780         2    ;  uncertainty k = 0.455120
         4         5         6         7     9        0.000000        0.699279         3    ;  uncertainty k = 0.417427
         4         5         6         7     9      180.000000        1.196896         4    ;  uncertainty k = 0.235929
         4         5        10         9     9        0.000000        0.518459         1    ;  uncertainty k = 0.343130
         4         5        10         9     9      180.000000        6.344712         2    ;  uncertainty k = 0.275591
         4         5        10         9     9        0.000000        1.307764         3    ;  uncertainty k = 0.252094
         4         5        10         9     9      180.000000        1.607039         4    ;  uncertainty k = 0.311378
         4         5        10        11     9        0.000000       -0.256142         1    ;  uncertainty k = 0.672790
         4         5        10        11     9      180.000000        8.952252         2    ;  uncertainty k = 0.235707
         4         5        10        11     9        0.000000        1.029589         3    ;  uncertainty k = 0.244809
         4         5        10        11     9      180.000000        1.249113         4    ;  uncertainty k = 0.161521
         5         4         3        24     9        0.000000       -0.911684         1    ;  uncertainty k = 0.942710
         5         4         3        24     9      180.000000        0.727772         2    ;  uncertainty k = 0.486490
         5         4         3        24     9        0.000000        1.114750         3    ;  uncertainty k = 0.312374
         5         4         3        24     9      180.000000        0.251148         4    ;  uncertainty k = 0.035387
         5         4         3        25     9        0.000000       -0.911684         1    ;  uncertainty k = 0.942710
         5         4         3        25     9      180.000000        0.727772         2    ;  uncertainty k = 0.486490
         5         4         3        25     9        0.000000        1.114750         3    ;  uncertainty k = 0.312374
         5         4         3        25     9      180.000000        0.251148         4    ;  uncertainty k = 0.035387
         5         6         2        28     9        0.000000       -0.799110         1    ;  uncertainty k = 0.614691
         5         6         2        28     9      180.000000        3.182750         2    ;  uncertainty k = 0.717130
         5         6         2        28     9        0.000000        0.780967         3    ;  uncertainty k = 0.177585
         5         6         2        28     9      180.000000        0.225409         4    ;  uncertainty k = 0.137774
         5         6         7         8     9        0.000000       -0.342500         1    ;  uncertainty k = 0.509769
         5         6         7         8     9      180.000000       10.061614         2    ;  uncertainty k = 0.477879
         5         6         7         8     9        0.000000       -0.634176         3    ;  uncertainty k = 0.383372
         5         6         7         8     9      180.000000        0.880427         4    ;  uncertainty k = 0.249327
         5         6         7        20     9        0.000000        0.616193         1    ;  uncertainty k = 0.976201
         5         6         7        20     9      180.000000        7.610669         2    ;  uncertainty k = 0.833643
         5         6         7        20     9        0.000000        1.514375         3    ;  uncertainty k = 0.544511
         5         6         7        20     9      180.000000        1.631525         4    ;  uncertainty k = 0.214606
         5        10         9         8     9        0.000000        0.280245         1    ;  uncertainty k = 0.258572
         5        10         9         8     9      180.000000        9.122248         2    ;  uncertainty k = 0.404933
         5        10         9         8     9        0.000000        0.207896         3    ;  uncertainty k = 0.442327
         5        10         9         8     9      180.000000        1.318152         4    ;  uncertainty k = 0.318671
         5        10         9        32     9        0.000000        0.158717         1    ;  uncertainty k = 0.363089
         5        10         9        32     9      180.000000        6.833378         2    ;  uncertainty k = 0.494089
         5        10         9        32     9        0.000000        1.376457         3    ;  uncertainty k = 0.512680
         5        10         9        32     9      180.000000        1.599173         4    ;  uncertainty k = 0.100053
         5        10        11        12     9        0.000000        4.372256         1    ;  uncertainty k = 0.652320
         5        10        11        12     9      180.000000        4.929529         2    ;  uncertainty k = 0.265465
         5        10        11        12     9        0.000000        0.708662         3    ;  uncertainty k = 0.048028
         5        10        11        12     9      180.000000        0.148670         4    ;  uncertainty k = 0.078601
         6         2         1        27     9        0.000000       14.766720         1    ;  uncertainty k = 0.394435
         6         2         1        27     9      180.000000       -3.759770         2    ;  uncertainty k = 0.634810
         6         2         1        27     9        0.000000        1.022381         3    ;  uncertainty k = 0.166311
         6         2         1        27     9      180.000000        0.077647         4    ;  uncertainty k = 0.054394
         6         2         3        24     9        0.000000        0.060211         1    ;  uncertainty k = 0.948655
         6         2         3        24     9      180.000000        0.587645         2    ;  uncertainty k = 0.967573
         6         2         3        24     9        0.000000        0.941541         3    ;  uncertainty k = 0.190284
         6         2         3        24     9      180.000000        0.254526         4    ;  uncertainty k = 0.052110
         6         2         3        25     9        0.000000        0.060211         1    ;  uncertainty k = 0.948655
         6         2         3        25     9      180.000000        0.587645         2    ;  uncertainty k = 0.967573
         6         2         3        25     9        0.000000        0.941541         3    ;  uncertainty k = 0.190284
         6         2         3        25     9      180.000000        0.254526         4    ;  uncertainty k = 0.052110
         6         5         4        29     9        0.000000       -0.197047         1    ;  uncertainty k = 0.397255
         6         5         4        29     9      180.000000        1.705944         2    ;  uncertainty k = 0.330542
         6         5         4        29     9        0.000000        0.272656         3    ;  uncertainty k = 0.105170
         6         5         4        29     9      180.000000        0.226928         4    ;  uncertainty k = 0.108175
         6         5         4        30     9        0.000000       -0.197047         1    ;  uncertainty k = 0.397256
         6         5         4        30     9      180.000000        1.705945         2    ;  uncertainty k = 0.330542
         6         5         4        30     9        0.000000        0.272655         3    ;  uncertainty k = 0.105170
         6         5         4        30     9      180.000000        0.226928         4    ;  uncertainty k = 0.108174
         6         5        10         9     9        0.000000       -0.207477         1    ;  uncertainty k = 0.201096
         6         5        10         9     9      180.000000        8.229922         2    ;  uncertainty k = 0.547118
         6         5        10         9     9        0.000000       -0.449906         3    ;  uncertainty k = 0.466078
         6         5        10         9     9      180.000000        1.068029         4    ;  uncertainty k = 0.293923
         6         5        10        11     9        0.000000       -0.004735         1    ;  uncertainty k = 0.225311
         6         5        10        11     9      180.000000        9.752378         2    ;  uncertainty k = 0.350549
         6         5        10        11     9        0.000000        1.380330         3    ;  uncertainty k = 0.263765
         6         5        10        11     9      180.000000        1.505053         4    ;  uncertainty k = 0.179577
         6         7         8         9     9        0.000000       -0.233257         1    ;  uncertainty k = 0.449579
         6         7         8         9     9      180.000000       10.274183         2    ;  uncertainty k = 0.540561
         6         7         8         9     9        0.000000       -0.280207         3    ;  uncertainty k = 0.393771
         6         7         8         9     9      180.000000        1.061252         4    ;  uncertainty k = 0.405907
         6         7         8        31     9        0.000000        0.018528         1    ;  uncertainty k = 0.436800
         6         7         8        31     9      180.000000        7.335572         2    ;  uncertainty k = 0.550583
         6         7         8        31     9        0.000000        1.276814         3    ;  uncertainty k = 0.441951
         6         7         8        31     9      180.000000        1.641330         4    ;  uncertainty k = 0.128830
         6         7        20        21     9        0.000000       -1.760759         1    ;  uncertainty k = 1.511653
         6         7        20        21     9      180.000000        0.641175         2    ;  uncertainty k = 0.243938
         6         7        20        21     9        0.000000        0.467412         3    ;  uncertainty k = 0.117650
         6         7        20        21     9      180.000000       -0.000489         4    ;  uncertainty k = 0.152261
         6         7        20        22     9        0.000000       -1.760759         1    ;  uncertainty k = 1.511653
         6         7        20        22     9      180.000000        0.641175         2    ;  uncertainty k = 0.243938
         6         7        20        22     9        0.000000        0.467412         3    ;  uncertainty k = 0.117650
         6         7        20        22     9      180.000000       -0.000489         4    ;  uncertainty k = 0.152261
         6         7        20        23     9        0.000000        1.890159         1    ;  uncertainty k = 1.390076
         6         7        20        23     9      180.000000        0.002262         2    ;  uncertainty k = 0.309537
         6         7        20        23     9        0.000000        0.482256         3    ;  uncertainty k = 0.446738
         6         7        20        23     9      180.000000        0.325411         4    ;  uncertainty k = 0.139824
         7         6         2        28     9        0.000000        1.551276         1    ;  uncertainty k = 0.896742
         7         6         2        28     9      180.000000        2.266270         2    ;  uncertainty k = 0.595127
         7         6         2        28     9        0.000000       -0.122899         3    ;  uncertainty k = 0.085075
         7         6         2        28     9      180.000000        0.174017         4    ;  uncertainty k = 0.218348
         7         6         5        10     9        0.000000       -0.006697         1    ;  uncertainty k = 0.671054
         7         6         5        10     9      180.000000        8.483752         2    ;  uncertainty k = 0.371347
         7         6         5        10     9        0.000000        0.108114         3    ;  uncertainty k = 0.212778
         7         6         5        10     9      180.000000        1.105140         4    ;  uncertainty k = 0.309860
         7         8         9        10     9        0.000000        0.147324         1    ;  uncertainty k = 0.305377
         7         8         9        10     9      180.000000       12.185240         2    ;  uncertainty k = 0.411442
         7         8         9        10     9        0.000000       -0.923964         3    ;  uncertainty k = 0.681561
         7         8         9        10     9      180.000000        0.867155         4    ;  uncertainty k = 0.362700
         7         8         9        32     9        0.000000       -0.035163         1    ;  uncertainty k = 0.554802
         7         8         9        32     9      180.000000        8.075942         2    ;  uncertainty k = 0.251180
         7         8         9        32     9        0.000000        1.209880         3    ;  uncertainty k = 0.217278
         7         8         9        32     9      180.000000        1.702182         4    ;  uncertainty k = 0.081112
         7        20        23        36     9        0.000000        2.487394         1    ;  uncertainty k = 1.032132
         7        20        23        36     9      180.000000       -2.818561         2    ;  uncertainty k = 0.665280
         7        20        23        36     9        0.000000        0.223573         3    ;  uncertainty k = 0.048188
         7        20        23        36     9      180.000000       -0.012767         4    ;  uncertainty k = 0.114234
         7        20        23        37     9        0.000000        2.487394         1    ;  uncertainty k = 1.032132
         7        20        23        37     9      180.000000       -2.818561         2    ;  uncertainty k = 0.665280
         7        20        23        37     9        0.000000        0.223573         3    ;  uncertainty k = 0.048188
         7        20        23        37     9      180.000000       -0.012767         4    ;  uncertainty k = 0.114234
         7        20        23        38     9        0.000000        2.487394         1    ;  uncertainty k = 1.032132
         7        20        23        38     9      180.000000       -2.818561         2    ;  uncertainty k = 0.665280
         7        20        23        38     9        0.000000        0.223573         3    ;  uncertainty k = 0.048188
         7        20        23        38     9      180.000000       -0.012767         4    ;  uncertainty k = 0.114234
         8         7        20        21     9        0.000000       -1.194620         1    ;  uncertainty k = 0.735994
         8         7        20        21     9      180.000000        0.883060         2    ;  uncertainty k = 0.747681
         8         7        20        21     9        0.000000        0.283093         3    ;  uncertainty k = 0.256703
         8         7        20        21     9      180.000000       -0.079117         4    ;  uncertainty k = 0.168994
         8         7        20        22     9        0.000000       -1.194620         1    ;  uncertainty k = 0.735994
         8         7        20        22     9      180.000000        0.883060         2    ;  uncertainty k = 0.747681
         8         7        20        22     9        0.000000        0.283093         3    ;  uncertainty k = 0.256703
         8         7        20        22     9      180.000000       -0.079117         4    ;  uncertainty k = 0.168994
         8         7        20        23     9        0.000000        1.084553         1    ;  uncertainty k = 1.144114
         8         7        20        23     9      180.000000        0.191807         2    ;  uncertainty k = 0.505016
         8         7        20        23     9        0.000000        0.100706         3    ;  uncertainty k = 0.400963
         8         7        20        23     9      180.000000        0.427495         4    ;  uncertainty k = 0.211814
         8         9        10        11     9        0.000000       -0.033994         1    ;  uncertainty k = 0.264969
         8         9        10        11     9      180.000000       10.936317         2    ;  uncertainty k = 0.461307
         8         9        10        11     9        0.000000        1.458476         3    ;  uncertainty k = 0.285295
         8         9        10        11     9      180.000000        1.742060         4    ;  uncertainty k = 0.233717
         9         8         7        20     9        0.000000        0.424240         1    ;  uncertainty k = 0.342873
         9         8         7        20     9      180.000000        8.761164         2    ;  uncertainty k = 0.424492
         9         8         7        20     9        0.000000        1.427371         3    ;  uncertainty k = 0.328447
         9         8         7        20     9      180.000000        1.836841         4    ;  uncertainty k = 0.100882
         9        10        11        12     9        0.000000        5.013948         1    ;  uncertainty k = 0.402823
         9        10        11        12     9      180.000000        5.542277         2    ;  uncertainty k = 0.153629
         9        10        11        12     9        0.000000        0.369093         3    ;  uncertainty k = 0.090838
         9        10        11        12     9      180.000000        0.189476         4    ;  uncertainty k = 0.087737
        10         5         4        29     9        0.000000        0.663848         1    ;  uncertainty k = 0.191361
        10         5         4        29     9      180.000000        1.639552         2    ;  uncertainty k = 0.602386
        10         5         4        29     9        0.000000        0.155148         3    ;  uncertainty k = 0.250582
        10         5         4        29     9      180.000000        0.226015         4    ;  uncertainty k = 0.144143
        10         5         4        30     9        0.000000        0.663847         1    ;  uncertainty k = 0.191361
        10         5         4        30     9      180.000000        1.639551         2    ;  uncertainty k = 0.602386
        10         5         4        30     9        0.000000        0.155149         3    ;  uncertainty k = 0.250583
        10         5         4        30     9      180.000000        0.226015         4    ;  uncertainty k = 0.144143
        10         9         8        31     9        0.000000       -0.127361         1    ;  uncertainty k = 0.290315
        10         9         8        31     9      180.000000        7.731877         2    ;  uncertainty k = 0.143827
        10         9         8        31     9        0.000000        1.067107         3    ;  uncertainty k = 0.211598
        10         9         8        31     9      180.000000        1.723182         4    ;  uncertainty k = 0.069705
        10        11        12        13     9        0.000000        4.235950         1    ;  uncertainty k = 0.377964
        10        11        12        13     9      180.000000        5.233601         2    ;  uncertainty k = 0.287911
        10        11        12        13     9        0.000000        0.421842         3    ;  uncertainty k = 0.112558
        10        11        12        13     9      180.000000        0.173410         4    ;  uncertainty k = 0.100732
        10        11        12        19     9        0.000000        4.236197         1    ;  uncertainty k = 0.413098
        10        11        12        19     9      180.000000        5.516584         2    ;  uncertainty k = 0.300549
        10        11        12        19     9        0.000000        0.370218         3    ;  uncertainty k = 0.163452
        10        11        12        19     9      180.000000        0.154612         4    ;  uncertainty k = 0.115166
        11        10         9        32     9        0.000000       -0.035730         1    ;  uncertainty k = 0.156072
        11        10         9        32     9      180.000000        9.076228         2    ;  uncertainty k = 0.360465
        11        10         9        32     9        0.000000        0.847615         3    ;  uncertainty k = 0.227202
        11        10         9        32     9      180.000000        1.129216         4    ;  uncertainty k = 0.139641
        11        12        13        14     9        0.000000        0.094299         1    ;  uncertainty k = 0.225913
        11        12        13        14     9      180.000000       11.052415         2    ;  uncertainty k = 0.257876
        11        12        13        14     9        0.000000        1.274698         3    ;  uncertainty k = 0.141631
        11        12        13        14     9      180.000000        1.588168         4    ;  uncertainty k = 0.119316
        11        12        13        33     9        0.000000       -0.086953         1    ;  uncertainty k = 0.141907
        11        12        13        33     9      180.000000        8.506469         2    ;  uncertainty k = 0.325833
        11        12        13        33     9        0.000000        0.830697         3    ;  uncertainty k = 0.219014
        11        12        13        33     9      180.000000        1.115929         4    ;  uncertainty k = 0.119550
        11        12        19        17     9        0.000000       -0.063351         1    ;  uncertainty k = 0.241130
        11        12        19        17     9      180.000000       11.351106         2    ;  uncertainty k = 0.464181
        11        12        19        17     9        0.000000        1.193198         3    ;  uncertainty k = 0.081715
        11        12        19        17     9      180.000000        1.616204         4    ;  uncertainty k = 0.143719
        11        12        19        35     9        0.000000        0.117625         1    ;  uncertainty k = 0.176172
        11        12        19        35     9      180.000000        8.519756         2    ;  uncertainty k = 0.321587
        11        12        19        35     9        0.000000        0.853851         3    ;  uncertainty k = 0.299173
        11        12        19        35     9      180.000000        1.150229         4    ;  uncertainty k = 0.176326
        12        13        14        15     9        0.000000        0.054504         1    ;  uncertainty k = 0.263564
        12        13        14        15     9      180.000000        9.552881         2    ;  uncertainty k = 0.644960
        12        13        14        15     9        0.000000        1.430386         3    ;  uncertainty k = 0.471759
        12        13        14        15     9      180.000000        1.649259         4    ;  uncertainty k = 0.187193
        12        13        14        16     9        0.000000       -0.125921         1    ;  uncertainty k = 0.147689
        12        13        14        16     9      180.000000        9.580005         2    ;  uncertainty k = 0.346486
        12        13        14        16     9        0.000000        0.038513         3    ;  uncertainty k = 0.514626
        12        13        14        16     9      180.000000        1.239125         4    ;  uncertainty k = 0.308326
        12        19        17        16     9        0.000000       -0.163713         1    ;  uncertainty k = 0.296412
        12        19        17        16     9      180.000000       11.385441         2    ;  uncertainty k = 0.224809
        12        19        17        16     9        0.000000       -0.371883         3    ;  uncertainty k = 0.536688
        12        19        17        16     9      180.000000        1.121721         4    ;  uncertainty k = 0.251139
        12        19        17        18     9        0.000000        0.008101         1    ;  uncertainty k = 0.244940
        12        19        17        18     9      180.000000       10.097926         2    ;  uncertainty k = 0.326943
        12        19        17        18     9        0.000000        1.305272         3    ;  uncertainty k = 0.287130
        12        19        17        18     9      180.000000        1.632000         4    ;  uncertainty k = 0.195948
        13        12        19        17     9        0.000000       -0.092407         1    ;  uncertainty k = 0.224576
        13        12        19        17     9      180.000000        9.481704         2    ;  uncertainty k = 0.504688
        13        12        19        17     9        0.000000        0.201344         3    ;  uncertainty k = 0.371024
        13        12        19        17     9      180.000000        1.247550         4    ;  uncertainty k = 0.390675
        13        12        19        35     9        0.000000        0.318366         1    ;  uncertainty k = 0.215924
        13        12        19        35     9      180.000000        6.266364         2    ;  uncertainty k = 0.733850
        13        12        19        35     9        0.000000        1.471437         3    ;  uncertainty k = 0.269861
        13        12        19        35     9      180.000000        1.587327         4    ;  uncertainty k = 0.184423
        13        14        16        17     9        0.000000       -0.117365         1    ;  uncertainty k = 0.228700
        13        14        16        17     9      180.000000       10.150439         2    ;  uncertainty k = 0.296859
        13        14        16        17     9        0.000000        0.060024         3    ;  uncertainty k = 0.328658
        13        14        16        17     9      180.000000        1.193935         4    ;  uncertainty k = 0.303051
        13        14        16        34     9        0.000000        0.009886         1    ;  uncertainty k = 0.238840
        13        14        16        34     9      180.000000        6.320509         2    ;  uncertainty k = 0.630528
        13        14        16        34     9        0.000000        1.429012         3    ;  uncertainty k = 0.299383
        13        14        16        34     9      180.000000        1.559133         4    ;  uncertainty k = 0.130910
        14        13        12        19     9        0.000000        0.076564         1    ;  uncertainty k = 0.088311
        14        13        12        19     9      180.000000        9.347566         2    ;  uncertainty k = 0.675715
        14        13        12        19     9        0.000000       -0.053729         3    ;  uncertainty k = 0.479686
        14        13        12        19     9      180.000000        1.161174         4    ;  uncertainty k = 0.369347
        14        16        17        18     9        0.000000        0.062678         1    ;  uncertainty k = 0.285058
        14        16        17        18     9      180.000000       10.014856         2    ;  uncertainty k = 0.351851
        14        16        17        18     9        0.000000        1.323375         3    ;  uncertainty k = 0.226365
        14        16        17        18     9      180.000000        1.687889         4    ;  uncertainty k = 0.183236
        14        16        17        19     9        0.000000       -0.005759         1    ;  uncertainty k = 0.243892
        14        16        17        19     9      180.000000       11.635004         2    ;  uncertainty k = 0.490245
        14        16        17        19     9        0.000000       -0.639211         3    ;  uncertainty k = 0.460378
        14        16        17        19     9      180.000000        0.995090         4    ;  uncertainty k = 0.316358
        15        14        13        33     9        0.000000       -0.166117         1    ;  uncertainty k = 0.209041
        15        14        13        33     9      180.000000        7.394038         2    ;  uncertainty k = 0.372468
        15        14        13        33     9        0.000000        0.624457         3    ;  uncertainty k = 0.345244
        15        14        13        33     9      180.000000        0.990046         4    ;  uncertainty k = 0.159063
        15        14        16        17     9        0.000000       -0.046128         1    ;  uncertainty k = 0.219725
        15        14        16        17     9      180.000000       10.047582         2    ;  uncertainty k = 0.457698
        15        14        16        17     9        0.000000        1.331351         3    ;  uncertainty k = 0.366314
        15        14        16        17     9      180.000000        1.628094         4    ;  uncertainty k = 0.164188
        15        14        16        34     9        0.000000       -0.056848         1    ;  uncertainty k = 0.317892
        15        14        16        34     9      180.000000        7.514199         2    ;  uncertainty k = 0.244540
        15        14        16        34     9        0.000000        0.609333         3    ;  uncertainty k = 0.303019
        15        14        16        34     9      180.000000        0.985686         4    ;  uncertainty k = 0.098473
        16        14        13        33     9        0.000000        0.072915         1    ;  uncertainty k = 0.272940
        16        14        13        33     9      180.000000        6.256124         2    ;  uncertainty k = 0.618273
        16        14        13        33     9        0.000000        1.465429         3    ;  uncertainty k = 0.304286
        16        14        13        33     9      180.000000        1.558793         4    ;  uncertainty k = 0.139935
        16        17        18        26     9        0.000000        0.000000         1    ;  uncertainty k = 0.000000
        16        17        18        26     9      180.000000        0.000000         2    ;  uncertainty k = 0.000000
        16        17        18        26     9        0.000000        0.000000         3    ;  uncertainty k = 0.000000
        16        17        18        26     9      180.000000        0.000000         4    ;  uncertainty k = 0.000000
        16        17        19        35     9        0.000000        0.220599         1    ;  uncertainty k = 0.415152
        16        17        19        35     9      180.000000        6.658871         2    ;  uncertainty k = 0.648520
        16        17        19        35     9        0.000000        1.475713         3    ;  uncertainty k = 0.265560
        16        17        19        35     9      180.000000        1.658223         4    ;  uncertainty k = 0.133750
        18        17        16        34     9        0.000000       -0.379555         1    ;  uncertainty k = 0.440417
        18        17        16        34     9      180.000000        7.221678         2    ;  uncertainty k = 0.161186
        18        17        16        34     9        0.000000        0.567046         3    ;  uncertainty k = 0.093387
        18        17        16        34     9      180.000000        1.001892         4    ;  uncertainty k = 0.234284
        18        17        19        35     9        0.000000       -0.300444         1    ;  uncertainty k = 0.298533
        18        17        19        35     9      180.000000        7.453806         2    ;  uncertainty k = 0.331146
        18        17        19        35     9        0.000000        0.535506         3    ;  uncertainty k = 0.130931
        18        17        19        35     9      180.000000        0.960578         4    ;  uncertainty k = 0.206688
        19        12        13        33     9        0.000000        0.251386         1    ;  uncertainty k = 0.168889
        19        12        13        33     9      180.000000        6.015765         2    ;  uncertainty k = 0.718268
        19        12        13        33     9        0.000000        1.481013         3    ;  uncertainty k = 0.351730
        19        12        13        33     9      180.000000        1.600689         4    ;  uncertainty k = 0.145415
        19        17        16        34     9        0.000000        0.122655         1    ;  uncertainty k = 0.491973
        19        17        16        34     9      180.000000        6.779486         2    ;  uncertainty k = 0.585975
        19        17        16        34     9        0.000000        1.432961         3    ;  uncertainty k = 0.355600
        19        17        16        34     9      180.000000        1.613177         4    ;  uncertainty k = 0.097737
        19        17        18        26     9        0.000000        0.000000         1    ;  uncertainty k = 0.000000
        19        17        18        26     9      180.000000        0.000000         2    ;  uncertainty k = 0.000000
        19        17        18        26     9        0.000000        0.000000         3    ;  uncertainty k = 0.000000
        19        17        18        26     9      180.000000        0.000000         4    ;  uncertainty k = 0.000000
        20         7         8        31     9        0.000000       -0.410852         1    ;  uncertainty k = 0.419932
        20         7         8        31     9      180.000000        6.701047         2    ;  uncertainty k = 0.507181
        20         7         8        31     9        0.000000        0.717292         3    ;  uncertainty k = 0.239686
        20         7         8        31     9      180.000000        1.151765         4    ;  uncertainty k = 0.225891
        21        20        23        36     9        0.000000       -0.093839         1    ;  uncertainty k = 0.688226
        21        20        23        36     9      180.000000       -0.300703         2    ;  uncertainty k = 0.369926
        21        20        23        36     9        0.000000        0.802296         3    ;  uncertainty k = 0.041185
        21        20        23        36     9      180.000000        0.029328         4    ;  uncertainty k = 0.091442
        21        20        23        37     9        0.000000       -0.093839         1    ;  uncertainty k = 0.688226
        21        20        23        37     9      180.000000       -0.300703         2    ;  uncertainty k = 0.369926
        21        20        23        37     9        0.000000        0.802296         3    ;  uncertainty k = 0.041185
        21        20        23        37     9      180.000000        0.029328         4    ;  uncertainty k = 0.091442
        21        20        23        38     9        0.000000       -0.093839         1    ;  uncertainty k = 0.688226
        21        20        23        38     9      180.000000       -0.300703         2    ;  uncertainty k = 0.369926
        21        20        23        38     9        0.000000        0.802296         3    ;  uncertainty k = 0.041185
        21        20        23        38     9      180.000000        0.029328         4    ;  uncertainty k = 0.091442
        22        20        23        36     9        0.000000       -0.093839         1    ;  uncertainty k = 0.688226
        22        20        23        36     9      180.000000       -0.300703         2    ;  uncertainty k = 0.369926
        22        20        23        36     9        0.000000        0.802296         3    ;  uncertainty k = 0.041185
        22        20        23        36     9      180.000000        0.029328         4    ;  uncertainty k = 0.091442
        22        20        23        37     9        0.000000       -0.093839         1    ;  uncertainty k = 0.688226
        22        20        23        37     9      180.000000       -0.300703         2    ;  uncertainty k = 0.369926
        22        20        23        37     9        0.000000        0.802296         3    ;  uncertainty k = 0.041185
        22        20        23        37     9      180.000000        0.029328         4    ;  uncertainty k = 0.091442
        22        20        23        38     9        0.000000       -0.093839         1    ;  uncertainty k = 0.688226
        22        20        23        38     9      180.000000       -0.300703         2    ;  uncertainty k = 0.369926
        22        20        23        38     9        0.000000        0.802296         3    ;  uncertainty k = 0.041185
        22        20        23        38     9      180.000000        0.029328         4    ;  uncertainty k = 0.091442
        24         3         2        28     9        0.000000        0.263490         1    ;  uncertainty k = 0.330046
        24         3         2        28     9      180.000000       -0.590094         2    ;  uncertainty k = 0.306730
        24         3         2        28     9        0.000000        0.721400         3    ;  uncertainty k = 0.176946
        24         3         2        28     9      180.000000        0.079588         4    ;  uncertainty k = 0.136498
        24         3         4        29     9        0.000000        0.273366         1    ;  uncertainty k = 0.288472
        24         3         4        29     9      180.000000       -0.700450         2    ;  uncertainty k = 0.314491
        24         3         4        29     9        0.000000        0.866669         3    ;  uncertainty k = 0.217754
        24         3         4        29     9      180.000000        0.036836         4    ;  uncertainty k = 0.054095
        24         3         4        30     9        0.000000        0.273367         1    ;  uncertainty k = 0.288473
        24         3         4        30     9      180.000000       -0.700448         2    ;  uncertainty k = 0.314492
        24         3         4        30     9        0.000000        0.866670         3    ;  uncertainty k = 0.217754
        24         3         4        30     9      180.000000        0.036836         4    ;  uncertainty k = 0.054095
        25         3         2        28     9        0.000000        0.263490         1    ;  uncertainty k = 0.330046
        25         3         2        28     9      180.000000       -0.590094         2    ;  uncertainty k = 0.306730
        25         3         2        28     9        0.000000        0.721400         3    ;  uncertainty k = 0.176946
        25         3         2        28     9      180.000000        0.079588         4    ;  uncertainty k = 0.136498
        25         3         4        29     9        0.000000        0.273366         1    ;  uncertainty k = 0.288472
        25         3         4        29     9      180.000000       -0.700450         2    ;  uncertainty k = 0.314491
        25         3         4        29     9        0.000000        0.866669         3    ;  uncertainty k = 0.217754
        25         3         4        29     9      180.000000        0.036836         4    ;  uncertainty k = 0.054095
        25         3         4        30     9        0.000000        0.273367         1    ;  uncertainty k = 0.288473
        25         3         4        30     9      180.000000       -0.700448         2    ;  uncertainty k = 0.314492
        25         3         4        30     9        0.000000        0.866670         3    ;  uncertainty k = 0.217754
        25         3         4        30     9      180.000000        0.036836         4    ;  uncertainty k = 0.054095
        27         1         2        28     9        0.000000       11.846445         1    ;  uncertainty k = 0.691990
        27         1         2        28     9      180.000000       -0.796078         2    ;  uncertainty k = 0.286325
        27         1         2        28     9        0.000000        0.793238         3    ;  uncertainty k = 0.211936
        27         1         2        28     9      180.000000        0.184425         4    ;  uncertainty k = 0.129100
        31         8         9        32     9        0.000000       -0.148347         1    ;  uncertainty k = 0.464573
        31         8         9        32     9      180.000000        7.480539         2    ;  uncertainty k = 0.398475
        31         8         9        32     9        0.000000       -0.315297         3    ;  uncertainty k = 0.269715
        31         8         9        32     9      180.000000        0.257011         4    ;  uncertainty k = 0.091432

[ dihedrals ] ; impropers
;       ai        aj        ak        al funct           phase               k        pn
         5         4         6        10     4      180.000000        5.177914         2    ;  uncertainty k = 0.291489
         5         6        10         4     4      180.000000        5.177914         2    ;  uncertainty k = 0.291489
         5        10         4         6     4      180.000000        5.177914         2    ;  uncertainty k = 0.291489
         6         2         5         7     4      180.000000        6.032675         2    ;  uncertainty k = 0.133123
         6         5         7         2     4      180.000000        6.032675         2    ;  uncertainty k = 0.133123
         6         7         2         5     4      180.000000        6.032675         2    ;  uncertainty k = 0.133123
         7         6         8        20     4      180.000000        4.942433         2    ;  uncertainty k = 0.331484
         7         8        20         6     4      180.000000        4.942433         2    ;  uncertainty k = 0.331484
         7        20         6         8     4      180.000000        4.942433         2    ;  uncertainty k = 0.331484
         8         7         9        31     4      180.000000        4.826789         2    ;  uncertainty k = 0.064410
         8         9        31         7     4      180.000000        4.826789         2    ;  uncertainty k = 0.064410
         8        31         7         9     4      180.000000        4.826789         2    ;  uncertainty k = 0.064410
         9         8        10        32     4      180.000000        1.927774         2    ;  uncertainty k = 0.075887
         9        10        32         8     4      180.000000        1.927774         2    ;  uncertainty k = 0.075887
         9        32         8        10     4      180.000000        1.927774         2    ;  uncertainty k = 0.075887
        10         5         9        11     4      180.000000       17.467308         2    ;  uncertainty k = 0.096773
        10         9        11         5     4      180.000000       17.467308         2    ;  uncertainty k = 0.096773
        10        11         5         9     4      180.000000       17.467308         2    ;  uncertainty k = 0.096773
        12        11        13        19     4      180.000000       18.428107         2    ;  uncertainty k = 0.052871
        12        13        19        11     4      180.000000       18.428107         2    ;  uncertainty k = 0.052871
        12        19        11        13     4      180.000000       18.428107         2    ;  uncertainty k = 0.052871
        13        12        14        33     4      180.000000        2.974725         2    ;  uncertainty k = 0.224676
        13        14        33        12     4      180.000000        2.974725         2    ;  uncertainty k = 0.224676
        13        33        12        14     4      180.000000        2.974725         2    ;  uncertainty k = 0.224676
        14        13        15        16     4      180.000000       13.801648         2    ;  uncertainty k = 0.112998
        14        15        16        13     4      180.000000       13.801648         2    ;  uncertainty k = 0.112998
        14        16        13        15     4      180.000000       13.801648         2    ;  uncertainty k = 0.112998
        16        14        17        34     4      180.000000        3.473812         2    ;  uncertainty k = 0.311291
        16        17        34        14     4      180.000000        3.473812         2    ;  uncertainty k = 0.311291
        16        34        14        17     4      180.000000        3.473812         2    ;  uncertainty k = 0.311291
        17        16        18        19     4      180.000000       11.240074         2    ;  uncertainty k = 0.181996
        17        18        19        16     4      180.000000       11.240074         2    ;  uncertainty k = 0.181996
        17        19        16        18     4      180.000000       11.240074         2    ;  uncertainty k = 0.181996
        19        12        17        35     4      180.000000        3.180866         2    ;  uncertainty k = 0.242645
        19        17        35        12     4      180.000000        3.180866         2    ;  uncertainty k = 0.242645
        19        35        12        17     4      180.000000        3.180866         2    ;  uncertainty k = 0.242645

[ pairs ]
;       ai        aj funct
         1         4     1
         1         5     1
         1         7     1
         1        24     1
         1        25     1
         2         8     1
         2        10     1
         2        20     1
         2        29     1
         2        30     1
         3         7     1
         3        10     1
         3        27     1
         4         7     1
         4         9     1
         4        11     1
         4        28     1
         5         8     1
         5        12     1
         5        20     1
         5        24     1
         5        25     1
         5        28     1
         5        32     1
         6         9     1
         6        11     1
         6        21     1
         6        22     1
         6        23     1
         6        24     1
         6        25     1
         6        27     1
         6        29     1
         6        30     1
         6        31     1
         7        10     1
         7        28     1
         7        32     1
         7        36     1
         7        37     1
         7        38     1
         8        11     1
         8        21     1
         8        22     1
         8        23     1
         9        12     1
         9        20     1
        10        13     1
        10        19     1
        10        29     1
        10        30     1
        10        31     1
        11        14     1
        11        17     1
        11        32     1
        11        33     1
        11        35     1
        12        15     1
        12        16     1
        12        18     1
        13        17     1
        13        34     1
        13        35     1
        14        18     1
        14        19     1
        15        17     1
        15        33     1
        15        34     1
        16        26     1
        16        33     1
        16        35     1
        18        34     1
        18        35     1
        19        26     1
        19        33     1
        19        34     1
        20        31     1
        21        36     1
        21        37     1
        21        38     1
        22        36     1
        22        37     1
        22        38     1
        24        28     1
        24        29     1
        24        30     1
        25        28     1
        25        29     1
        25        30     1
        27        28     1
        31        32     1
