; ITP file created by ByteFF-joint-25, 2026-02-17 09:18:11.137643

[ atomtypes ]
;name           bonded.type        at.num        mass        charge   ptype           sigma         epsilon
 o0bf                                   8      0.0000       0.00000       A     3.24314e-01     3.87820e-01    ;  uncertainty sigma = 0.000033, epsilon = 0.000883
 c1bf                                   6      0.0000       0.00000       A     3.39735e-01     4.50327e-01    ;  uncertainty sigma = 0.000031, epsilon = 0.001400
 c2bf                                   6      0.0000       0.00000       A     3.39804e-01     4.51139e-01    ;  uncertainty sigma = 0.000023, epsilon = 0.001153
 c3bf                                   6      0.0000       0.00000       A     3.39790e-01     4.50784e-01    ;  uncertainty sigma = 0.000016, epsilon = 0.000744
 c4bf                                   6      0.0000       0.00000       A     3.31546e-01     4.13508e-01    ;  uncertainty sigma = 0.000009, epsilon = 0.000938
 c5bf                                   6      0.0000       0.00000       A     3.31550e-01     4.12695e-01    ;  uncertainty sigma = 0.000025, epsilon = 0.001567
 c6bf                                   6      0.0000       0.00000       A     3.31544e-01     4.13016e-01    ;  uncertainty sigma = 0.000020, epsilon = 0.001774
 c7bf                                   6      0.0000       0.00000       A     3.31477e-01     4.13298e-01    ;  uncertainty sigma = 0.000019, epsilon = 0.000254
 c8bf                                   6      0.0000       0.00000       A     3.31528e-01     4.13628e-01    ;  uncertainty sigma = 0.000009, epsilon = 0.000546
 c9bf                                   6      0.0000       0.00000       A     3.31532e-01     4.13247e-01    ;  uncertainty sigma = 0.000015, epsilon = 0.000649
 o10bf                                  8      0.0000       0.00000       A     3.15466e-01     3.01673e-01    ;  uncertainty sigma = 0.000036, epsilon = 0.000697
 c11bf                                  6      0.0000       0.00000       A     3.31518e-01     4.13806e-01    ;  uncertainty sigma = 0.000012, epsilon = 0.000751
 c12bf                                  6      0.0000       0.00000       A     3.31505e-01     4.13077e-01    ;  uncertainty sigma = 0.000006, epsilon = 0.000565
 n13bf                                  7      0.0000       0.00000       A     3.38404e-01     3.93372e-01    ;  uncertainty sigma = 0.000009, epsilon = 0.001235
 c14bf                                  6      0.0000       0.00000       A     3.31504e-01     4.13190e-01    ;  uncertainty sigma = 0.000010, epsilon = 0.000779
 c15bf                                  6      0.0000       0.00000       A     3.31509e-01     4.13695e-01    ;  uncertainty sigma = 0.000008, epsilon = 0.000872
 c16bf                                  6      0.0000       0.00000       A     3.47930e-01     6.68272e-01    ;  uncertainty sigma = 0.000028, epsilon = 0.001762
 c17bf                                  6      0.0000       0.00000       A     3.31522e-01     4.13300e-01    ;  uncertainty sigma = 0.000010, epsilon = 0.000871
 s18bf                                 16      0.0000       0.00000       A     4.06004e-01     2.59145e-01    ;  uncertainty sigma = 0.000053, epsilon = 0.004837
 o19bf                                  8      0.0000       0.00000       A     3.04749e-01     6.10527e-01    ;  uncertainty sigma = 0.000044, epsilon = 0.000831
 o20bf                                  8      0.0000       0.00000       A     3.04749e-01     6.10527e-01    ;  uncertainty sigma = 0.000044, epsilon = 0.000831
 c21bf                                  6      0.0000       0.00000       A     3.39832e-01     4.48835e-01    ;  uncertainty sigma = 0.000062, epsilon = 0.002447
 f22bf                                  9      0.0000       0.00000       A     3.03449e-01     3.47672e-01    ;  uncertainty sigma = 0.000012, epsilon = 0.001616
 f23bf                                  9      0.0000       0.00000       A     3.03449e-01     3.47672e-01    ;  uncertainty sigma = 0.000012, epsilon = 0.001616
 n24bf                                  7      0.0000       0.00000       A     3.27336e-01     4.58760e-01    ;  uncertainty sigma = 0.000024, epsilon = 0.000711
 f25bf                                  9      0.0000       0.00000       A     3.03427e-01     3.48313e-01    ;  uncertainty sigma = 0.000031, epsilon = 0.002325
 f26bf                                  9      0.0000       0.00000       A     3.03427e-01     3.48313e-01    ;  uncertainty sigma = 0.000031, epsilon = 0.002325
 f27bf                                  9      0.0000       0.00000       A     3.03427e-01     3.48313e-01    ;  uncertainty sigma = 0.000031, epsilon = 0.002325
 h28bf                                  1      0.0000       0.00000       A     5.38094e-02     1.93076e-02    ;  uncertainty sigma = 0.000062, epsilon = 0.000926
 h29bf                                  1      0.0000       0.00000       A     2.42326e-01     8.68829e-02    ;  uncertainty sigma = 0.000128, epsilon = 0.000858
 h30bf                                  1      0.0000       0.00000       A     2.60052e-01     8.67184e-02    ;  uncertainty sigma = 0.000035, epsilon = 0.000545
 h31bf                                  1      0.0000       0.00000       A     2.60052e-01     8.67184e-02    ;  uncertainty sigma = 0.000035, epsilon = 0.000545
 h32bf                                  1      0.0000       0.00000       A     2.62567e-01     6.72430e-02    ;  uncertainty sigma = 0.000020, epsilon = 0.000765
 h33bf                                  1      0.0000       0.00000       A     2.62556e-01     6.70855e-02    ;  uncertainty sigma = 0.000006, epsilon = 0.000381
 h34bf                                  1      0.0000       0.00000       A     2.53654e-01     6.71322e-02    ;  uncertainty sigma = 0.000036, epsilon = 0.000684
 h35bf                                  1      0.0000       0.00000       A     2.53629e-01     6.71943e-02    ;  uncertainty sigma = 0.000018, epsilon = 0.000691
 h36bf                                  1      0.0000       0.00000       A     2.62531e-01     6.71780e-02    ;  uncertainty sigma = 0.000015, epsilon = 0.000866

[ moleculetype ]
;name             nrexcl
 MOL                   3

[ atoms ]
;       nr            type      resi   res      atom      cgnr      charge          mass ; qtot
         1            o0bf         1   UNL        o0         1    -0.57153       15.9990 ; qtot   -0.572
         2            c1bf         1   UNL        c1         2     0.16298       12.0110 ; qtot   -0.409
         3            c2bf         1   UNL        c2         3     0.38805       12.0110 ; qtot   -0.020
         4            c3bf         1   UNL        c3         4    -0.05626       12.0110 ; qtot   -0.077
         5            c4bf         1   UNL        c4         5    -0.09819       12.0110 ; qtot   -0.175
         6            c5bf         1   UNL        c5         6     0.01908       12.0110 ; qtot   -0.156
         7            c6bf         1   UNL        c6         7    -0.22303       12.0110 ; qtot   -0.379
         8            c7bf         1   UNL        c7         8     0.00455       12.0110 ; qtot   -0.374
         9            c8bf         1   UNL        c8         9    -0.17450       12.0110 ; qtot   -0.549
        10            c9bf         1   UNL        c9        10     0.16395       12.0110 ; qtot   -0.385
        11           o10bf         1   UNL       o10        11    -0.24227       15.9990 ; qtot   -0.627
        12           c11bf         1   UNL       c11        12     0.00346       12.0110 ; qtot   -0.624
        13           c12bf         1   UNL       c12        13     0.40052       12.0110 ; qtot   -0.223
        14           n13bf         1   UNL       n13        14    -0.64172       14.0070 ; qtot   -0.865
        15           c14bf         1   UNL       c14        15     0.42405       12.0110 ; qtot   -0.441
        16           c15bf         1   UNL       c15        16    -0.10594       12.0110 ; qtot   -0.547
        17           c16bf         1   UNL       c16        17     0.23355       12.0110 ; qtot   -0.313
        18           c17bf         1   UNL       c17        18    -0.08592       12.0110 ; qtot   -0.399
        19           s18bf         1   UNL       s18        19     0.97547       32.0670 ; qtot    0.576
        20           o19bf         1   UNL       o19        20    -0.52245       15.9990 ; qtot    0.054
        21           o20bf         1   UNL       o20        21    -0.52245       15.9990 ; qtot   -0.469
        22           c21bf         1   UNL       c21        22     0.64625       12.0110 ; qtot    0.178
        23           f22bf         1   UNL       f22        23    -0.22758       18.9980 ; qtot   -0.050
        24           f23bf         1   UNL       f23        24    -0.22758       18.9980 ; qtot   -0.278
        25           n24bf         1   UNL       n24        25    -0.34809       14.0070 ; qtot   -0.626
        26           f25bf         1   UNL       f25        26    -0.21182       18.9980 ; qtot   -0.837
        27           f26bf         1   UNL       f26        27    -0.21182       18.9980 ; qtot   -1.049
        28           f27bf         1   UNL       f27        28    -0.21182       18.9980 ; qtot   -1.261
        29           h28bf         1   UNL       h28        29     0.41807        1.0080 ; qtot   -0.843
        30           h29bf         1   UNL       h29        30     0.09251        1.0080 ; qtot   -0.750
        31           h30bf         1   UNL       h30        31     0.09141        1.0080 ; qtot   -0.659
        32           h31bf         1   UNL       h31        32     0.09141        1.0080 ; qtot   -0.568
        33           h32bf         1   UNL       h32        33     0.16869        1.0080 ; qtot   -0.399
        34           h33bf         1   UNL       h33        34     0.15782        1.0080 ; qtot   -0.241
        35           h34bf         1   UNL       h34        35     0.03573        1.0080 ; qtot   -0.205
        36           h35bf         1   UNL       h35        36     0.03701        1.0080 ; qtot   -0.168
        37           h36bf         1   UNL       h36        37     0.16841        1.0080 ; qtot    0.000

[ bonds ]
;       ai        aj funct               r               k
         1         2     1        0.141341   266784.598340    ;  uncertainty r = 0.000175, k = 15.524028
         1        29     1        0.097120   457921.536914    ;  uncertainty r = 0.000049, k = 2.604882
         2         3     1        0.154750   188145.853564    ;  uncertainty r = 0.000252, k = 8.551885
         2         6     1        0.151707   242961.131152    ;  uncertainty r = 0.000129, k = 21.826512
         2        30     1        0.109523   308370.759473    ;  uncertainty r = 0.000079, k = 3.008190
         3         4     1        0.153436   201677.482617    ;  uncertainty r = 0.000098, k = 9.661873
         3        23     1        0.137560   301163.370020    ;  uncertainty r = 0.000061, k = 5.585031
         3        24     1        0.137560   301163.370020    ;  uncertainty r = 0.000061, k = 5.585031
         4         5     1        0.151090   252656.524561    ;  uncertainty r = 0.000114, k = 18.986535
         4        31     1        0.109406   310072.348145    ;  uncertainty r = 0.000044, k = 1.784813
         4        32     1        0.109406   310072.348145    ;  uncertainty r = 0.000044, k = 1.784813
         5         6     1        0.139433   361404.976904    ;  uncertainty r = 0.000134, k = 18.953705
         5        10     1        0.138840   351938.625830    ;  uncertainty r = 0.000126, k = 4.204626
         6         7     1        0.139391   334614.225293    ;  uncertainty r = 0.000201, k = 10.556925
         7         8     1        0.139241   347118.011230    ;  uncertainty r = 0.000197, k = 4.829700
         7        19     1        0.177367   133175.731714    ;  uncertainty r = 0.000244, k = 17.189949
         8         9     1        0.139018   365346.093457    ;  uncertainty r = 0.000101, k = 4.837206
         8        33     1        0.108435   328776.697461    ;  uncertainty r = 0.000020, k = 0.903406
         9        10     1        0.139655   352878.927734    ;  uncertainty r = 0.000036, k = 6.333318
         9        34     1        0.108753   336163.893701    ;  uncertainty r = 0.000031, k = 1.172871
        10        11     1        0.138477   316130.542139    ;  uncertainty r = 0.000128, k = 9.683227
        11        12     1        0.137076   313629.463184    ;  uncertainty r = 0.000077, k = 12.319066
        12        13     1        0.139498   341166.715576    ;  uncertainty r = 0.000083, k = 8.040226
        12        18     1        0.138768   365073.280518    ;  uncertainty r = 0.000086, k = 5.578092
        13        14     1        0.133167   396352.613232    ;  uncertainty r = 0.000132, k = 9.025943
        13        35     1        0.109028   338169.297363    ;  uncertainty r = 0.000026, k = 3.900779
        14        15     1        0.133140   395683.362207    ;  uncertainty r = 0.000054, k = 3.469665
        15        16     1        0.140554   353216.426172    ;  uncertainty r = 0.000038, k = 9.852359
        15        36     1        0.108914   337055.624023    ;  uncertainty r = 0.000040, k = 1.709146
        16        17     1        0.143635   321691.017871    ;  uncertainty r = 0.000029, k = 3.666818
        16        18     1        0.139846   371053.637402    ;  uncertainty r = 0.000064, k = 5.793408
        17        25     1        0.116660  1126341.074023    ;  uncertainty r = 0.000027, k = 2.321782
        18        37     1        0.108683   333660.439795    ;  uncertainty r = 0.000030, k = 2.967020
        19        20     1        0.146502   482333.991992    ;  uncertainty r = 0.000060, k = 8.765423
        19        21     1        0.146502   482333.991992    ;  uncertainty r = 0.000060, k = 8.765423
        19        22     1        0.186690   146980.237549    ;  uncertainty r = 0.000185, k = 14.369171
        22        26     1        0.133044   300000.435596    ;  uncertainty r = 0.000105, k = 4.973886
        22        27     1        0.133044   300000.410059    ;  uncertainty r = 0.000105, k = 4.973886
        22        28     1        0.133044   300000.435596    ;  uncertainty r = 0.000105, k = 4.973886

[ angles ]
;       ai        aj        ak funct           theta             cth
         1         2         3     1      107.410141      628.438511    ;  uncertainty theta = 0.008670, k = 0.247901
         1         2         6     1      111.963425      669.580773    ;  uncertainty theta = 0.005586, k = 0.197091
         1         2        30     1      108.003479      442.344519    ;  uncertainty theta = 0.007986, k = 0.200175
         2         1        29     1      107.329124      457.634098    ;  uncertainty theta = 0.001447, k = 0.131498
         2         3         4     1      111.123581      611.251015    ;  uncertainty theta = 0.003918, k = 0.280397
         2         3        23     1      109.530434      593.873012    ;  uncertainty theta = 0.003178, k = 0.146818
         2         3        24     1      109.530434      593.873012    ;  uncertainty theta = 0.003178, k = 0.146818
         2         6         5     1      115.502098      507.346167    ;  uncertainty theta = 0.005257, k = 0.163554
         2         6         7     1      124.724350      356.893553    ;  uncertainty theta = 0.007073, k = 0.192635
         3         2         6     1      104.656273      715.063450    ;  uncertainty theta = 0.006042, k = 0.227057
         3         2        30     1      107.064758      384.815956    ;  uncertainty theta = 0.005442, k = 0.198908
         3         4         5     1      103.987465      711.936176    ;  uncertainty theta = 0.005472, k = 0.351798
         3         4        31     1      107.225937      380.179694    ;  uncertainty theta = 0.002622, k = 0.088553
         3         4        32     1      107.225937      380.179694    ;  uncertainty theta = 0.002622, k = 0.088553
         4         3        23     1      111.588036      659.455501    ;  uncertainty theta = 0.002894, k = 0.086543
         4         3        24     1      111.588036      659.455501    ;  uncertainty theta = 0.002894, k = 0.086543
         4         5         6     1      115.278198      534.949069    ;  uncertainty theta = 0.004507, k = 0.071023
         4         5        10     1      125.797531      387.635700    ;  uncertainty theta = 0.006393, k = 0.180630
         5         4        31     1      110.505722      380.194250    ;  uncertainty theta = 0.002396, k = 0.102521
         5         4        32     1      110.505722      380.194250    ;  uncertainty theta = 0.002396, k = 0.102521
         5         6         7     1      121.363441      427.241043    ;  uncertainty theta = 0.005455, k = 0.169956
         5        10         9     1      120.431175      382.231473    ;  uncertainty theta = 0.003683, k = 0.218247
         5        10        11     1      118.088379      402.500149    ;  uncertainty theta = 0.007589, k = 0.314607
         6         2        30     1      109.691933      377.150226    ;  uncertainty theta = 0.004547, k = 0.174862
         6         5        10     1      119.410500      420.438372    ;  uncertainty theta = 0.001713, k = 0.132751
         6         7         8     1      123.273659      443.393775    ;  uncertainty theta = 0.005926, k = 0.169710
         6         7        19     1      116.497948      331.116586    ;  uncertainty theta = 0.009734, k = 0.308704
         7         8         9     1      121.404625      489.434853    ;  uncertainty theta = 0.006198, k = 0.103049
         7         8        33     1      118.533401      263.158683    ;  uncertainty theta = 0.003113, k = 0.117951
         7        19        20     1      115.948227      634.155376    ;  uncertainty theta = 0.008679, k = 0.042031
         7        19        21     1      115.948227      634.155376    ;  uncertainty theta = 0.008679, k = 0.042031
         7        19        22     1      102.702232      475.832640    ;  uncertainty theta = 0.009804, k = 0.278365
         8         7        19     1      115.635971      345.821173    ;  uncertainty theta = 0.010769, k = 0.313062
         8         9        10     1      119.847122      509.861604    ;  uncertainty theta = 0.002540, k = 0.033200
         8         9        34     1      120.002647      276.826798    ;  uncertainty theta = 0.001626, k = 0.037699
         9         8        33     1      120.483727      283.888575    ;  uncertainty theta = 0.002460, k = 0.074860
         9        10        11     1      120.805542      433.470310    ;  uncertainty theta = 0.002851, k = 0.178049
        10         9        34     1      120.139420      275.784597    ;  uncertainty theta = 0.001836, k = 0.074377
        10        11        12     1      112.718857      471.254315    ;  uncertainty theta = 0.003044, k = 0.071140
        11        12        13     1      118.522423      387.514750    ;  uncertainty theta = 0.007213, k = 0.158007
        11        12        18     1      120.420776      407.284271    ;  uncertainty theta = 0.006738, k = 0.086867
        12        13        14     1      123.111069      683.563298    ;  uncertainty theta = 0.002621, k = 0.090385
        12        13        35     1      120.098526      263.328617    ;  uncertainty theta = 0.001815, k = 0.069262
        12        18        16     1      117.605446      532.074101    ;  uncertainty theta = 0.002835, k = 0.168389
        12        18        37     1      121.083656      273.708175    ;  uncertainty theta = 0.005041, k = 0.083088
        13        12        18     1      120.238510      354.162231    ;  uncertainty theta = 0.004319, k = 0.363584
        13        14        15     1      118.423630      403.351875    ;  uncertainty theta = 0.003334, k = 0.214093
        14        13        35     1      116.983658      337.944252    ;  uncertainty theta = 0.001867, k = 0.075656
        14        15        16     1      123.121994      697.538098    ;  uncertainty theta = 0.002306, k = 0.042463
        14        15        36     1      117.522118      335.668736    ;  uncertainty theta = 0.001950, k = 0.083182
        15        16        17     1      120.458107      377.772853    ;  uncertainty theta = 0.004124, k = 0.185819
        15        16        18     1      119.901634      414.749438    ;  uncertainty theta = 0.002928, k = 0.079848
        16        15        36     1      119.350708      274.430843    ;  uncertainty theta = 0.003537, k = 0.120677
        16        17        25     1      180.000000      232.285722    ;  uncertainty theta = 0.000000, k = 0.656361
        16        18        37     1      120.729103      277.346638    ;  uncertainty theta = 0.006093, k = 0.129652
        17        16        18     1      120.168839      371.725251    ;  uncertainty theta = 0.003291, k = 0.163012
        19        22        26     1      107.987816      427.841995    ;  uncertainty theta = 0.004368, k = 0.138495
        19        22        27     1      107.987816      427.841995    ;  uncertainty theta = 0.004368, k = 0.138495
        19        22        28     1      107.987816      427.841995    ;  uncertainty theta = 0.004368, k = 0.138495
        20        19        21     1      125.478783      852.302430    ;  uncertainty theta = 0.003251, k = 0.080370
        20        19        22     1      104.730919      472.750981    ;  uncertainty theta = 0.011537, k = 0.291825
        21        19        22     1      104.730919      472.750981    ;  uncertainty theta = 0.011537, k = 0.291825
        23         3        24     1      107.133301      788.630883    ;  uncertainty theta = 0.004222, k = 0.140640
        26        22        27     1      110.914772      787.015469    ;  uncertainty theta = 0.002242, k = 0.073348
        26        22        28     1      110.914780      787.015533    ;  uncertainty theta = 0.002242, k = 0.073348
        27        22        28     1      110.914780      787.015533    ;  uncertainty theta = 0.002242, k = 0.073348
        31         4        32     1      105.669456      291.017323    ;  uncertainty theta = 0.002858, k = 0.056928

[ dihedrals ] ; propers for gromacs 4.5 or higher, use funct 9
;       ai        aj        ak        al funct           phase               k        pn
         1         2         3         4     9        0.000000       -2.647338         1    ;  uncertainty k = 0.986579
         1         2         3         4     9      180.000000        1.652150         2    ;  uncertainty k = 0.518109
         1         2         3         4     9        0.000000        1.033401         3    ;  uncertainty k = 0.310740
         1         2         3         4     9      180.000000        0.042296         4    ;  uncertainty k = 0.270326
         1         2         3        23     9        0.000000       -0.282027         1    ;  uncertainty k = 1.406562
         1         2         3        23     9      180.000000        0.319715         2    ;  uncertainty k = 0.697098
         1         2         3        23     9        0.000000        1.460301         3    ;  uncertainty k = 0.368849
         1         2         3        23     9      180.000000        0.083291         4    ;  uncertainty k = 0.260871
         1         2         3        24     9        0.000000       -0.282027         1    ;  uncertainty k = 1.406562
         1         2         3        24     9      180.000000        0.319715         2    ;  uncertainty k = 0.697098
         1         2         3        24     9        0.000000        1.460301         3    ;  uncertainty k = 0.368849
         1         2         3        24     9      180.000000        0.083291         4    ;  uncertainty k = 0.260871
         1         2         6         5     9        0.000000       -4.178709         1    ;  uncertainty k = 2.360297
         1         2         6         5     9      180.000000        4.991910         2    ;  uncertainty k = 1.121952
         1         2         6         5     9        0.000000        1.067911         3    ;  uncertainty k = 0.709058
         1         2         6         5     9      180.000000        0.610277         4    ;  uncertainty k = 0.229499
         1         2         6         7     9        0.000000       -0.836955         1    ;  uncertainty k = 0.869512
         1         2         6         7     9      180.000000        3.684803         2    ;  uncertainty k = 0.275134
         1         2         6         7     9        0.000000       -0.168449         3    ;  uncertainty k = 0.270183
         1         2         6         7     9      180.000000        0.493611         4    ;  uncertainty k = 0.208855
         2         3         4         5     9        0.000000       -0.343517         1    ;  uncertainty k = 1.847992
         2         3         4         5     9      180.000000        1.882240         2    ;  uncertainty k = 0.624184
         2         3         4         5     9        0.000000       -0.007238         3    ;  uncertainty k = 0.517955
         2         3         4         5     9      180.000000       -0.165939         4    ;  uncertainty k = 0.372661
         2         3         4        31     9        0.000000       -0.273391         1    ;  uncertainty k = 0.290130
         2         3         4        31     9      180.000000       -0.226858         2    ;  uncertainty k = 0.647078
         2         3         4        31     9        0.000000       -0.001285         3    ;  uncertainty k = 0.213938
         2         3         4        31     9      180.000000       -0.023110         4    ;  uncertainty k = 0.191048
         2         3         4        32     9        0.000000       -0.273391         1    ;  uncertainty k = 0.290130
         2         3         4        32     9      180.000000       -0.226858         2    ;  uncertainty k = 0.647078
         2         3         4        32     9        0.000000       -0.001285         3    ;  uncertainty k = 0.213938
         2         3         4        32     9      180.000000       -0.023110         4    ;  uncertainty k = 0.191048
         2         6         5         4     9        0.000000        0.501689         1    ;  uncertainty k = 0.605780
         2         6         5         4     9      180.000000       12.047542         2    ;  uncertainty k = 0.655198
         2         6         5         4     9        0.000000       -0.480914         3    ;  uncertainty k = 0.893511
         2         6         5         4     9      180.000000        1.215479         4    ;  uncertainty k = 0.304699
         2         6         5        10     9        0.000000        0.558252         1    ;  uncertainty k = 0.481105
         2         6         5        10     9      180.000000        8.676945         2    ;  uncertainty k = 0.366541
         2         6         5        10     9        0.000000        0.674461         3    ;  uncertainty k = 0.251974
         2         6         5        10     9      180.000000        1.280828         4    ;  uncertainty k = 0.186122
         2         6         7         8     9        0.000000        0.244957         1    ;  uncertainty k = 0.512087
         2         6         7         8     9      180.000000        6.877552         2    ;  uncertainty k = 0.143136
         2         6         7         8     9        0.000000        1.220932         3    ;  uncertainty k = 0.267661
         2         6         7         8     9      180.000000        1.532950         4    ;  uncertainty k = 0.141981
         2         6         7        19     9        0.000000       -0.034414         1    ;  uncertainty k = 0.519800
         2         6         7        19     9      180.000000        6.724836         2    ;  uncertainty k = 0.699976
         2         6         7        19     9        0.000000        1.107035         3    ;  uncertainty k = 0.178822
         2         6         7        19     9      180.000000        1.197898         4    ;  uncertainty k = 0.221326
         3         2         1        29     9        0.000000       13.878323         1    ;  uncertainty k = 0.471464
         3         2         1        29     9      180.000000       -4.488746         2    ;  uncertainty k = 0.235494
         3         2         1        29     9        0.000000        1.023469         3    ;  uncertainty k = 0.242500
         3         2         1        29     9      180.000000        0.093198         4    ;  uncertainty k = 0.074142
         3         2         6         5     9        0.000000       -0.680908         1    ;  uncertainty k = 2.200918
         3         2         6         5     9      180.000000        8.423498         2    ;  uncertainty k = 0.948755
         3         2         6         5     9        0.000000       -1.067289         3    ;  uncertainty k = 0.483133
         3         2         6         5     9      180.000000        0.885992         4    ;  uncertainty k = 0.259040
         3         2         6         7     9        0.000000       -1.728113         1    ;  uncertainty k = 1.591170
         3         2         6         7     9      180.000000        3.560322         2    ;  uncertainty k = 0.833244
         3         2         6         7     9        0.000000        0.151901         3    ;  uncertainty k = 0.360077
         3         2         6         7     9      180.000000        0.667353         4    ;  uncertainty k = 0.277933
         3         4         5         6     9        0.000000       -2.097050         1    ;  uncertainty k = 1.669614
         3         4         5         6     9      180.000000        9.568560         2    ;  uncertainty k = 0.576661
         3         4         5         6     9        0.000000       -1.767049         3    ;  uncertainty k = 0.405143
         3         4         5         6     9      180.000000        0.920047         4    ;  uncertainty k = 0.116013
         3         4         5        10     9        0.000000       -0.366974         1    ;  uncertainty k = 0.777971
         3         4         5        10     9      180.000000        2.398154         2    ;  uncertainty k = 0.566651
         3         4         5        10     9        0.000000        0.131451         3    ;  uncertainty k = 0.226332
         3         4         5        10     9      180.000000        0.631745         4    ;  uncertainty k = 0.115399
         4         3         2         6     9        0.000000       -0.242401         1    ;  uncertainty k = 1.808249
         4         3         2         6     9      180.000000        1.253910         2    ;  uncertainty k = 0.651620
         4         3         2         6     9        0.000000        0.088139         3    ;  uncertainty k = 0.278725
         4         3         2         6     9      180.000000       -0.055434         4    ;  uncertainty k = 0.266230
         4         3         2        30     9        0.000000       -0.827317         1    ;  uncertainty k = 0.603777
         4         3         2        30     9      180.000000        0.450456         2    ;  uncertainty k = 0.547082
         4         3         2        30     9        0.000000        0.144561         3    ;  uncertainty k = 0.273661
         4         3         2        30     9      180.000000       -0.113838         4    ;  uncertainty k = 0.222036
         4         5         6         7     9        0.000000        0.290366         1    ;  uncertainty k = 0.804118
         4         5         6         7     9      180.000000        8.921070         2    ;  uncertainty k = 0.559428
         4         5         6         7     9        0.000000        0.646533         3    ;  uncertainty k = 0.420648
         4         5         6         7     9      180.000000        1.198489         4    ;  uncertainty k = 0.219924
         4         5        10         9     9        0.000000        0.523924         1    ;  uncertainty k = 0.333019
         4         5        10         9     9      180.000000        6.358260         2    ;  uncertainty k = 0.264802
         4         5        10         9     9        0.000000        1.308988         3    ;  uncertainty k = 0.244582
         4         5        10         9     9      180.000000        1.606844         4    ;  uncertainty k = 0.309582
         4         5        10        11     9        0.000000       -0.261722         1    ;  uncertainty k = 0.663718
         4         5        10        11     9      180.000000        8.915391         2    ;  uncertainty k = 0.217673
         4         5        10        11     9        0.000000        1.021127         3    ;  uncertainty k = 0.239454
         4         5        10        11     9      180.000000        1.254978         4    ;  uncertainty k = 0.164214
         5         4         3        23     9        0.000000       -0.911684         1    ;  uncertainty k = 0.942710
         5         4         3        23     9      180.000000        0.727772         2    ;  uncertainty k = 0.486490
         5         4         3        23     9        0.000000        1.114750         3    ;  uncertainty k = 0.312374
         5         4         3        23     9      180.000000        0.251148         4    ;  uncertainty k = 0.035387
         5         4         3        24     9        0.000000       -0.911684         1    ;  uncertainty k = 0.942710
         5         4         3        24     9      180.000000        0.727772         2    ;  uncertainty k = 0.486490
         5         4         3        24     9        0.000000        1.114750         3    ;  uncertainty k = 0.312374
         5         4         3        24     9      180.000000        0.251148         4    ;  uncertainty k = 0.035387
         5         6         2        30     9        0.000000       -0.751933         1    ;  uncertainty k = 0.664750
         5         6         2        30     9      180.000000        3.245880         2    ;  uncertainty k = 0.726581
         5         6         2        30     9        0.000000        0.792683         3    ;  uncertainty k = 0.171252
         5         6         2        30     9      180.000000        0.223923         4    ;  uncertainty k = 0.143746
         5         6         7         8     9        0.000000       -0.318387         1    ;  uncertainty k = 0.543283
         5         6         7         8     9      180.000000       10.064823         2    ;  uncertainty k = 0.545361
         5         6         7         8     9        0.000000       -0.686894         3    ;  uncertainty k = 0.451479
         5         6         7         8     9      180.000000        0.874512         4    ;  uncertainty k = 0.238255
         5         6         7        19     9        0.000000        0.632024         1    ;  uncertainty k = 0.803429
         5         6         7        19     9      180.000000        8.044198         2    ;  uncertainty k = 0.900681
         5         6         7        19     9        0.000000        1.413930         3    ;  uncertainty k = 0.463705
         5         6         7        19     9      180.000000        1.616671         4    ;  uncertainty k = 0.255333
         5        10         9         8     9        0.000000        0.285667         1    ;  uncertainty k = 0.206975
         5        10         9         8     9      180.000000        9.016054         2    ;  uncertainty k = 0.399009
         5        10         9         8     9        0.000000        0.274909         3    ;  uncertainty k = 0.427034
         5        10         9         8     9      180.000000        1.325509         4    ;  uncertainty k = 0.319677
         5        10         9        34     9        0.000000        0.166039         1    ;  uncertainty k = 0.379055
         5        10         9        34     9      180.000000        6.837751         2    ;  uncertainty k = 0.492908
         5        10         9        34     9        0.000000        1.382370         3    ;  uncertainty k = 0.507235
         5        10         9        34     9      180.000000        1.604458         4    ;  uncertainty k = 0.102224
         5        10        11        12     9        0.000000        4.269301         1    ;  uncertainty k = 0.481472
         5        10        11        12     9      180.000000        4.961180         2    ;  uncertainty k = 0.427873
         5        10        11        12     9        0.000000        0.720361         3    ;  uncertainty k = 0.188329
         5        10        11        12     9      180.000000        0.146583         4    ;  uncertainty k = 0.080197
         6         2         1        29     9        0.000000       14.226390         1    ;  uncertainty k = 0.360045
         6         2         1        29     9      180.000000       -3.910249         2    ;  uncertainty k = 0.640007
         6         2         1        29     9        0.000000        1.015229         3    ;  uncertainty k = 0.168307
         6         2         1        29     9      180.000000        0.074535         4    ;  uncertainty k = 0.063586
         6         2         3        23     9        0.000000        0.089030         1    ;  uncertainty k = 1.074194
         6         2         3        23     9      180.000000        0.590833         2    ;  uncertainty k = 0.966276
         6         2         3        23     9        0.000000        0.916246         3    ;  uncertainty k = 0.180608
         6         2         3        23     9      180.000000        0.258565         4    ;  uncertainty k = 0.075288
         6         2         3        24     9        0.000000        0.089030         1    ;  uncertainty k = 1.074194
         6         2         3        24     9      180.000000        0.590833         2    ;  uncertainty k = 0.966276
         6         2         3        24     9        0.000000        0.916246         3    ;  uncertainty k = 0.180608
         6         2         3        24     9      180.000000        0.258565         4    ;  uncertainty k = 0.075288
         6         5         4        31     9        0.000000       -0.176917         1    ;  uncertainty k = 0.398812
         6         5         4        31     9      180.000000        1.720292         2    ;  uncertainty k = 0.325590
         6         5         4        31     9        0.000000        0.266682         3    ;  uncertainty k = 0.104205
         6         5         4        31     9      180.000000        0.226942         4    ;  uncertainty k = 0.102466
         6         5         4        32     9        0.000000       -0.176917         1    ;  uncertainty k = 0.398812
         6         5         4        32     9      180.000000        1.720292         2    ;  uncertainty k = 0.325590
         6         5         4        32     9        0.000000        0.266682         3    ;  uncertainty k = 0.104205
         6         5         4        32     9      180.000000        0.226942         4    ;  uncertainty k = 0.102466
         6         5        10         9     9        0.000000       -0.234949         1    ;  uncertainty k = 0.181524
         6         5        10         9     9      180.000000        8.224051         2    ;  uncertainty k = 0.562462
         6         5        10         9     9        0.000000       -0.428461         3    ;  uncertainty k = 0.446677
         6         5        10         9     9      180.000000        1.061979         4    ;  uncertainty k = 0.290166
         6         5        10        11     9        0.000000        0.035491         1    ;  uncertainty k = 0.227931
         6         5        10        11     9      180.000000        9.686423         2    ;  uncertainty k = 0.382715
         6         5        10        11     9        0.000000        1.393908         3    ;  uncertainty k = 0.257937
         6         5        10        11     9      180.000000        1.525162         4    ;  uncertainty k = 0.186826
         6         7         8         9     9        0.000000       -0.217763         1    ;  uncertainty k = 0.395469
         6         7         8         9     9      180.000000       10.366888         2    ;  uncertainty k = 0.602923
         6         7         8         9     9        0.000000       -0.344736         3    ;  uncertainty k = 0.483099
         6         7         8         9     9      180.000000        1.005445         4    ;  uncertainty k = 0.495297
         6         7         8        33     9        0.000000       -0.026235         1    ;  uncertainty k = 0.431589
         6         7         8        33     9      180.000000        7.417558         2    ;  uncertainty k = 0.599095
         6         7         8        33     9        0.000000        1.226719         3    ;  uncertainty k = 0.445099
         6         7         8        33     9      180.000000        1.570793         4    ;  uncertainty k = 0.062334
         6         7        19        20     9        0.000000       -2.048458         1    ;  uncertainty k = 2.404608
         6         7        19        20     9      180.000000        1.031702         2    ;  uncertainty k = 0.568350
         6         7        19        20     9        0.000000        0.383786         3    ;  uncertainty k = 0.351349
         6         7        19        20     9      180.000000        0.019051         4    ;  uncertainty k = 0.192830
         6         7        19        21     9        0.000000       -2.048458         1    ;  uncertainty k = 2.404608
         6         7        19        21     9      180.000000        1.031702         2    ;  uncertainty k = 0.568350
         6         7        19        21     9        0.000000        0.383786         3    ;  uncertainty k = 0.351349
         6         7        19        21     9      180.000000        0.019051         4    ;  uncertainty k = 0.192830
         6         7        19        22     9        0.000000        2.794446         1    ;  uncertainty k = 1.991911
         6         7        19        22     9      180.000000       -0.756710         2    ;  uncertainty k = 0.505491
         6         7        19        22     9        0.000000        0.075170         3    ;  uncertainty k = 0.458259
         6         7        19        22     9      180.000000        0.150902         4    ;  uncertainty k = 0.169500
         7         6         2        30     9        0.000000        1.448098         1    ;  uncertainty k = 0.666377
         7         6         2        30     9      180.000000        2.099706         2    ;  uncertainty k = 0.619693
         7         6         2        30     9        0.000000       -0.082799         3    ;  uncertainty k = 0.098063
         7         6         2        30     9      180.000000        0.185236         4    ;  uncertainty k = 0.163028
         7         6         5        10     9        0.000000        0.006932         1    ;  uncertainty k = 0.574289
         7         6         5        10     9      180.000000        8.367395         2    ;  uncertainty k = 0.305085
         7         6         5        10     9        0.000000        0.112527         3    ;  uncertainty k = 0.232698
         7         6         5        10     9      180.000000        1.147592         4    ;  uncertainty k = 0.264157
         7         8         9        10     9        0.000000        0.077093         1    ;  uncertainty k = 0.397200
         7         8         9        10     9      180.000000       12.149452         2    ;  uncertainty k = 0.440036
         7         8         9        10     9        0.000000       -0.849120         3    ;  uncertainty k = 0.650013
         7         8         9        10     9      180.000000        0.880397         4    ;  uncertainty k = 0.391448
         7         8         9        34     9        0.000000       -0.056522         1    ;  uncertainty k = 0.446807
         7         8         9        34     9      180.000000        8.405215         2    ;  uncertainty k = 0.202493
         7         8         9        34     9        0.000000        1.202732         3    ;  uncertainty k = 0.243304
         7         8         9        34     9      180.000000        1.706100         4    ;  uncertainty k = 0.133481
         7        19        22        26     9        0.000000        0.617741         1    ;  uncertainty k = 1.026893
         7        19        22        26     9      180.000000       -0.446659         2    ;  uncertainty k = 0.710160
         7        19        22        26     9        0.000000        0.255593         3    ;  uncertainty k = 0.238495
         7        19        22        26     9      180.000000       -0.258344         4    ;  uncertainty k = 0.124083
         7        19        22        27     9        0.000000        0.617741         1    ;  uncertainty k = 1.026893
         7        19        22        27     9      180.000000       -0.446659         2    ;  uncertainty k = 0.710160
         7        19        22        27     9        0.000000        0.255593         3    ;  uncertainty k = 0.238495
         7        19        22        27     9      180.000000       -0.258344         4    ;  uncertainty k = 0.124083
         7        19        22        28     9        0.000000        0.617741         1    ;  uncertainty k = 1.026893
         7        19        22        28     9      180.000000       -0.446659         2    ;  uncertainty k = 0.710160
         7        19        22        28     9        0.000000        0.255593         3    ;  uncertainty k = 0.238495
         7        19        22        28     9      180.000000       -0.258344         4    ;  uncertainty k = 0.124083
         8         7        19        20     9        0.000000       -1.360961         1    ;  uncertainty k = 1.203031
         8         7        19        20     9      180.000000        1.193786         2    ;  uncertainty k = 0.941864
         8         7        19        20     9        0.000000        0.179106         3    ;  uncertainty k = 0.319492
         8         7        19        20     9      180.000000        0.035238         4    ;  uncertainty k = 0.221664
         8         7        19        21     9        0.000000       -1.360961         1    ;  uncertainty k = 1.203031
         8         7        19        21     9      180.000000        1.193786         2    ;  uncertainty k = 0.941864
         8         7        19        21     9        0.000000        0.179106         3    ;  uncertainty k = 0.319492
         8         7        19        21     9      180.000000        0.035238         4    ;  uncertainty k = 0.221664
         8         7        19        22     9        0.000000        3.131506         1    ;  uncertainty k = 1.254630
         8         7        19        22     9      180.000000       -0.283127         2    ;  uncertainty k = 0.690489
         8         7        19        22     9        0.000000        0.008489         3    ;  uncertainty k = 0.640809
         8         7        19        22     9      180.000000        0.153787         4    ;  uncertainty k = 0.143224
         8         9        10        11     9        0.000000       -0.032719         1    ;  uncertainty k = 0.328660
         8         9        10        11     9      180.000000       10.912739         2    ;  uncertainty k = 0.528810
         8         9        10        11     9        0.000000        1.502093         3    ;  uncertainty k = 0.322079
         8         9        10        11     9      180.000000        1.738053         4    ;  uncertainty k = 0.268681
         9         8         7        19     9        0.000000        0.470188         1    ;  uncertainty k = 0.218265
         9         8         7        19     9      180.000000        9.050747         2    ;  uncertainty k = 0.652941
         9         8         7        19     9        0.000000        1.334149         3    ;  uncertainty k = 0.350101
         9         8         7        19     9      180.000000        1.864250         4    ;  uncertainty k = 0.171099
         9        10        11        12     9        0.000000        4.984046         1    ;  uncertainty k = 0.350394
         9        10        11        12     9      180.000000        5.622444         2    ;  uncertainty k = 0.096196
         9        10        11        12     9        0.000000        0.474327         3    ;  uncertainty k = 0.150432
         9        10        11        12     9      180.000000        0.181537         4    ;  uncertainty k = 0.068708
        10         5         4        31     9        0.000000        0.671908         1    ;  uncertainty k = 0.187142
        10         5         4        31     9      180.000000        1.627855         2    ;  uncertainty k = 0.600620
        10         5         4        31     9        0.000000        0.147143         3    ;  uncertainty k = 0.246396
        10         5         4        31     9      180.000000        0.224251         4    ;  uncertainty k = 0.144091
        10         5         4        32     9        0.000000        0.671908         1    ;  uncertainty k = 0.187142
        10         5         4        32     9      180.000000        1.627855         2    ;  uncertainty k = 0.600620
        10         5         4        32     9        0.000000        0.147143         3    ;  uncertainty k = 0.246396
        10         5         4        32     9      180.000000        0.224251         4    ;  uncertainty k = 0.144091
        10         9         8        33     9        0.000000       -0.102488         1    ;  uncertainty k = 0.357269
        10         9         8        33     9      180.000000        7.885780         2    ;  uncertainty k = 0.140009
        10         9         8        33     9        0.000000        1.056134         3    ;  uncertainty k = 0.225708
        10         9         8        33     9      180.000000        1.720383         4    ;  uncertainty k = 0.061741
        10        11        12        13     9        0.000000        5.059053         1    ;  uncertainty k = 0.624465
        10        11        12        13     9      180.000000        4.694252         2    ;  uncertainty k = 0.406613
        10        11        12        13     9        0.000000        0.564581         3    ;  uncertainty k = 0.098441
        10        11        12        13     9      180.000000        0.153909         4    ;  uncertainty k = 0.168622
        10        11        12        18     9        0.000000        3.835394         1    ;  uncertainty k = 0.546542
        10        11        12        18     9      180.000000        5.247939         2    ;  uncertainty k = 0.311219
        10        11        12        18     9        0.000000        0.219639         3    ;  uncertainty k = 0.091548
        10        11        12        18     9      180.000000        0.202455         4    ;  uncertainty k = 0.122167
        11        10         9        34     9        0.000000       -0.051058         1    ;  uncertainty k = 0.176668
        11        10         9        34     9      180.000000        9.021634         2    ;  uncertainty k = 0.299897
        11        10         9        34     9        0.000000        0.850149         3    ;  uncertainty k = 0.203548
        11        10         9        34     9      180.000000        1.133689         4    ;  uncertainty k = 0.145488
        11        12        13        14     9        0.000000       -0.025843         1    ;  uncertainty k = 0.323152
        11        12        13        14     9      180.000000       10.605406         2    ;  uncertainty k = 0.515531
        11        12        13        14     9        0.000000        1.086621         3    ;  uncertainty k = 0.214208
        11        12        13        14     9      180.000000        1.572333         4    ;  uncertainty k = 0.236734
        11        12        13        35     9        0.000000       -0.028847         1    ;  uncertainty k = 0.209639
        11        12        13        35     9      180.000000        7.309234         2    ;  uncertainty k = 0.445625
        11        12        13        35     9        0.000000        0.800037         3    ;  uncertainty k = 0.243656
        11        12        13        35     9      180.000000        1.041211         4    ;  uncertainty k = 0.102405
        11        12        18        16     9        0.000000        0.031510         1    ;  uncertainty k = 0.203156
        11        12        18        16     9      180.000000       11.686924         2    ;  uncertainty k = 0.606439
        11        12        18        16     9        0.000000        1.200428         3    ;  uncertainty k = 0.133162
        11        12        18        16     9      180.000000        1.595723         4    ;  uncertainty k = 0.270188
        11        12        18        37     9        0.000000        0.186288         1    ;  uncertainty k = 0.248059
        11        12        18        37     9      180.000000        8.855940         2    ;  uncertainty k = 0.448484
        11        12        18        37     9        0.000000        0.894048         3    ;  uncertainty k = 0.290320
        11        12        18        37     9      180.000000        1.130712         4    ;  uncertainty k = 0.182433
        12        13        14        15     9        0.000000       -0.295663         1    ;  uncertainty k = 0.751966
        12        13        14        15     9      180.000000       14.683426         2    ;  uncertainty k = 0.334251
        12        13        14        15     9        0.000000        1.057138         3    ;  uncertainty k = 0.711066
        12        13        14        15     9      180.000000        1.467818         4    ;  uncertainty k = 0.184566
        12        18        16        15     9        0.000000       -0.261948         1    ;  uncertainty k = 0.127001
        12        18        16        15     9      180.000000       10.796449         2    ;  uncertainty k = 0.409563
        12        18        16        15     9        0.000000       -0.477892         3    ;  uncertainty k = 0.358029
        12        18        16        15     9      180.000000        1.109124         4    ;  uncertainty k = 0.252831
        12        18        16        17     9        0.000000       -0.032165         1    ;  uncertainty k = 0.291212
        12        18        16        17     9      180.000000       10.080294         2    ;  uncertainty k = 0.284761
        12        18        16        17     9        0.000000        1.239631         3    ;  uncertainty k = 0.390681
        12        18        16        17     9      180.000000        1.543698         4    ;  uncertainty k = 0.149148
        13        12        18        16     9        0.000000        0.044101         1    ;  uncertainty k = 0.092921
        13        12        18        16     9      180.000000        8.897110         2    ;  uncertainty k = 0.630406
        13        12        18        16     9        0.000000        0.092127         3    ;  uncertainty k = 0.341595
        13        12        18        16     9      180.000000        1.295023         4    ;  uncertainty k = 0.362204
        13        12        18        37     9        0.000000        0.085668         1    ;  uncertainty k = 0.425881
        13        12        18        37     9      180.000000        5.617096         2    ;  uncertainty k = 0.793908
        13        12        18        37     9        0.000000        1.291723         3    ;  uncertainty k = 0.307230
        13        12        18        37     9      180.000000        1.499393         4    ;  uncertainty k = 0.176311
        13        14        15        16     9        0.000000       -0.516207         1    ;  uncertainty k = 0.453827
        13        14        15        16     9      180.000000       15.812487         2    ;  uncertainty k = 0.222671
        13        14        15        16     9        0.000000        1.049496         3    ;  uncertainty k = 0.736466
        13        14        15        16     9      180.000000        1.491432         4    ;  uncertainty k = 0.146422
        13        14        15        36     9        0.000000        0.209281         1    ;  uncertainty k = 0.289594
        13        14        15        36     9      180.000000       15.322148         2    ;  uncertainty k = 0.262689
        13        14        15        36     9        0.000000        2.180882         3    ;  uncertainty k = 0.445466
        13        14        15        36     9      180.000000        1.578984         4    ;  uncertainty k = 0.394932
        14        13        12        18     9        0.000000       -0.286928         1    ;  uncertainty k = 0.311980
        14        13        12        18     9      180.000000        9.498491         2    ;  uncertainty k = 0.565818
        14        13        12        18     9        0.000000       -0.064369         3    ;  uncertainty k = 0.409272
        14        13        12        18     9      180.000000        1.293870         4    ;  uncertainty k = 0.308209
        14        15        16        17     9        0.000000        0.210020         1    ;  uncertainty k = 0.342130
        14        15        16        17     9      180.000000        9.845076         2    ;  uncertainty k = 0.416756
        14        15        16        17     9        0.000000        1.018636         3    ;  uncertainty k = 0.241019
        14        15        16        17     9      180.000000        1.537819         4    ;  uncertainty k = 0.193665
        14        15        16        18     9        0.000000       -0.295939         1    ;  uncertainty k = 0.205267
        14        15        16        18     9      180.000000       12.133614         2    ;  uncertainty k = 0.482915
        14        15        16        18     9        0.000000       -0.800724         3    ;  uncertainty k = 0.756144
        14        15        16        18     9      180.000000        1.118661         4    ;  uncertainty k = 0.193902
        15        14        13        35     9        0.000000        0.467288         1    ;  uncertainty k = 0.264299
        15        14        13        35     9      180.000000       14.815485         2    ;  uncertainty k = 0.339247
        15        14        13        35     9        0.000000        2.191607         3    ;  uncertainty k = 0.616024
        15        14        13        35     9      180.000000        1.569960         4    ;  uncertainty k = 0.423653
        15        16        17        25     9        0.000000        0.000000         1    ;  uncertainty k = 0.000000
        15        16        17        25     9      180.000000        0.000000         2    ;  uncertainty k = 0.000000
        15        16        17        25     9        0.000000        0.000000         3    ;  uncertainty k = 0.000000
        15        16        17        25     9      180.000000        0.000000         4    ;  uncertainty k = 0.000000
        15        16        18        37     9        0.000000        0.058098         1    ;  uncertainty k = 0.482403
        15        16        18        37     9      180.000000        6.423959         2    ;  uncertainty k = 0.750975
        15        16        18        37     9        0.000000        1.260263         3    ;  uncertainty k = 0.197819
        15        16        18        37     9      180.000000        1.544369         4    ;  uncertainty k = 0.153198
        17        16        15        36     9        0.000000       -0.229784         1    ;  uncertainty k = 0.554908
        17        16        15        36     9      180.000000        6.728628         2    ;  uncertainty k = 0.212508
        17        16        15        36     9        0.000000        0.572060         3    ;  uncertainty k = 0.260932
        17        16        15        36     9      180.000000        0.916645         4    ;  uncertainty k = 0.197162
        17        16        18        37     9        0.000000       -0.375126         1    ;  uncertainty k = 0.481567
        17        16        18        37     9      180.000000        7.466557         2    ;  uncertainty k = 0.433871
        17        16        18        37     9        0.000000        0.509745         3    ;  uncertainty k = 0.141292
        17        16        18        37     9      180.000000        0.906250         4    ;  uncertainty k = 0.255320
        18        12        13        35     9        0.000000       -0.159637         1    ;  uncertainty k = 0.146316
        18        12        13        35     9      180.000000        4.556482         2    ;  uncertainty k = 0.669072
        18        12        13        35     9        0.000000        1.100181         3    ;  uncertainty k = 0.219835
        18        12        13        35     9      180.000000        1.280296         4    ;  uncertainty k = 0.245194
        18        16        15        36     9        0.000000       -0.116904         1    ;  uncertainty k = 0.385293
        18        16        15        36     9      180.000000        5.230370         2    ;  uncertainty k = 0.816318
        18        16        15        36     9        0.000000        1.039258         3    ;  uncertainty k = 0.136120
        18        16        15        36     9      180.000000        1.353953         4    ;  uncertainty k = 0.174389
        18        16        17        25     9        0.000000        0.000000         1    ;  uncertainty k = 0.000000
        18        16        17        25     9      180.000000        0.000000         2    ;  uncertainty k = 0.000000
        18        16        17        25     9        0.000000        0.000000         3    ;  uncertainty k = 0.000000
        18        16        17        25     9      180.000000        0.000000         4    ;  uncertainty k = 0.000000
        19         7         8        33     9        0.000000       -0.263511         1    ;  uncertainty k = 0.410358
        19         7         8        33     9      180.000000        6.645176         2    ;  uncertainty k = 0.428130
        19         7         8        33     9        0.000000        0.827456         3    ;  uncertainty k = 0.189446
        19         7         8        33     9      180.000000        1.192434         4    ;  uncertainty k = 0.135607
        20        19        22        26     9        0.000000        1.240387         1    ;  uncertainty k = 0.704630
        20        19        22        26     9      180.000000       -0.465947         2    ;  uncertainty k = 0.475076
        20        19        22        26     9        0.000000        0.429513         3    ;  uncertainty k = 0.131938
        20        19        22        26     9      180.000000       -0.011191         4    ;  uncertainty k = 0.163591
        20        19        22        27     9        0.000000        1.240387         1    ;  uncertainty k = 0.704630
        20        19        22        27     9      180.000000       -0.465947         2    ;  uncertainty k = 0.475076
        20        19        22        27     9        0.000000        0.429513         3    ;  uncertainty k = 0.131938
        20        19        22        27     9      180.000000       -0.011191         4    ;  uncertainty k = 0.163591
        20        19        22        28     9        0.000000        1.240387         1    ;  uncertainty k = 0.704630
        20        19        22        28     9      180.000000       -0.465947         2    ;  uncertainty k = 0.475076
        20        19        22        28     9        0.000000        0.429513         3    ;  uncertainty k = 0.131938
        20        19        22        28     9      180.000000       -0.011191         4    ;  uncertainty k = 0.163591
        21        19        22        26     9        0.000000        1.240387         1    ;  uncertainty k = 0.704630
        21        19        22        26     9      180.000000       -0.465947         2    ;  uncertainty k = 0.475076
        21        19        22        26     9        0.000000        0.429513         3    ;  uncertainty k = 0.131938
        21        19        22        26     9      180.000000       -0.011191         4    ;  uncertainty k = 0.163591
        21        19        22        27     9        0.000000        1.240387         1    ;  uncertainty k = 0.704630
        21        19        22        27     9      180.000000       -0.465947         2    ;  uncertainty k = 0.475076
        21        19        22        27     9        0.000000        0.429513         3    ;  uncertainty k = 0.131938
        21        19        22        27     9      180.000000       -0.011191         4    ;  uncertainty k = 0.163591
        21        19        22        28     9        0.000000        1.240387         1    ;  uncertainty k = 0.704630
        21        19        22        28     9      180.000000       -0.465947         2    ;  uncertainty k = 0.475076
        21        19        22        28     9        0.000000        0.429513         3    ;  uncertainty k = 0.131938
        21        19        22        28     9      180.000000       -0.011191         4    ;  uncertainty k = 0.163591
        23         3         2        30     9        0.000000        0.263490         1    ;  uncertainty k = 0.330046
        23         3         2        30     9      180.000000       -0.590095         2    ;  uncertainty k = 0.306729
        23         3         2        30     9        0.000000        0.721400         3    ;  uncertainty k = 0.176946
        23         3         2        30     9      180.000000        0.079587         4    ;  uncertainty k = 0.136498
        23         3         4        31     9        0.000000        0.273367         1    ;  uncertainty k = 0.288473
        23         3         4        31     9      180.000000       -0.700448         2    ;  uncertainty k = 0.314492
        23         3         4        31     9        0.000000        0.866670         3    ;  uncertainty k = 0.217754
        23         3         4        31     9      180.000000        0.036836         4    ;  uncertainty k = 0.054095
        23         3         4        32     9        0.000000        0.273367         1    ;  uncertainty k = 0.288473
        23         3         4        32     9      180.000000       -0.700448         2    ;  uncertainty k = 0.314492
        23         3         4        32     9        0.000000        0.866670         3    ;  uncertainty k = 0.217754
        23         3         4        32     9      180.000000        0.036836         4    ;  uncertainty k = 0.054095
        24         3         2        30     9        0.000000        0.263490         1    ;  uncertainty k = 0.330046
        24         3         2        30     9      180.000000       -0.590095         2    ;  uncertainty k = 0.306729
        24         3         2        30     9        0.000000        0.721400         3    ;  uncertainty k = 0.176946
        24         3         2        30     9      180.000000        0.079587         4    ;  uncertainty k = 0.136498
        24         3         4        31     9        0.000000        0.273367         1    ;  uncertainty k = 0.288473
        24         3         4        31     9      180.000000       -0.700448         2    ;  uncertainty k = 0.314492
        24         3         4        31     9        0.000000        0.866670         3    ;  uncertainty k = 0.217754
        24         3         4        31     9      180.000000        0.036836         4    ;  uncertainty k = 0.054095
        24         3         4        32     9        0.000000        0.273367         1    ;  uncertainty k = 0.288473
        24         3         4        32     9      180.000000       -0.700448         2    ;  uncertainty k = 0.314492
        24         3         4        32     9        0.000000        0.866670         3    ;  uncertainty k = 0.217754
        24         3         4        32     9      180.000000        0.036836         4    ;  uncertainty k = 0.054095
        29         1         2        30     9        0.000000       11.846445         1    ;  uncertainty k = 0.691991
        29         1         2        30     9      180.000000       -0.796077         2    ;  uncertainty k = 0.286325
        29         1         2        30     9        0.000000        0.793237         3    ;  uncertainty k = 0.211936
        29         1         2        30     9      180.000000        0.184424         4    ;  uncertainty k = 0.129100
        33         8         9        34     9        0.000000       -0.165486         1    ;  uncertainty k = 0.419786
        33         8         9        34     9      180.000000        7.643531         2    ;  uncertainty k = 0.379022
        33         8         9        34     9        0.000000       -0.326619         3    ;  uncertainty k = 0.321270
        33         8         9        34     9      180.000000        0.277569         4    ;  uncertainty k = 0.115780

[ dihedrals ] ; impropers
;       ai        aj        ak        al funct           phase               k        pn
         5         4         6        10     4      180.000000        5.437852         2    ;  uncertainty k = 0.339706
         5         6        10         4     4      180.000000        5.437852         2    ;  uncertainty k = 0.339706
         5        10         4         6     4      180.000000        5.437852         2    ;  uncertainty k = 0.339706
         6         2         5         7     4      180.000000        6.275859         2    ;  uncertainty k = 0.235660
         6         5         7         2     4      180.000000        6.275859         2    ;  uncertainty k = 0.235660
         6         7         2         5     4      180.000000        6.275859         2    ;  uncertainty k = 0.235660
         7         6         8        19     4      180.000000        4.968775         2    ;  uncertainty k = 0.478358
         7         8        19         6     4      180.000000        4.968775         2    ;  uncertainty k = 0.478358
         7        19         6         8     4      180.000000        4.968775         2    ;  uncertainty k = 0.478358
         8         7         9        33     4      180.000000        5.373968         2    ;  uncertainty k = 0.239462
         8         9        33         7     4      180.000000        5.373968         2    ;  uncertainty k = 0.239462
         8        33         7         9     4      180.000000        5.373968         2    ;  uncertainty k = 0.239462
         9         8        10        34     4      180.000000        2.066118         2    ;  uncertainty k = 0.140482
         9        10        34         8     4      180.000000        2.066118         2    ;  uncertainty k = 0.140482
         9        34         8        10     4      180.000000        2.066118         2    ;  uncertainty k = 0.140482
        10         5         9        11     4      180.000000       17.247214         2    ;  uncertainty k = 0.108919
        10         9        11         5     4      180.000000       17.247214         2    ;  uncertainty k = 0.108919
        10        11         5         9     4      180.000000       17.247214         2    ;  uncertainty k = 0.108919
        12        11        13        18     4      180.000000       16.506174         2    ;  uncertainty k = 0.129921
        12        13        18        11     4      180.000000       16.506174         2    ;  uncertainty k = 0.129921
        12        18        11        13     4      180.000000       16.506174         2    ;  uncertainty k = 0.129921
        13        12        14        35     4      180.000000       12.488322         2    ;  uncertainty k = 0.066380
        13        14        35        12     4      180.000000       12.488322         2    ;  uncertainty k = 0.066380
        13        35        12        14     4      180.000000       12.488322         2    ;  uncertainty k = 0.066380
        15        14        16        36     4      180.000000       13.313727         2    ;  uncertainty k = 0.082328
        15        16        36        14     4      180.000000       13.313727         2    ;  uncertainty k = 0.082328
        15        36        14        16     4      180.000000       13.313727         2    ;  uncertainty k = 0.082328
        16        15        17        18     4      180.000000       10.079693         2    ;  uncertainty k = 0.173580
        16        17        18        15     4      180.000000       10.079693         2    ;  uncertainty k = 0.173580
        16        18        15        17     4      180.000000       10.079693         2    ;  uncertainty k = 0.173580
        18        12        16        37     4      180.000000        5.086682         2    ;  uncertainty k = 0.211754
        18        16        37        12     4      180.000000        5.086682         2    ;  uncertainty k = 0.211754
        18        37        12        16     4      180.000000        5.086682         2    ;  uncertainty k = 0.211754

[ pairs ]
;       ai        aj funct
         1         4     1
         1         5     1
         1         7     1
         1        23     1
         1        24     1
         2         8     1
         2        10     1
         2        19     1
         2        31     1
         2        32     1
         3         7     1
         3        10     1
         3        29     1
         4         7     1
         4         9     1
         4        11     1
         4        30     1
         5         8     1
         5        12     1
         5        19     1
         5        23     1
         5        24     1
         5        30     1
         5        34     1
         6         9     1
         6        11     1
         6        20     1
         6        21     1
         6        22     1
         6        23     1
         6        24     1
         6        29     1
         6        31     1
         6        32     1
         6        33     1
         7        10     1
         7        26     1
         7        27     1
         7        28     1
         7        30     1
         7        34     1
         8        11     1
         8        20     1
         8        21     1
         8        22     1
         9        12     1
         9        19     1
        10        13     1
        10        18     1
        10        31     1
        10        32     1
        10        33     1
        11        14     1
        11        16     1
        11        34     1
        11        35     1
        11        37     1
        12        15     1
        12        17     1
        13        16     1
        13        36     1
        13        37     1
        14        17     1
        14        18     1
        15        25     1
        15        35     1
        15        37     1
        17        36     1
        17        37     1
        18        25     1
        18        35     1
        18        36     1
        19        33     1
        20        26     1
        20        27     1
        20        28     1
        21        26     1
        21        27     1
        21        28     1
        23        30     1
        23        31     1
        23        32     1
        24        30     1
        24        31     1
        24        32     1
        29        30     1
        33        34     1
