; ITP file created by ByteFF-joint-25, 2026-02-17 09:19:08.154998

[ atomtypes ]
;name           bonded.type        at.num        mass        charge   ptype           sigma         epsilon
 o0bf                                   8      0.0000       0.00000       A     3.24314e-01     3.87820e-01    ;  uncertainty sigma = 0.000033, epsilon = 0.000883
 c1bf                                   6      0.0000       0.00000       A     3.39735e-01     4.50327e-01    ;  uncertainty sigma = 0.000031, epsilon = 0.001400
 c2bf                                   6      0.0000       0.00000       A     3.39804e-01     4.51139e-01    ;  uncertainty sigma = 0.000023, epsilon = 0.001153
 c3bf                                   6      0.0000       0.00000       A     3.39790e-01     4.50784e-01    ;  uncertainty sigma = 0.000016, epsilon = 0.000744
 c4bf                                   6      0.0000       0.00000       A     3.31546e-01     4.13508e-01    ;  uncertainty sigma = 0.000009, epsilon = 0.000938
 c5bf                                   6      0.0000       0.00000       A     3.31549e-01     4.12690e-01    ;  uncertainty sigma = 0.000027, epsilon = 0.001506
 c6bf                                   6      0.0000       0.00000       A     3.31545e-01     4.12842e-01    ;  uncertainty sigma = 0.000019, epsilon = 0.002025
 c7bf                                   6      0.0000       0.00000       A     3.31488e-01     4.13281e-01    ;  uncertainty sigma = 0.000016, epsilon = 0.000289
 c8bf                                   6      0.0000       0.00000       A     3.31528e-01     4.13628e-01    ;  uncertainty sigma = 0.000009, epsilon = 0.000546
 c9bf                                   6      0.0000       0.00000       A     3.31532e-01     4.13247e-01    ;  uncertainty sigma = 0.000015, epsilon = 0.000649
 o10bf                                  8      0.0000       0.00000       A     3.15447e-01     3.01841e-01    ;  uncertainty sigma = 0.000033, epsilon = 0.000830
 c11bf                                  6      0.0000       0.00000       A     3.31527e-01     4.13718e-01    ;  uncertainty sigma = 0.000014, epsilon = 0.000500
 c12bf                                  6      0.0000       0.00000       A     3.31507e-01     4.13296e-01    ;  uncertainty sigma = 0.000006, epsilon = 0.000823
 c13bf                                  6      0.0000       0.00000       A     3.31505e-01     4.13210e-01    ;  uncertainty sigma = 0.000008, epsilon = 0.000693
 cl14bf                                17      0.0000       0.00000       A     3.46594e-01     1.10377e+00    ;  uncertainty sigma = 0.000020, epsilon = 0.001130
 c15bf                                  6      0.0000       0.00000       A     3.31510e-01     4.13320e-01    ;  uncertainty sigma = 0.000005, epsilon = 0.000483
 n16bf                                  7      0.0000       0.00000       A     3.38402e-01     3.93601e-01    ;  uncertainty sigma = 0.000009, epsilon = 0.001235
 c17bf                                  6      0.0000       0.00000       A     3.31503e-01     4.13149e-01    ;  uncertainty sigma = 0.000006, epsilon = 0.000626
 s18bf                                 16      0.0000       0.00000       A     4.05952e-01     2.57052e-01    ;  uncertainty sigma = 0.000036, epsilon = 0.005064
 o19bf                                  8      0.0000       0.00000       A     3.04753e-01     6.10946e-01    ;  uncertainty sigma = 0.000057, epsilon = 0.002055
 o20bf                                  8      0.0000       0.00000       A     3.04753e-01     6.10946e-01    ;  uncertainty sigma = 0.000057, epsilon = 0.002055
 c21bf                                  6      0.0000       0.00000       A     3.39859e-01     4.51367e-01    ;  uncertainty sigma = 0.000048, epsilon = 0.003815
 f22bf                                  9      0.0000       0.00000       A     3.03556e-01     3.47331e-01    ;  uncertainty sigma = 0.000038, epsilon = 0.002391
 f23bf                                  9      0.0000       0.00000       A     3.03556e-01     3.47331e-01    ;  uncertainty sigma = 0.000038, epsilon = 0.002391
 f24bf                                  9      0.0000       0.00000       A     3.03449e-01     3.47672e-01    ;  uncertainty sigma = 0.000012, epsilon = 0.001616
 f25bf                                  9      0.0000       0.00000       A     3.03449e-01     3.47672e-01    ;  uncertainty sigma = 0.000012, epsilon = 0.001616
 h26bf                                  1      0.0000       0.00000       A     5.38093e-02     1.93077e-02    ;  uncertainty sigma = 0.000062, epsilon = 0.000926
 h27bf                                  1      0.0000       0.00000       A     2.42326e-01     8.68829e-02    ;  uncertainty sigma = 0.000128, epsilon = 0.000858
 h28bf                                  1      0.0000       0.00000       A     2.60052e-01     8.67184e-02    ;  uncertainty sigma = 0.000035, epsilon = 0.000545
 h29bf                                  1      0.0000       0.00000       A     2.60052e-01     8.67184e-02    ;  uncertainty sigma = 0.000035, epsilon = 0.000545
 h30bf                                  1      0.0000       0.00000       A     2.62567e-01     6.72430e-02    ;  uncertainty sigma = 0.000020, epsilon = 0.000765
 h31bf                                  1      0.0000       0.00000       A     2.62556e-01     6.70855e-02    ;  uncertainty sigma = 0.000006, epsilon = 0.000381
 h32bf                                  1      0.0000       0.00000       A     2.62550e-01     6.72720e-02    ;  uncertainty sigma = 0.000009, epsilon = 0.000482
 h33bf                                  1      0.0000       0.00000       A     2.53671e-01     6.70841e-02    ;  uncertainty sigma = 0.000022, epsilon = 0.000540
 h34bf                                  1      0.0000       0.00000       A     2.53654e-01     6.71320e-02    ;  uncertainty sigma = 0.000036, epsilon = 0.000684
 h35bf                                  1      0.0000       0.00000       A     2.06486e-01     8.66136e-02    ;  uncertainty sigma = 0.000324, epsilon = 0.003096

[ moleculetype ]
;name             nrexcl
 MOL                   3

[ atoms ]
;       nr            type      resi   res      atom      cgnr      charge          mass ; qtot
         1            o0bf         1   UNL        o0         1    -0.57153       15.9990 ; qtot   -0.572
         2            c1bf         1   UNL        c1         2     0.16308       12.0110 ; qtot   -0.408
         3            c2bf         1   UNL        c2         3     0.38805       12.0110 ; qtot   -0.020
         4            c3bf         1   UNL        c3         4    -0.05626       12.0110 ; qtot   -0.077
         5            c4bf         1   UNL        c4         5    -0.09865       12.0110 ; qtot   -0.175
         6            c5bf         1   UNL        c5         6     0.01490       12.0110 ; qtot   -0.160
         7            c6bf         1   UNL        c6         7    -0.22035       12.0110 ; qtot   -0.381
         8            c7bf         1   UNL        c7         8     0.00023       12.0110 ; qtot   -0.381
         9            c8bf         1   UNL        c8         9    -0.17505       12.0110 ; qtot   -0.556
        10            c9bf         1   UNL        c9        10     0.16301       12.0110 ; qtot   -0.393
        11           o10bf         1   UNL       o10        11    -0.24245       15.9990 ; qtot   -0.635
        12           c11bf         1   UNL       c11        12     0.01040       12.0110 ; qtot   -0.625
        13           c12bf         1   UNL       c12        13    -0.11194       12.0110 ; qtot   -0.737
        14           c13bf         1   UNL       c13        14    -0.06908       12.0110 ; qtot   -0.806
        15          cl14bf         1   UNL      cl14        15    -0.09065       35.4530 ; qtot   -0.896
        16           c15bf         1   UNL       c15        16     0.39469       12.0110 ; qtot   -0.502
        17           n16bf         1   UNL       n16        17    -0.63555       14.0070 ; qtot   -1.137
        18           c17bf         1   UNL       c17        18     0.37357       12.0110 ; qtot   -0.764
        19           s18bf         1   UNL       s18        19     0.95167       32.0670 ; qtot    0.188
        20           o19bf         1   UNL       o19        20    -0.54108       15.9990 ; qtot   -0.353
        21           o20bf         1   UNL       o20        21    -0.54108       15.9990 ; qtot   -0.894
        22           c21bf         1   UNL       c21        22     0.39889       12.0110 ; qtot   -0.495
        23           f22bf         1   UNL       f22        23    -0.20936       18.9980 ; qtot   -0.705
        24           f23bf         1   UNL       f23        24    -0.20936       18.9980 ; qtot   -0.914
        25           f24bf         1   UNL       f24        25    -0.22758       18.9980 ; qtot   -1.141
        26           f25bf         1   UNL       f25        26    -0.22758       18.9980 ; qtot   -1.369
        27           h26bf         1   UNL       h26        27     0.41807        1.0080 ; qtot   -0.951
        28           h27bf         1   UNL       h27        28     0.09251        1.0080 ; qtot   -0.858
        29           h28bf         1   UNL       h28        29     0.09141        1.0080 ; qtot   -0.767
        30           h29bf         1   UNL       h29        30     0.09141        1.0080 ; qtot   -0.676
        31           h30bf         1   UNL       h30        31     0.16754        1.0080 ; qtot   -0.508
        32           h31bf         1   UNL       h31        32     0.15782        1.0080 ; qtot   -0.350
        33           h32bf         1   UNL       h32        33     0.17111        1.0080 ; qtot   -0.179
        34           h33bf         1   UNL       h33        34     0.03954        1.0080 ; qtot   -0.140
        35           h34bf         1   UNL       h34        35     0.04009        1.0080 ; qtot   -0.100
        36           h35bf         1   UNL       h35        36     0.09956        1.0080 ; qtot   -0.000

[ bonds ]
;       ai        aj funct               r               k
         1         2     1        0.141341   266784.598340    ;  uncertainty r = 0.000175, k = 15.524028
         1        27     1        0.097120   457921.536914    ;  uncertainty r = 0.000049, k = 2.604885
         2         3     1        0.154750   188145.853564    ;  uncertainty r = 0.000252, k = 8.551885
         2         6     1        0.151714   243204.627490    ;  uncertainty r = 0.000132, k = 21.912760
         2        28     1        0.109523   308370.759473    ;  uncertainty r = 0.000079, k = 3.008190
         3         4     1        0.153436   201677.482617    ;  uncertainty r = 0.000098, k = 9.661873
         3        25     1        0.137560   301163.370020    ;  uncertainty r = 0.000061, k = 5.585031
         3        26     1        0.137560   301163.370020    ;  uncertainty r = 0.000061, k = 5.585031
         4         5     1        0.151090   252656.524561    ;  uncertainty r = 0.000114, k = 18.986535
         4        29     1        0.109406   310072.348145    ;  uncertainty r = 0.000044, k = 1.784813
         4        30     1        0.109406   310072.348145    ;  uncertainty r = 0.000044, k = 1.784813
         5         6     1        0.139459   361509.244922    ;  uncertainty r = 0.000132, k = 18.774077
         5        10     1        0.138840   351938.625830    ;  uncertainty r = 0.000126, k = 4.204617
         6         7     1        0.139363   334313.423682    ;  uncertainty r = 0.000173, k = 10.460803
         7         8     1        0.139237   347441.234424    ;  uncertainty r = 0.000199, k = 4.708881
         7        19     1        0.177739   134181.459692    ;  uncertainty r = 0.000101, k = 16.597905
         8         9     1        0.139047   365888.144141    ;  uncertainty r = 0.000089, k = 4.428435
         8        31     1        0.108451   328724.754980    ;  uncertainty r = 0.000029, k = 1.039879
         9        10     1        0.139655   352878.927734    ;  uncertainty r = 0.000036, k = 6.333307
         9        32     1        0.108753   336163.893701    ;  uncertainty r = 0.000031, k = 1.172871
        10        11     1        0.138639   316250.975146    ;  uncertainty r = 0.000152, k = 9.017611
        11        12     1        0.137495   313875.717529    ;  uncertainty r = 0.000093, k = 9.585282
        12        13     1        0.139047   367915.050049    ;  uncertainty r = 0.000069, k = 3.242697
        12        18     1        0.139384   343503.131250    ;  uncertainty r = 0.000051, k = 5.172355
        13        14     1        0.139022   372848.181152    ;  uncertainty r = 0.000061, k = 1.312180
        13        33     1        0.108764   336236.955371    ;  uncertainty r = 0.000008, k = 2.572035
        14        15     1        0.175165   197075.593359    ;  uncertainty r = 0.000037, k = 3.906565
        14        16     1        0.139504   342457.948438    ;  uncertainty r = 0.000018, k = 5.471711
        16        17     1        0.133414   403359.408691    ;  uncertainty r = 0.000061, k = 2.578988
        16        34     1        0.108971   339905.948486    ;  uncertainty r = 0.000028, k = 2.822633
        17        18     1        0.133190   400185.043848    ;  uncertainty r = 0.000056, k = 4.105482
        18        35     1        0.109016   338730.041211    ;  uncertainty r = 0.000034, k = 3.827777
        19        20     1        0.146996   488142.560742    ;  uncertainty r = 0.000109, k = 11.850675
        19        21     1        0.146996   488142.560742    ;  uncertainty r = 0.000109, k = 11.850675
        19        22     1        0.186536   142705.018994    ;  uncertainty r = 0.000116, k = 23.071390
        22        23     1        0.134863   311074.398779    ;  uncertainty r = 0.000139, k = 4.314222
        22        24     1        0.134863   311074.398779    ;  uncertainty r = 0.000139, k = 4.314219
        22        36     1        0.109695   322431.670654    ;  uncertainty r = 0.000162, k = 6.852620

[ angles ]
;       ai        aj        ak funct           theta             cth
         1         2         3     1      107.410141      628.438511    ;  uncertainty theta = 0.008670, k = 0.247901
         1         2         6     1      112.066589      671.595587    ;  uncertainty theta = 0.005529, k = 0.196698
         1         2        28     1      108.003479      442.344519    ;  uncertainty theta = 0.007986, k = 0.200175
         2         1        27     1      107.329124      457.634098    ;  uncertainty theta = 0.001447, k = 0.131498
         2         3         4     1      111.123581      611.251015    ;  uncertainty theta = 0.003918, k = 0.280397
         2         3        25     1      109.530434      593.873012    ;  uncertainty theta = 0.003178, k = 0.146818
         2         3        26     1      109.530434      593.873012    ;  uncertainty theta = 0.003178, k = 0.146818
         2         6         5     1      115.482101      508.084796    ;  uncertainty theta = 0.005046, k = 0.165689
         2         6         7     1      124.767944      356.487385    ;  uncertainty theta = 0.006571, k = 0.206169
         3         2         6     1      104.668800      715.487622    ;  uncertainty theta = 0.005918, k = 0.229144
         3         2        28     1      107.064758      384.815956    ;  uncertainty theta = 0.005442, k = 0.198908
         3         4         5     1      103.987465      711.936176    ;  uncertainty theta = 0.005472, k = 0.351798
         3         4        29     1      107.225937      380.179694    ;  uncertainty theta = 0.002622, k = 0.088553
         3         4        30     1      107.225937      380.179694    ;  uncertainty theta = 0.002622, k = 0.088553
         4         3        25     1      111.588036      659.455501    ;  uncertainty theta = 0.002894, k = 0.086543
         4         3        26     1      111.588036      659.455501    ;  uncertainty theta = 0.002894, k = 0.086543
         4         5         6     1      115.273758      535.434880    ;  uncertainty theta = 0.004642, k = 0.061409
         4         5        10     1      125.797531      387.635700    ;  uncertainty theta = 0.006393, k = 0.180631
         5         4        29     1      110.505722      380.194250    ;  uncertainty theta = 0.002396, k = 0.102521
         5         4        30     1      110.505722      380.194250    ;  uncertainty theta = 0.002396, k = 0.102521
         5         6         7     1      121.409523      426.243436    ;  uncertainty theta = 0.005962, k = 0.166432
         5        10         9     1      120.431190      382.231441    ;  uncertainty theta = 0.003683, k = 0.218247
         5        10        11     1      117.948502      402.314749    ;  uncertainty theta = 0.007816, k = 0.316856
         6         2        28     1      109.731972      377.005750    ;  uncertainty theta = 0.004453, k = 0.172263
         6         5        10     1      119.412476      420.267465    ;  uncertainty theta = 0.001773, k = 0.136756
         6         7         8     1      123.116066      445.327765    ;  uncertainty theta = 0.005659, k = 0.170630
         6         7        19     1      116.791275      336.735836    ;  uncertainty theta = 0.008800, k = 0.302163
         7         8         9     1      121.432945      489.586672    ;  uncertainty theta = 0.005626, k = 0.102524
         7         8        31     1      118.614845      263.130640    ;  uncertainty theta = 0.003009, k = 0.105928
         7        19        20     1      115.391090      628.816588    ;  uncertainty theta = 0.008709, k = 0.083356
         7        19        21     1      115.391090      628.816588    ;  uncertainty theta = 0.008709, k = 0.083356
         7        19        22     1      104.522888      508.977765    ;  uncertainty theta = 0.007629, k = 0.328333
         8         7        19     1      115.957886      352.467110    ;  uncertainty theta = 0.010104, k = 0.220152
         8         9        10     1      119.874046      510.098748    ;  uncertainty theta = 0.002486, k = 0.036492
         8         9        32     1      120.069801      277.121241    ;  uncertainty theta = 0.001669, k = 0.045307
         9         8        31     1      120.480507      283.263427    ;  uncertainty theta = 0.002371, k = 0.063445
         9        10        11     1      120.688011      433.928765    ;  uncertainty theta = 0.003000, k = 0.185669
        10         9        32     1      120.139420      275.784597    ;  uncertainty theta = 0.001836, k = 0.074376
        10        11        12     1      112.865494      472.298176    ;  uncertainty theta = 0.002903, k = 0.119232
        11        12        13     1      120.370384      417.054514    ;  uncertainty theta = 0.006354, k = 0.062947
        11        12        18     1      118.668106      386.042727    ;  uncertainty theta = 0.007729, k = 0.144169
        12        13        14     1      116.226700      511.930589    ;  uncertainty theta = 0.002780, k = 0.161449
        12        13        33     1      121.453331      270.860181    ;  uncertainty theta = 0.003924, k = 0.091349
        12        18        17     1      122.720253      677.513685    ;  uncertainty theta = 0.003716, k = 0.070222
        12        18        35     1      120.335037      264.941157    ;  uncertainty theta = 0.001859, k = 0.072369
        13        12        18     1      120.256081      351.953431    ;  uncertainty theta = 0.004675, k = 0.278889
        13        14        15     1      121.064964      435.285584    ;  uncertainty theta = 0.001072, k = 0.046969
        13        14        16     1      119.908569      337.176510    ;  uncertainty theta = 0.002769, k = 0.158559
        14        13        33     1      122.117188      285.578110    ;  uncertainty theta = 0.002355, k = 0.135532
        14        16        17     1      121.966019      669.318060    ;  uncertainty theta = 0.001257, k = 0.096720
        14        16        34     1      120.919571      275.798291    ;  uncertainty theta = 0.002003, k = 0.059465
        15        14        16     1      120.427040      416.394507    ;  uncertainty theta = 0.001446, k = 0.175935
        16        17        18     1      119.849930      402.425644    ;  uncertainty theta = 0.003427, k = 0.196434
        17        16        34     1      117.338966      333.550815    ;  uncertainty theta = 0.001782, k = 0.102482
        17        18        35     1      117.199440      342.130965    ;  uncertainty theta = 0.001420, k = 0.061029
        19        22        23     1      105.975868      511.799679    ;  uncertainty theta = 0.002875, k = 0.156926
        19        22        24     1      105.975868      511.799679    ;  uncertainty theta = 0.002875, k = 0.156926
        19        22        36     1      112.107346      381.893489    ;  uncertainty theta = 0.010585, k = 0.201519
        20        19        21     1      125.136795      859.031394    ;  uncertainty theta = 0.002708, k = 0.070467
        20        19        22     1      107.842819      525.272898    ;  uncertainty theta = 0.005343, k = 0.249030
        21        19        22     1      107.842819      525.272898    ;  uncertainty theta = 0.005343, k = 0.249030
        23        22        24     1      109.505371      835.369028    ;  uncertainty theta = 0.003942, k = 0.097215
        23        22        36     1      112.536720      472.683372    ;  uncertainty theta = 0.005070, k = 0.120464
        24        22        36     1      112.536720      472.683372    ;  uncertainty theta = 0.005070, k = 0.120464
        25         3        26     1      107.133316      788.630883    ;  uncertainty theta = 0.004222, k = 0.140640
        29         4        30     1      105.669456      291.017291    ;  uncertainty theta = 0.002858, k = 0.056929

[ dihedrals ] ; propers for gromacs 4.5 or higher, use funct 9
;       ai        aj        ak        al funct           phase               k        pn
         1         2         3         4     9        0.000000       -2.647338         1    ;  uncertainty k = 0.986579
         1         2         3         4     9      180.000000        1.652150         2    ;  uncertainty k = 0.518109
         1         2         3         4     9        0.000000        1.033401         3    ;  uncertainty k = 0.310740
         1         2         3         4     9      180.000000        0.042296         4    ;  uncertainty k = 0.270326
         1         2         3        25     9        0.000000       -0.282027         1    ;  uncertainty k = 1.406562
         1         2         3        25     9      180.000000        0.319715         2    ;  uncertainty k = 0.697098
         1         2         3        25     9        0.000000        1.460301         3    ;  uncertainty k = 0.368849
         1         2         3        25     9      180.000000        0.083291         4    ;  uncertainty k = 0.260871
         1         2         3        26     9        0.000000       -0.282027         1    ;  uncertainty k = 1.406562
         1         2         3        26     9      180.000000        0.319715         2    ;  uncertainty k = 0.697098
         1         2         3        26     9        0.000000        1.460301         3    ;  uncertainty k = 0.368849
         1         2         3        26     9      180.000000        0.083291         4    ;  uncertainty k = 0.260871
         1         2         6         5     9        0.000000       -4.190876         1    ;  uncertainty k = 2.353799
         1         2         6         5     9      180.000000        4.951563         2    ;  uncertainty k = 1.130322
         1         2         6         5     9        0.000000        1.071859         3    ;  uncertainty k = 0.706679
         1         2         6         5     9      180.000000        0.606400         4    ;  uncertainty k = 0.229408
         1         2         6         7     9        0.000000       -0.943621         1    ;  uncertainty k = 0.984383
         1         2         6         7     9      180.000000        3.603945         2    ;  uncertainty k = 0.208039
         1         2         6         7     9        0.000000       -0.171603         3    ;  uncertainty k = 0.275307
         1         2         6         7     9      180.000000        0.490059         4    ;  uncertainty k = 0.197339
         2         3         4         5     9        0.000000       -0.343517         1    ;  uncertainty k = 1.847992
         2         3         4         5     9      180.000000        1.882240         2    ;  uncertainty k = 0.624184
         2         3         4         5     9        0.000000       -0.007238         3    ;  uncertainty k = 0.517955
         2         3         4         5     9      180.000000       -0.165939         4    ;  uncertainty k = 0.372661
         2         3         4        29     9        0.000000       -0.273391         1    ;  uncertainty k = 0.290130
         2         3         4        29     9      180.000000       -0.226858         2    ;  uncertainty k = 0.647078
         2         3         4        29     9        0.000000       -0.001285         3    ;  uncertainty k = 0.213938
         2         3         4        29     9      180.000000       -0.023110         4    ;  uncertainty k = 0.191048
         2         3         4        30     9        0.000000       -0.273391         1    ;  uncertainty k = 0.290130
         2         3         4        30     9      180.000000       -0.226858         2    ;  uncertainty k = 0.647078
         2         3         4        30     9        0.000000       -0.001285         3    ;  uncertainty k = 0.213938
         2         3         4        30     9      180.000000       -0.023110         4    ;  uncertainty k = 0.191048
         2         6         5         4     9        0.000000        0.511988         1    ;  uncertainty k = 0.600405
         2         6         5         4     9      180.000000       11.969283         2    ;  uncertainty k = 0.653020
         2         6         5         4     9        0.000000       -0.487008         3    ;  uncertainty k = 0.905776
         2         6         5         4     9      180.000000        1.207176         4    ;  uncertainty k = 0.296538
         2         6         5        10     9        0.000000        0.574928         1    ;  uncertainty k = 0.485116
         2         6         5        10     9      180.000000        8.660486         2    ;  uncertainty k = 0.374148
         2         6         5        10     9        0.000000        0.667963         3    ;  uncertainty k = 0.261447
         2         6         5        10     9      180.000000        1.276519         4    ;  uncertainty k = 0.188666
         2         6         7         8     9        0.000000        0.266864         1    ;  uncertainty k = 0.519488
         2         6         7         8     9      180.000000        6.814833         2    ;  uncertainty k = 0.132650
         2         6         7         8     9        0.000000        1.224627         3    ;  uncertainty k = 0.246508
         2         6         7         8     9      180.000000        1.549771         4    ;  uncertainty k = 0.139338
         2         6         7        19     9        0.000000       -0.058746         1    ;  uncertainty k = 0.438706
         2         6         7        19     9      180.000000        6.778029         2    ;  uncertainty k = 0.674715
         2         6         7        19     9        0.000000        1.097226         3    ;  uncertainty k = 0.175426
         2         6         7        19     9      180.000000        1.202690         4    ;  uncertainty k = 0.217219
         3         2         1        27     9        0.000000       13.878324         1    ;  uncertainty k = 0.471464
         3         2         1        27     9      180.000000       -4.488746         2    ;  uncertainty k = 0.235496
         3         2         1        27     9        0.000000        1.023469         3    ;  uncertainty k = 0.242500
         3         2         1        27     9      180.000000        0.093198         4    ;  uncertainty k = 0.074143
         3         2         6         5     9        0.000000       -0.734157         1    ;  uncertainty k = 2.146318
         3         2         6         5     9      180.000000        8.453884         2    ;  uncertainty k = 0.974915
         3         2         6         5     9        0.000000       -1.069185         3    ;  uncertainty k = 0.488885
         3         2         6         5     9      180.000000        0.879797         4    ;  uncertainty k = 0.256354
         3         2         6         7     9        0.000000       -1.673159         1    ;  uncertainty k = 1.570259
         3         2         6         7     9      180.000000        3.562313         2    ;  uncertainty k = 0.723179
         3         2         6         7     9        0.000000        0.138142         3    ;  uncertainty k = 0.370819
         3         2         6         7     9      180.000000        0.662784         4    ;  uncertainty k = 0.260872
         3         4         5         6     9        0.000000       -2.107341         1    ;  uncertainty k = 1.633444
         3         4         5         6     9      180.000000        9.569408         2    ;  uncertainty k = 0.567106
         3         4         5         6     9        0.000000       -1.783138         3    ;  uncertainty k = 0.403251
         3         4         5         6     9      180.000000        0.927977         4    ;  uncertainty k = 0.121193
         3         4         5        10     9        0.000000       -0.366974         1    ;  uncertainty k = 0.777972
         3         4         5        10     9      180.000000        2.398153         2    ;  uncertainty k = 0.566650
         3         4         5        10     9        0.000000        0.131450         3    ;  uncertainty k = 0.226332
         3         4         5        10     9      180.000000        0.631746         4    ;  uncertainty k = 0.115399
         4         3         2         6     9        0.000000       -0.261565         1    ;  uncertainty k = 1.818525
         4         3         2         6     9      180.000000        1.250530         2    ;  uncertainty k = 0.648866
         4         3         2         6     9        0.000000        0.090776         3    ;  uncertainty k = 0.275660
         4         3         2         6     9      180.000000       -0.055252         4    ;  uncertainty k = 0.266326
         4         3         2        28     9        0.000000       -0.827317         1    ;  uncertainty k = 0.603777
         4         3         2        28     9      180.000000        0.450456         2    ;  uncertainty k = 0.547082
         4         3         2        28     9        0.000000        0.144561         3    ;  uncertainty k = 0.273661
         4         3         2        28     9      180.000000       -0.113838         4    ;  uncertainty k = 0.222036
         4         5         6         7     9        0.000000        0.298296         1    ;  uncertainty k = 0.744054
         4         5         6         7     9      180.000000        8.870144         2    ;  uncertainty k = 0.522051
         4         5         6         7     9        0.000000        0.646047         3    ;  uncertainty k = 0.423740
         4         5         6         7     9      180.000000        1.202370         4    ;  uncertainty k = 0.224730
         4         5        10         9     9        0.000000        0.523923         1    ;  uncertainty k = 0.333019
         4         5        10         9     9      180.000000        6.358260         2    ;  uncertainty k = 0.264801
         4         5        10         9     9        0.000000        1.308987         3    ;  uncertainty k = 0.244581
         4         5        10         9     9      180.000000        1.606844         4    ;  uncertainty k = 0.309582
         4         5        10        11     9        0.000000       -0.259355         1    ;  uncertainty k = 0.652139
         4         5        10        11     9      180.000000        8.927720         2    ;  uncertainty k = 0.232389
         4         5        10        11     9        0.000000        1.018881         3    ;  uncertainty k = 0.235617
         4         5        10        11     9      180.000000        1.254210         4    ;  uncertainty k = 0.176165
         5         4         3        25     9        0.000000       -0.911684         1    ;  uncertainty k = 0.942710
         5         4         3        25     9      180.000000        0.727772         2    ;  uncertainty k = 0.486490
         5         4         3        25     9        0.000000        1.114750         3    ;  uncertainty k = 0.312374
         5         4         3        25     9      180.000000        0.251148         4    ;  uncertainty k = 0.035387
         5         4         3        26     9        0.000000       -0.911684         1    ;  uncertainty k = 0.942710
         5         4         3        26     9      180.000000        0.727772         2    ;  uncertainty k = 0.486490
         5         4         3        26     9        0.000000        1.114750         3    ;  uncertainty k = 0.312374
         5         4         3        26     9      180.000000        0.251148         4    ;  uncertainty k = 0.035387
         5         6         2        28     9        0.000000       -0.760214         1    ;  uncertainty k = 0.658938
         5         6         2        28     9      180.000000        3.226615         2    ;  uncertainty k = 0.727454
         5         6         2        28     9        0.000000        0.790680         3    ;  uncertainty k = 0.174907
         5         6         2        28     9      180.000000        0.223562         4    ;  uncertainty k = 0.140828
         5         6         7         8     9        0.000000       -0.340577         1    ;  uncertainty k = 0.541147
         5         6         7         8     9      180.000000       10.040703         2    ;  uncertainty k = 0.524497
         5         6         7         8     9        0.000000       -0.676298         3    ;  uncertainty k = 0.423585
         5         6         7         8     9      180.000000        0.871702         4    ;  uncertainty k = 0.245427
         5         6         7        19     9        0.000000        0.627748         1    ;  uncertainty k = 0.889788
         5         6         7        19     9      180.000000        8.020371         2    ;  uncertainty k = 0.913445
         5         6         7        19     9        0.000000        1.412632         3    ;  uncertainty k = 0.541063
         5         6         7        19     9      180.000000        1.624502         4    ;  uncertainty k = 0.250627
         5        10         9         8     9        0.000000        0.281864         1    ;  uncertainty k = 0.219253
         5        10         9         8     9      180.000000        9.054704         2    ;  uncertainty k = 0.395757
         5        10         9         8     9        0.000000        0.250071         3    ;  uncertainty k = 0.429680
         5        10         9         8     9      180.000000        1.320688         4    ;  uncertainty k = 0.317911
         5        10         9        32     9        0.000000        0.166039         1    ;  uncertainty k = 0.379055
         5        10         9        32     9      180.000000        6.837751         2    ;  uncertainty k = 0.492909
         5        10         9        32     9        0.000000        1.382370         3    ;  uncertainty k = 0.507234
         5        10         9        32     9      180.000000        1.604458         4    ;  uncertainty k = 0.102224
         5        10        11        12     9        0.000000        4.430831         1    ;  uncertainty k = 0.518610
         5        10        11        12     9      180.000000        5.029081         2    ;  uncertainty k = 0.356628
         5        10        11        12     9        0.000000        0.714615         3    ;  uncertainty k = 0.214189
         5        10        11        12     9      180.000000        0.138935         4    ;  uncertainty k = 0.066185
         6         2         1        27     9        0.000000       14.356372         1    ;  uncertainty k = 0.378293
         6         2         1        27     9      180.000000       -3.879969         2    ;  uncertainty k = 0.646583
         6         2         1        27     9        0.000000        1.017986         3    ;  uncertainty k = 0.166477
         6         2         1        27     9      180.000000        0.075934         4    ;  uncertainty k = 0.060629
         6         2         3        25     9        0.000000        0.087965         1    ;  uncertainty k = 1.040093
         6         2         3        25     9      180.000000        0.593782         2    ;  uncertainty k = 0.971166
         6         2         3        25     9        0.000000        0.922706         3    ;  uncertainty k = 0.180242
         6         2         3        25     9      180.000000        0.256322         4    ;  uncertainty k = 0.070584
         6         2         3        26     9        0.000000        0.087965         1    ;  uncertainty k = 1.040093
         6         2         3        26     9      180.000000        0.593782         2    ;  uncertainty k = 0.971166
         6         2         3        26     9        0.000000        0.922706         3    ;  uncertainty k = 0.180242
         6         2         3        26     9      180.000000        0.256322         4    ;  uncertainty k = 0.070584
         6         5         4        29     9        0.000000       -0.186948         1    ;  uncertainty k = 0.396030
         6         5         4        29     9      180.000000        1.719655         2    ;  uncertainty k = 0.330316
         6         5         4        29     9        0.000000        0.268349         3    ;  uncertainty k = 0.103203
         6         5         4        29     9      180.000000        0.226818         4    ;  uncertainty k = 0.104600
         6         5         4        30     9        0.000000       -0.186948         1    ;  uncertainty k = 0.396030
         6         5         4        30     9      180.000000        1.719655         2    ;  uncertainty k = 0.330316
         6         5         4        30     9        0.000000        0.268349         3    ;  uncertainty k = 0.103203
         6         5         4        30     9      180.000000        0.226818         4    ;  uncertainty k = 0.104600
         6         5        10         9     9        0.000000       -0.229983         1    ;  uncertainty k = 0.183435
         6         5        10         9     9      180.000000        8.229121         2    ;  uncertainty k = 0.561605
         6         5        10         9     9        0.000000       -0.439830         3    ;  uncertainty k = 0.452537
         6         5        10         9     9      180.000000        1.063304         4    ;  uncertainty k = 0.290357
         6         5        10        11     9        0.000000        0.024060         1    ;  uncertainty k = 0.243270
         6         5        10        11     9      180.000000        9.646744         2    ;  uncertainty k = 0.369516
         6         5        10        11     9        0.000000        1.398787         3    ;  uncertainty k = 0.270831
         6         5        10        11     9      180.000000        1.525941         4    ;  uncertainty k = 0.188651
         6         7         8         9     9        0.000000       -0.226947         1    ;  uncertainty k = 0.404292
         6         7         8         9     9      180.000000       10.314664         2    ;  uncertainty k = 0.587043
         6         7         8         9     9        0.000000       -0.330955         3    ;  uncertainty k = 0.465185
         6         7         8         9     9      180.000000        1.017660         4    ;  uncertainty k = 0.482669
         6         7         8        31     9        0.000000       -0.010302         1    ;  uncertainty k = 0.443253
         6         7         8        31     9      180.000000        7.414769         2    ;  uncertainty k = 0.590876
         6         7         8        31     9        0.000000        1.235409         3    ;  uncertainty k = 0.453819
         6         7         8        31     9      180.000000        1.590886         4    ;  uncertainty k = 0.078520
         6         7        19        20     9        0.000000       -2.153510         1    ;  uncertainty k = 2.129437
         6         7        19        20     9      180.000000        0.900498         2    ;  uncertainty k = 0.553457
         6         7        19        20     9        0.000000        0.424678         3    ;  uncertainty k = 0.280729
         6         7        19        20     9      180.000000       -0.005323         4    ;  uncertainty k = 0.204673
         6         7        19        21     9        0.000000       -2.153510         1    ;  uncertainty k = 2.129437
         6         7        19        21     9      180.000000        0.900498         2    ;  uncertainty k = 0.553457
         6         7        19        21     9        0.000000        0.424678         3    ;  uncertainty k = 0.280729
         6         7        19        21     9      180.000000       -0.005323         4    ;  uncertainty k = 0.204673
         6         7        19        22     9        0.000000        2.161408         1    ;  uncertainty k = 2.075161
         6         7        19        22     9      180.000000       -0.581943         2    ;  uncertainty k = 0.486064
         6         7        19        22     9        0.000000        0.252313         3    ;  uncertainty k = 0.308742
         6         7        19        22     9      180.000000        0.268466         4    ;  uncertainty k = 0.152262
         7         6         2        28     9        0.000000        1.507443         1    ;  uncertainty k = 0.697949
         7         6         2        28     9      180.000000        2.145621         2    ;  uncertainty k = 0.614276
         7         6         2        28     9        0.000000       -0.092308         3    ;  uncertainty k = 0.094693
         7         6         2        28     9      180.000000        0.183518         4    ;  uncertainty k = 0.174580
         7         6         5        10     9        0.000000        0.007875         1    ;  uncertainty k = 0.600729
         7         6         5        10     9      180.000000        8.368858         2    ;  uncertainty k = 0.329786
         7         6         5        10     9        0.000000        0.094311         3    ;  uncertainty k = 0.237966
         7         6         5        10     9      180.000000        1.145184         4    ;  uncertainty k = 0.283675
         7         8         9        10     9        0.000000        0.098201         1    ;  uncertainty k = 0.379834
         7         8         9        10     9      180.000000       12.112995         2    ;  uncertainty k = 0.434677
         7         8         9        10     9        0.000000       -0.876794         3    ;  uncertainty k = 0.650779
         7         8         9        10     9      180.000000        0.879376         4    ;  uncertainty k = 0.391596
         7         8         9        32     9        0.000000       -0.043885         1    ;  uncertainty k = 0.454486
         7         8         9        32     9      180.000000        8.355380         2    ;  uncertainty k = 0.252444
         7         8         9        32     9        0.000000        1.196734         3    ;  uncertainty k = 0.243667
         7         8         9        32     9      180.000000        1.698049         4    ;  uncertainty k = 0.125988
         7        19        22        23     9        0.000000        1.441310         1    ;  uncertainty k = 0.924178
         7        19        22        23     9      180.000000       -1.205125         2    ;  uncertainty k = 0.344520
         7        19        22        23     9        0.000000        0.330592         3    ;  uncertainty k = 0.328898
         7        19        22        23     9      180.000000       -0.139189         4    ;  uncertainty k = 0.235318
         7        19        22        24     9        0.000000        1.441310         1    ;  uncertainty k = 0.924178
         7        19        22        24     9      180.000000       -1.205125         2    ;  uncertainty k = 0.344520
         7        19        22        24     9        0.000000        0.330592         3    ;  uncertainty k = 0.328898
         7        19        22        24     9      180.000000       -0.139189         4    ;  uncertainty k = 0.235318
         7        19        22        36     9        0.000000        1.359242         1    ;  uncertainty k = 0.473484
         7        19        22        36     9      180.000000       -1.456803         2    ;  uncertainty k = 0.903688
         7        19        22        36     9        0.000000        0.113912         3    ;  uncertainty k = 0.245911
         7        19        22        36     9      180.000000       -0.148458         4    ;  uncertainty k = 0.185857
         8         7        19        20     9        0.000000       -1.511817         1    ;  uncertainty k = 0.903396
         8         7        19        20     9      180.000000        1.089544         2    ;  uncertainty k = 0.911582
         8         7        19        20     9        0.000000        0.214063         3    ;  uncertainty k = 0.293667
         8         7        19        20     9      180.000000        0.000729         4    ;  uncertainty k = 0.222476
         8         7        19        21     9        0.000000       -1.511817         1    ;  uncertainty k = 0.903396
         8         7        19        21     9      180.000000        1.089544         2    ;  uncertainty k = 0.911582
         8         7        19        21     9        0.000000        0.214063         3    ;  uncertainty k = 0.293667
         8         7        19        21     9      180.000000        0.000729         4    ;  uncertainty k = 0.222476
         8         7        19        22     9        0.000000        2.274326         1    ;  uncertainty k = 0.971942
         8         7        19        22     9      180.000000        0.070059         2    ;  uncertainty k = 0.515224
         8         7        19        22     9        0.000000        0.131595         3    ;  uncertainty k = 0.603001
         8         7        19        22     9      180.000000        0.251058         4    ;  uncertainty k = 0.142822
         8         9        10        11     9        0.000000       -0.041414         1    ;  uncertainty k = 0.309862
         8         9        10        11     9      180.000000       10.848555         2    ;  uncertainty k = 0.501117
         8         9        10        11     9        0.000000        1.492304         3    ;  uncertainty k = 0.306817
         8         9        10        11     9      180.000000        1.751386         4    ;  uncertainty k = 0.252591
         9         8         7        19     9        0.000000        0.478817         1    ;  uncertainty k = 0.278926
         9         8         7        19     9      180.000000        8.878856         2    ;  uncertainty k = 0.540055
         9         8         7        19     9        0.000000        1.355363         3    ;  uncertainty k = 0.342112
         9         8         7        19     9      180.000000        1.866266         4    ;  uncertainty k = 0.148778
         9        10        11        12     9        0.000000        5.242085         1    ;  uncertainty k = 0.337852
         9        10        11        12     9      180.000000        5.735009         2    ;  uncertainty k = 0.166856
         9        10        11        12     9        0.000000        0.467116         3    ;  uncertainty k = 0.200371
         9        10        11        12     9      180.000000        0.169182         4    ;  uncertainty k = 0.077697
        10         5         4        29     9        0.000000        0.671907         1    ;  uncertainty k = 0.187141
        10         5         4        29     9      180.000000        1.627856         2    ;  uncertainty k = 0.600621
        10         5         4        29     9        0.000000        0.147143         3    ;  uncertainty k = 0.246396
        10         5         4        29     9      180.000000        0.224251         4    ;  uncertainty k = 0.144091
        10         5         4        30     9        0.000000        0.671907         1    ;  uncertainty k = 0.187141
        10         5         4        30     9      180.000000        1.627856         2    ;  uncertainty k = 0.600621
        10         5         4        30     9        0.000000        0.147143         3    ;  uncertainty k = 0.246396
        10         5         4        30     9      180.000000        0.224251         4    ;  uncertainty k = 0.144091
        10         9         8        31     9        0.000000       -0.105300         1    ;  uncertainty k = 0.347299
        10         9         8        31     9      180.000000        7.849653         2    ;  uncertainty k = 0.142021
        10         9         8        31     9        0.000000        1.059127         3    ;  uncertainty k = 0.219906
        10         9         8        31     9      180.000000        1.721546         4    ;  uncertainty k = 0.061107
        10        11        12        13     9        0.000000        3.899634         1    ;  uncertainty k = 0.392367
        10        11        12        13     9      180.000000        4.970819         2    ;  uncertainty k = 0.269470
        10        11        12        13     9        0.000000        0.368152         3    ;  uncertainty k = 0.091035
        10        11        12        13     9      180.000000        0.213622         4    ;  uncertainty k = 0.091576
        10        11        12        18     9        0.000000        5.137729         1    ;  uncertainty k = 0.451424
        10        11        12        18     9      180.000000        4.722899         2    ;  uncertainty k = 0.358930
        10        11        12        18     9        0.000000        0.674700         3    ;  uncertainty k = 0.113701
        10        11        12        18     9      180.000000        0.150294         4    ;  uncertainty k = 0.158641
        11        10         9        32     9        0.000000       -0.058785         1    ;  uncertainty k = 0.166298
        11        10         9        32     9      180.000000        9.001384         2    ;  uncertainty k = 0.306267
        11        10         9        32     9        0.000000        0.849763         3    ;  uncertainty k = 0.206173
        11        10         9        32     9      180.000000        1.138558         4    ;  uncertainty k = 0.150253
        11        12        13        14     9        0.000000        0.233585         1    ;  uncertainty k = 0.138698
        11        12        13        14     9      180.000000       10.890619         2    ;  uncertainty k = 0.365077
        11        12        13        14     9        0.000000        1.340930         3    ;  uncertainty k = 0.214673
        11        12        13        14     9      180.000000        1.621898         4    ;  uncertainty k = 0.175989
        11        12        13        33     9        0.000000       -0.032606         1    ;  uncertainty k = 0.218142
        11        12        13        33     9      180.000000        8.655401         2    ;  uncertainty k = 0.490958
        11        12        13        33     9        0.000000        0.910174         3    ;  uncertainty k = 0.275609
        11        12        13        33     9      180.000000        1.118299         4    ;  uncertainty k = 0.130251
        11        12        18        17     9        0.000000        0.042871         1    ;  uncertainty k = 0.251591
        11        12        18        17     9      180.000000       10.448533         2    ;  uncertainty k = 0.520548
        11        12        18        17     9        0.000000        1.063084         3    ;  uncertainty k = 0.246680
        11        12        18        17     9      180.000000        1.559145         4    ;  uncertainty k = 0.164784
        11        12        18        35     9        0.000000       -0.073655         1    ;  uncertainty k = 0.224732
        11        12        18        35     9      180.000000        7.093987         2    ;  uncertainty k = 0.357613
        11        12        18        35     9        0.000000        0.777481         3    ;  uncertainty k = 0.278448
        11        12        18        35     9      180.000000        1.056185         4    ;  uncertainty k = 0.144483
        12        13        14        15     9        0.000000        0.090920         1    ;  uncertainty k = 0.282065
        12        13        14        15     9      180.000000        9.514265         2    ;  uncertainty k = 0.624391
        12        13        14        15     9        0.000000        1.530666         3    ;  uncertainty k = 0.482575
        12        13        14        15     9      180.000000        1.693283         4    ;  uncertainty k = 0.179266
        12        13        14        16     9        0.000000       -0.034581         1    ;  uncertainty k = 0.137183
        12        13        14        16     9      180.000000        9.681817         2    ;  uncertainty k = 0.411074
        12        13        14        16     9        0.000000       -0.052608         3    ;  uncertainty k = 0.456784
        12        13        14        16     9      180.000000        1.230374         4    ;  uncertainty k = 0.329784
        12        18        17        16     9        0.000000       -0.251826         1    ;  uncertainty k = 0.662222
        12        18        17        16     9      180.000000       15.131122         2    ;  uncertainty k = 0.339645
        12        18        17        16     9        0.000000        0.874920         3    ;  uncertainty k = 0.583218
        12        18        17        16     9      180.000000        1.479662         4    ;  uncertainty k = 0.247450
        13        12        18        17     9        0.000000       -0.254226         1    ;  uncertainty k = 0.324640
        13        12        18        17     9      180.000000        9.902909         2    ;  uncertainty k = 0.540459
        13        12        18        17     9        0.000000       -0.171175         3    ;  uncertainty k = 0.440961
        13        12        18        17     9      180.000000        1.280252         4    ;  uncertainty k = 0.284590
        13        12        18        35     9        0.000000       -0.187957         1    ;  uncertainty k = 0.214931
        13        12        18        35     9      180.000000        4.589883         2    ;  uncertainty k = 0.665897
        13        12        18        35     9        0.000000        1.067319         3    ;  uncertainty k = 0.242539
        13        12        18        35     9      180.000000        1.274756         4    ;  uncertainty k = 0.277669
        13        14        16        17     9        0.000000       -0.221106         1    ;  uncertainty k = 0.211998
        13        14        16        17     9      180.000000       11.150160         2    ;  uncertainty k = 0.594762
        13        14        16        17     9        0.000000       -0.484881         3    ;  uncertainty k = 0.467268
        13        14        16        17     9      180.000000        1.157339         4    ;  uncertainty k = 0.261637
        13        14        16        34     9        0.000000       -0.432451         1    ;  uncertainty k = 0.306741
        13        14        16        34     9      180.000000        4.835654         2    ;  uncertainty k = 0.444751
        13        14        16        34     9        0.000000        1.105095         3    ;  uncertainty k = 0.216990
        13        14        16        34     9      180.000000        1.242807         4    ;  uncertainty k = 0.223308
        14        13        12        18     9        0.000000        0.077912         1    ;  uncertainty k = 0.203978
        14        13        12        18     9      180.000000        9.398311         2    ;  uncertainty k = 0.559859
        14        13        12        18     9        0.000000       -0.341975         3    ;  uncertainty k = 0.390973
        14        13        12        18     9      180.000000        1.127877         4    ;  uncertainty k = 0.295198
        14        16        17        18     9        0.000000       -0.255566         1    ;  uncertainty k = 0.200883
        14        16        17        18     9      180.000000       15.941298         2    ;  uncertainty k = 0.358878
        14        16        17        18     9        0.000000        0.761212         3    ;  uncertainty k = 0.804113
        14        16        17        18     9      180.000000        1.465585         4    ;  uncertainty k = 0.241215
        15        14        13        33     9        0.000000       -0.209469         1    ;  uncertainty k = 0.198205
        15        14        13        33     9      180.000000        7.458522         2    ;  uncertainty k = 0.480252
        15        14        13        33     9        0.000000        0.590374         3    ;  uncertainty k = 0.425890
        15        14        13        33     9      180.000000        0.922680         4    ;  uncertainty k = 0.139940
        15        14        16        17     9        0.000000       -0.041926         1    ;  uncertainty k = 0.549255
        15        14        16        17     9      180.000000        9.677250         2    ;  uncertainty k = 0.506261
        15        14        16        17     9        0.000000        1.300939         3    ;  uncertainty k = 0.118970
        15        14        16        17     9      180.000000        1.604710         4    ;  uncertainty k = 0.080160
        15        14        16        34     9        0.000000        0.110834         1    ;  uncertainty k = 0.403826
        15        14        16        34     9      180.000000        6.056073         2    ;  uncertainty k = 0.313514
        15        14        16        34     9        0.000000        0.566648         3    ;  uncertainty k = 0.267326
        15        14        16        34     9      180.000000        0.857627         4    ;  uncertainty k = 0.217501
        16        14        13        33     9        0.000000       -0.126312         1    ;  uncertainty k = 0.271315
        16        14        13        33     9      180.000000        5.723178         2    ;  uncertainty k = 0.558056
        16        14        13        33     9        0.000000        1.349466         3    ;  uncertainty k = 0.256378
        16        14        13        33     9      180.000000        1.455208         4    ;  uncertainty k = 0.175148
        16        17        18        35     9        0.000000        0.388511         1    ;  uncertainty k = 0.384010
        16        17        18        35     9      180.000000       15.046340         2    ;  uncertainty k = 0.299375
        16        17        18        35     9        0.000000        2.219515         3    ;  uncertainty k = 0.450738
        16        17        18        35     9      180.000000        1.631056         4    ;  uncertainty k = 0.367305
        18        12        13        33     9        0.000000       -0.062760         1    ;  uncertainty k = 0.238599
        18        12        13        33     9      180.000000        5.420540         2    ;  uncertainty k = 0.828023
        18        12        13        33     9        0.000000        1.287864         3    ;  uncertainty k = 0.307493
        18        12        13        33     9      180.000000        1.491453         4    ;  uncertainty k = 0.161405
        18        17        16        34     9        0.000000        0.337021         1    ;  uncertainty k = 0.334979
        18        17        16        34     9      180.000000       15.189505         2    ;  uncertainty k = 0.318795
        18        17        16        34     9        0.000000        2.164001         3    ;  uncertainty k = 0.461220
        18        17        16        34     9      180.000000        1.601814         4    ;  uncertainty k = 0.335098
        19         7         8        31     9        0.000000       -0.313535         1    ;  uncertainty k = 0.369072
        19         7         8        31     9      180.000000        6.632869         2    ;  uncertainty k = 0.416123
        19         7         8        31     9        0.000000        0.819054         3    ;  uncertainty k = 0.191710
        19         7         8        31     9      180.000000        1.198579         4    ;  uncertainty k = 0.185303
        20        19        22        23     9        0.000000        0.866315         1    ;  uncertainty k = 0.447985
        20        19        22        23     9      180.000000        0.207300         2    ;  uncertainty k = 0.372008
        20        19        22        23     9        0.000000        0.562711         3    ;  uncertainty k = 0.310237
        20        19        22        23     9      180.000000       -0.021132         4    ;  uncertainty k = 0.176620
        20        19        22        24     9        0.000000        0.866315         1    ;  uncertainty k = 0.447985
        20        19        22        24     9      180.000000        0.207300         2    ;  uncertainty k = 0.372008
        20        19        22        24     9        0.000000        0.562711         3    ;  uncertainty k = 0.310237
        20        19        22        24     9      180.000000       -0.021132         4    ;  uncertainty k = 0.176620
        20        19        22        36     9        0.000000        0.040594         1    ;  uncertainty k = 0.552981
        20        19        22        36     9      180.000000       -0.240105         2    ;  uncertainty k = 0.195525
        20        19        22        36     9        0.000000        0.226848         3    ;  uncertainty k = 0.136800
        20        19        22        36     9      180.000000       -0.103279         4    ;  uncertainty k = 0.122284
        21        19        22        23     9        0.000000        0.866315         1    ;  uncertainty k = 0.447985
        21        19        22        23     9      180.000000        0.207300         2    ;  uncertainty k = 0.372008
        21        19        22        23     9        0.000000        0.562711         3    ;  uncertainty k = 0.310237
        21        19        22        23     9      180.000000       -0.021132         4    ;  uncertainty k = 0.176620
        21        19        22        24     9        0.000000        0.866315         1    ;  uncertainty k = 0.447985
        21        19        22        24     9      180.000000        0.207300         2    ;  uncertainty k = 0.372008
        21        19        22        24     9        0.000000        0.562711         3    ;  uncertainty k = 0.310237
        21        19        22        24     9      180.000000       -0.021132         4    ;  uncertainty k = 0.176620
        21        19        22        36     9        0.000000        0.040594         1    ;  uncertainty k = 0.552981
        21        19        22        36     9      180.000000       -0.240105         2    ;  uncertainty k = 0.195525
        21        19        22        36     9        0.000000        0.226848         3    ;  uncertainty k = 0.136800
        21        19        22        36     9      180.000000       -0.103279         4    ;  uncertainty k = 0.122284
        25         3         2        28     9        0.000000        0.263490         1    ;  uncertainty k = 0.330046
        25         3         2        28     9      180.000000       -0.590095         2    ;  uncertainty k = 0.306729
        25         3         2        28     9        0.000000        0.721400         3    ;  uncertainty k = 0.176946
        25         3         2        28     9      180.000000        0.079587         4    ;  uncertainty k = 0.136498
        25         3         4        29     9        0.000000        0.273367         1    ;  uncertainty k = 0.288473
        25         3         4        29     9      180.000000       -0.700448         2    ;  uncertainty k = 0.314492
        25         3         4        29     9        0.000000        0.866670         3    ;  uncertainty k = 0.217754
        25         3         4        29     9      180.000000        0.036836         4    ;  uncertainty k = 0.054095
        25         3         4        30     9        0.000000        0.273367         1    ;  uncertainty k = 0.288473
        25         3         4        30     9      180.000000       -0.700448         2    ;  uncertainty k = 0.314492
        25         3         4        30     9        0.000000        0.866670         3    ;  uncertainty k = 0.217754
        25         3         4        30     9      180.000000        0.036836         4    ;  uncertainty k = 0.054095
        26         3         2        28     9        0.000000        0.263490         1    ;  uncertainty k = 0.330046
        26         3         2        28     9      180.000000       -0.590095         2    ;  uncertainty k = 0.306729
        26         3         2        28     9        0.000000        0.721400         3    ;  uncertainty k = 0.176946
        26         3         2        28     9      180.000000        0.079587         4    ;  uncertainty k = 0.136498
        26         3         4        29     9        0.000000        0.273367         1    ;  uncertainty k = 0.288473
        26         3         4        29     9      180.000000       -0.700448         2    ;  uncertainty k = 0.314492
        26         3         4        29     9        0.000000        0.866670         3    ;  uncertainty k = 0.217754
        26         3         4        29     9      180.000000        0.036836         4    ;  uncertainty k = 0.054095
        26         3         4        30     9        0.000000        0.273367         1    ;  uncertainty k = 0.288473
        26         3         4        30     9      180.000000       -0.700448         2    ;  uncertainty k = 0.314492
        26         3         4        30     9        0.000000        0.866670         3    ;  uncertainty k = 0.217754
        26         3         4        30     9      180.000000        0.036836         4    ;  uncertainty k = 0.054095
        27         1         2        28     9        0.000000       11.846444         1    ;  uncertainty k = 0.691990
        27         1         2        28     9      180.000000       -0.796076         2    ;  uncertainty k = 0.286325
        27         1         2        28     9        0.000000        0.793237         3    ;  uncertainty k = 0.211936
        27         1         2        28     9      180.000000        0.184424         4    ;  uncertainty k = 0.129099
        31         8         9        32     9        0.000000       -0.148180         1    ;  uncertainty k = 0.424417
        31         8         9        32     9      180.000000        7.608203         2    ;  uncertainty k = 0.385312
        31         8         9        32     9        0.000000       -0.327533         3    ;  uncertainty k = 0.307859
        31         8         9        32     9      180.000000        0.270460         4    ;  uncertainty k = 0.108533

[ dihedrals ] ; impropers
;       ai        aj        ak        al funct           phase               k        pn
         5         4         6        10     4      180.000000        5.363970         2    ;  uncertainty k = 0.337725
         5         6        10         4     4      180.000000        5.363970         2    ;  uncertainty k = 0.337725
         5        10         4         6     4      180.000000        5.363970         2    ;  uncertainty k = 0.337725
         6         2         5         7     4      180.000000        6.199994         2    ;  uncertainty k = 0.188288
         6         5         7         2     4      180.000000        6.199994         2    ;  uncertainty k = 0.188288
         6         7         2         5     4      180.000000        6.199994         2    ;  uncertainty k = 0.188288
         7         6         8        19     4      180.000000        4.719752         2    ;  uncertainty k = 0.474877
         7         8        19         6     4      180.000000        4.719752         2    ;  uncertainty k = 0.474877
         7        19         6         8     4      180.000000        4.719752         2    ;  uncertainty k = 0.474877
         8         7         9        31     4      180.000000        5.256765         2    ;  uncertainty k = 0.201357
         8         9        31         7     4      180.000000        5.256765         2    ;  uncertainty k = 0.201357
         8        31         7         9     4      180.000000        5.256765         2    ;  uncertainty k = 0.201357
         9         8        10        32     4      180.000000        2.015671         2    ;  uncertainty k = 0.112966
         9        10        32         8     4      180.000000        2.015671         2    ;  uncertainty k = 0.112966
         9        32         8        10     4      180.000000        2.015671         2    ;  uncertainty k = 0.112966
        10         5         9        11     4      180.000000       17.286349         2    ;  uncertainty k = 0.105791
        10         9        11         5     4      180.000000       17.286349         2    ;  uncertainty k = 0.105791
        10        11         5         9     4      180.000000       17.286349         2    ;  uncertainty k = 0.105791
        12        11        13        18     4      180.000000       16.511393         2    ;  uncertainty k = 0.126480
        12        13        18        11     4      180.000000       16.511393         2    ;  uncertainty k = 0.126480
        12        18        11        13     4      180.000000       16.511393         2    ;  uncertainty k = 0.126480
        13        12        14        33     4      180.000000        4.217132         2    ;  uncertainty k = 0.194570
        13        14        33        12     4      180.000000        4.217132         2    ;  uncertainty k = 0.194570
        13        33        12        14     4      180.000000        4.217132         2    ;  uncertainty k = 0.194570
        14        13        15        16     4      180.000000       12.815556         2    ;  uncertainty k = 0.062885
        14        15        16        13     4      180.000000       12.815556         2    ;  uncertainty k = 0.062885
        14        16        13        15     4      180.000000       12.815556         2    ;  uncertainty k = 0.062885
        16        14        17        34     4      180.000000       11.535063         2    ;  uncertainty k = 0.058948
        16        17        34        14     4      180.000000       11.535063         2    ;  uncertainty k = 0.058948
        16        34        14        17     4      180.000000       11.535063         2    ;  uncertainty k = 0.058948
        18        12        17        35     4      180.000000       10.946016         2    ;  uncertainty k = 0.094411
        18        17        35        12     4      180.000000       10.946016         2    ;  uncertainty k = 0.094411
        18        35        12        17     4      180.000000       10.946016         2    ;  uncertainty k = 0.094411

[ pairs ]
;       ai        aj funct
         1         4     1
         1         5     1
         1         7     1
         1        25     1
         1        26     1
         2         8     1
         2        10     1
         2        19     1
         2        29     1
         2        30     1
         3         7     1
         3        10     1
         3        27     1
         4         7     1
         4         9     1
         4        11     1
         4        28     1
         5         8     1
         5        12     1
         5        19     1
         5        25     1
         5        26     1
         5        28     1
         5        32     1
         6         9     1
         6        11     1
         6        20     1
         6        21     1
         6        22     1
         6        25     1
         6        26     1
         6        27     1
         6        29     1
         6        30     1
         6        31     1
         7        10     1
         7        23     1
         7        24     1
         7        28     1
         7        32     1
         7        36     1
         8        11     1
         8        20     1
         8        21     1
         8        22     1
         9        12     1
         9        19     1
        10        13     1
        10        18     1
        10        29     1
        10        30     1
        10        31     1
        11        14     1
        11        17     1
        11        32     1
        11        33     1
        11        35     1
        12        15     1
        12        16     1
        13        17     1
        13        34     1
        13        35     1
        14        18     1
        15        17     1
        15        33     1
        15        34     1
        16        33     1
        16        35     1
        18        33     1
        18        34     1
        19        31     1
        20        23     1
        20        24     1
        20        36     1
        21        23     1
        21        24     1
        21        36     1
        25        28     1
        25        29     1
        25        30     1
        26        28     1
        26        29     1
        26        30     1
        27        28     1
        31        32     1
