; ITP file created by ByteFF-joint-25, 2026-02-17 09:18:44.752598

[ atomtypes ]
;name           bonded.type        at.num        mass        charge   ptype           sigma         epsilon
 o0bf                                   8      0.0000       0.00000       A     3.24314e-01     3.87820e-01    ;  uncertainty sigma = 0.000033, epsilon = 0.000883
 c1bf                                   6      0.0000       0.00000       A     3.39732e-01     4.50286e-01    ;  uncertainty sigma = 0.000031, epsilon = 0.001479
 c2bf                                   6      0.0000       0.00000       A     3.39804e-01     4.51139e-01    ;  uncertainty sigma = 0.000023, epsilon = 0.001153
 c3bf                                   6      0.0000       0.00000       A     3.39790e-01     4.50784e-01    ;  uncertainty sigma = 0.000016, epsilon = 0.000744
 c4bf                                   6      0.0000       0.00000       A     3.31543e-01     4.13487e-01    ;  uncertainty sigma = 0.000010, epsilon = 0.000942
 c5bf                                   6      0.0000       0.00000       A     3.31563e-01     4.12613e-01    ;  uncertainty sigma = 0.000022, epsilon = 0.001213
 c6bf                                   6      0.0000       0.00000       A     3.31509e-01     4.12814e-01    ;  uncertainty sigma = 0.000018, epsilon = 0.002018
 c7bf                                   6      0.0000       0.00000       A     3.31522e-01     4.13337e-01    ;  uncertainty sigma = 0.000009, epsilon = 0.000738
 c8bf                                   6      0.0000       0.00000       A     3.31528e-01     4.13650e-01    ;  uncertainty sigma = 0.000010, epsilon = 0.000487
 c9bf                                   6      0.0000       0.00000       A     3.31531e-01     4.13205e-01    ;  uncertainty sigma = 0.000015, epsilon = 0.000623
 o10bf                                  8      0.0000       0.00000       A     3.15544e-01     3.01948e-01    ;  uncertainty sigma = 0.000035, epsilon = 0.001551
 c11bf                                  6      0.0000       0.00000       A     3.31511e-01     4.13571e-01    ;  uncertainty sigma = 0.000010, epsilon = 0.000767
 c12bf                                  6      0.0000       0.00000       A     3.31518e-01     4.13730e-01    ;  uncertainty sigma = 0.000004, epsilon = 0.000811
 c13bf                                  6      0.0000       0.00000       A     3.31509e-01     4.13333e-01    ;  uncertainty sigma = 0.000007, epsilon = 0.000387
 f14bf                                  9      0.0000       0.00000       A     3.03415e-01     3.47926e-01    ;  uncertainty sigma = 0.000006, epsilon = 0.000734
 c15bf                                  6      0.0000       0.00000       A     3.31525e-01     4.13682e-01    ;  uncertainty sigma = 0.000009, epsilon = 0.000681
 c16bf                                  6      0.0000       0.00000       A     3.31509e-01     4.13333e-01    ;  uncertainty sigma = 0.000007, epsilon = 0.000387
 f17bf                                  9      0.0000       0.00000       A     3.03415e-01     3.47927e-01    ;  uncertainty sigma = 0.000006, epsilon = 0.000734
 c18bf                                  6      0.0000       0.00000       A     3.31518e-01     4.13730e-01    ;  uncertainty sigma = 0.000004, epsilon = 0.000811
 s19bf                                 16      0.0000       0.00000       A     4.05831e-01     2.57003e-01    ;  uncertainty sigma = 0.000009, epsilon = 0.003255
 o20bf                                  8      0.0000       0.00000       A     3.04800e-01     6.12000e-01    ;  uncertainty sigma = 0.000019, epsilon = 0.001178
 o21bf                                  8      0.0000       0.00000       A     3.04800e-01     6.12000e-01    ;  uncertainty sigma = 0.000019, epsilon = 0.001178
 n22bf                                  7      0.0000       0.00000       A     3.50662e-01     2.19579e-01    ;  uncertainty sigma = 0.000032, epsilon = 0.001400
 f23bf                                  9      0.0000       0.00000       A     3.03449e-01     3.47672e-01    ;  uncertainty sigma = 0.000012, epsilon = 0.001616
 f24bf                                  9      0.0000       0.00000       A     3.03449e-01     3.47672e-01    ;  uncertainty sigma = 0.000012, epsilon = 0.001616
 c25bf                                  6      0.0000       0.00000       A     3.39773e-01     4.51254e-01    ;  uncertainty sigma = 0.000013, epsilon = 0.000914
 h26bf                                  1      0.0000       0.00000       A     5.38093e-02     1.93077e-02    ;  uncertainty sigma = 0.000062, epsilon = 0.000926
 h27bf                                  1      0.0000       0.00000       A     2.42326e-01     8.68827e-02    ;  uncertainty sigma = 0.000128, epsilon = 0.000858
 h28bf                                  1      0.0000       0.00000       A     2.60052e-01     8.67185e-02    ;  uncertainty sigma = 0.000035, epsilon = 0.000545
 h29bf                                  1      0.0000       0.00000       A     2.60052e-01     8.67185e-02    ;  uncertainty sigma = 0.000035, epsilon = 0.000545
 h30bf                                  1      0.0000       0.00000       A     2.62561e-01     6.72196e-02    ;  uncertainty sigma = 0.000018, epsilon = 0.000741
 h31bf                                  1      0.0000       0.00000       A     2.62556e-01     6.70855e-02    ;  uncertainty sigma = 0.000006, epsilon = 0.000381
 h32bf                                  1      0.0000       0.00000       A     2.62552e-01     6.72491e-02    ;  uncertainty sigma = 0.000007, epsilon = 0.000350
 h33bf                                  1      0.0000       0.00000       A     2.62567e-01     6.73686e-02    ;  uncertainty sigma = 0.000010, epsilon = 0.000382
 h34bf                                  1      0.0000       0.00000       A     2.62552e-01     6.72491e-02    ;  uncertainty sigma = 0.000007, epsilon = 0.000350
 h35bf                                  1      0.0000       0.00000       A     1.10717e-01     4.08441e-02    ;  uncertainty sigma = 0.000071, epsilon = 0.001174
 h36bf                                  1      0.0000       0.00000       A     2.42156e-01     8.66336e-02    ;  uncertainty sigma = 0.000014, epsilon = 0.000388
 h37bf                                  1      0.0000       0.00000       A     2.42156e-01     8.66336e-02    ;  uncertainty sigma = 0.000014, epsilon = 0.000388
 h38bf                                  1      0.0000       0.00000       A     2.42156e-01     8.66336e-02    ;  uncertainty sigma = 0.000014, epsilon = 0.000388

[ moleculetype ]
;name             nrexcl
 MOL                   3

[ atoms ]
;       nr            type      resi   res      atom      cgnr      charge          mass ; qtot
         1            o0bf         1   UNL        o0         1    -0.57180       15.9990 ; qtot   -0.572
         2            c1bf         1   UNL        c1         2     0.16419       12.0110 ; qtot   -0.408
         3            c2bf         1   UNL        c2         3     0.38809       12.0110 ; qtot   -0.020
         4            c3bf         1   UNL        c3         4    -0.05586       12.0110 ; qtot   -0.075
         5            c4bf         1   UNL        c4         5    -0.10164       12.0110 ; qtot   -0.177
         6            c5bf         1   UNL        c5         6     0.00673       12.0110 ; qtot   -0.170
         7            c6bf         1   UNL        c6         7    -0.23879       12.0110 ; qtot   -0.409
         8            c7bf         1   UNL        c7         8    -0.00875       12.0110 ; qtot   -0.418
         9            c8bf         1   UNL        c8         9    -0.17845       12.0110 ; qtot   -0.596
        10            c9bf         1   UNL        c9        10     0.16668       12.0110 ; qtot   -0.430
        11           o10bf         1   UNL       o10        11    -0.24833       15.9990 ; qtot   -0.678
        12           c11bf         1   UNL       c11        12     0.17398       12.0110 ; qtot   -0.504
        13           c12bf         1   UNL       c12        13    -0.21553       12.0110 ; qtot   -0.719
        14           c13bf         1   UNL       c13        14     0.18115       12.0110 ; qtot   -0.538
        15           f14bf         1   UNL       f14        15    -0.13434       18.9980 ; qtot   -0.673
        16           c15bf         1   UNL       c15        16    -0.22603       12.0110 ; qtot   -0.899
        17           c16bf         1   UNL       c16        17     0.18115       12.0110 ; qtot   -0.718
        18           f17bf         1   UNL       f17        18    -0.13434       18.9980 ; qtot   -0.852
        19           c18bf         1   UNL       c18        19    -0.21553       12.0110 ; qtot   -1.067
        20           s19bf         1   UNL       s19        20     1.20904       32.0670 ; qtot    0.142
        21           o20bf         1   UNL       o20        21    -0.59478       15.9990 ; qtot   -0.453
        22           o21bf         1   UNL       o21        22    -0.59478       15.9990 ; qtot   -1.048
        23           n22bf         1   UNL       n22        23    -0.78042       14.0070 ; qtot   -1.828
        24           f23bf         1   UNL       f23        24    -0.22758       18.9980 ; qtot   -2.056
        25           f24bf         1   UNL       f24        25    -0.22758       18.9980 ; qtot   -2.284
        26           c25bf         1   UNL       c25        26     0.17266       12.0110 ; qtot   -2.111
        27           h26bf         1   UNL       h26        27     0.41807        1.0080 ; qtot   -1.693
        28           h27bf         1   UNL       h27        28     0.09280        1.0080 ; qtot   -1.600
        29           h28bf         1   UNL       h28        29     0.09141        1.0080 ; qtot   -1.509
        30           h29bf         1   UNL       h29        30     0.09141        1.0080 ; qtot   -1.417
        31           h30bf         1   UNL       h30        31     0.16690        1.0080 ; qtot   -1.250
        32           h31bf         1   UNL       h31        32     0.15698        1.0080 ; qtot   -1.093
        33           h32bf         1   UNL       h32        33     0.17232        1.0080 ; qtot   -0.921
        34           h33bf         1   UNL       h33        34     0.17302        1.0080 ; qtot   -0.748
        35           h34bf         1   UNL       h34        35     0.17232        1.0080 ; qtot   -0.576
        36           h35bf         1   UNL       h35        36     0.41646        1.0080 ; qtot   -0.159
        37           h36bf         1   UNL       h36        37     0.05306        1.0080 ; qtot   -0.106
        38           h37bf         1   UNL       h37        38     0.05306        1.0080 ; qtot   -0.053
        39           h38bf         1   UNL       h38        39     0.05305        1.0080 ; qtot   -0.000

[ bonds ]
;       ai        aj funct               r               k
         1         2     1        0.141331   267113.056641    ;  uncertainty r = 0.000172, k = 16.485083
         1        27     1        0.097120   457921.536914    ;  uncertainty r = 0.000049, k = 2.604885
         2         3     1        0.154734   188259.634155    ;  uncertainty r = 0.000263, k = 7.032730
         2         6     1        0.151708   245635.326172    ;  uncertainty r = 0.000139, k = 20.497732
         2        28     1        0.109517   308365.728662    ;  uncertainty r = 0.000075, k = 3.129445
         3         4     1        0.153436   201677.482617    ;  uncertainty r = 0.000098, k = 9.661873
         3        24     1        0.137560   301163.370020    ;  uncertainty r = 0.000061, k = 5.585031
         3        25     1        0.137560   301163.370020    ;  uncertainty r = 0.000061, k = 5.585031
         4         5     1        0.151103   251822.635791    ;  uncertainty r = 0.000111, k = 19.730269
         4        29     1        0.109406   310072.348145    ;  uncertainty r = 0.000044, k = 1.784813
         4        30     1        0.109406   310072.348145    ;  uncertainty r = 0.000044, k = 1.784813
         5         6     1        0.139500   360586.359326    ;  uncertainty r = 0.000141, k = 21.232225
         5        10     1        0.138851   352235.443652    ;  uncertainty r = 0.000132, k = 5.267191
         6         7     1        0.139229   335423.726123    ;  uncertainty r = 0.000142, k = 13.833998
         7         8     1        0.139316   347334.029639    ;  uncertainty r = 0.000156, k = 7.463264
         7        20     1        0.178898   156178.346826    ;  uncertainty r = 0.000211, k = 20.082095
         8         9     1        0.139213   365369.638672    ;  uncertainty r = 0.000072, k = 6.133232
         8        31     1        0.108472   328030.503125    ;  uncertainty r = 0.000036, k = 1.705069
         9        10     1        0.139641   353341.047266    ;  uncertainty r = 0.000088, k = 6.953342
         9        32     1        0.108767   335998.847363    ;  uncertainty r = 0.000034, k = 1.377941
        10        11     1        0.138440   316900.281689    ;  uncertainty r = 0.000153, k = 11.466634
        11        12     1        0.137463   318925.731982    ;  uncertainty r = 0.000071, k = 4.610372
        12        13     1        0.139530   359247.474219    ;  uncertainty r = 0.000036, k = 2.166069
        12        19     1        0.139530   359247.525293    ;  uncertainty r = 0.000036, k = 2.166043
        13        14     1        0.138947   361555.364941    ;  uncertainty r = 0.000040, k = 2.077232
        13        33     1        0.108788   339427.663965    ;  uncertainty r = 0.000020, k = 1.308496
        14        15     1        0.135169   340532.475928    ;  uncertainty r = 0.000051, k = 1.928135
        14        16     1        0.139095   364995.009277    ;  uncertainty r = 0.000024, k = 1.685249
        16        17     1        0.139095   364995.009277    ;  uncertainty r = 0.000024, k = 1.685270
        16        34     1        0.108736   339313.002344    ;  uncertainty r = 0.000017, k = 0.790660
        17        18     1        0.135169   340532.501465    ;  uncertainty r = 0.000051, k = 1.928142
        17        19     1        0.138947   361555.416016    ;  uncertainty r = 0.000040, k = 2.077265
        19        35     1        0.108788   339427.638428    ;  uncertainty r = 0.000020, k = 1.308504
        20        21     1        0.147128   534696.149316    ;  uncertainty r = 0.000081, k = 5.788704
        20        22     1        0.147128   534696.149316    ;  uncertainty r = 0.000081, k = 5.788704
        20        23     1        0.169247   179256.283643    ;  uncertainty r = 0.000159, k = 30.474459
        23        26     1        0.147159   244847.455273    ;  uncertainty r = 0.000057, k = 3.893541
        23        36     1        0.102247   453443.145117    ;  uncertainty r = 0.000050, k = 2.939494
        26        37     1        0.109424   310613.479492    ;  uncertainty r = 0.000029, k = 2.840346
        26        38     1        0.109424   310613.479492    ;  uncertainty r = 0.000029, k = 2.840346
        26        39     1        0.109424   310613.505029    ;  uncertainty r = 0.000029, k = 2.840348

[ angles ]
;       ai        aj        ak funct           theta             cth
         1         2         3     1      107.403610      630.358008    ;  uncertainty theta = 0.009066, k = 0.257815
         1         2         6     1      112.318848      669.387585    ;  uncertainty theta = 0.007695, k = 0.207292
         1         2        28     1      108.014236      441.995683    ;  uncertainty theta = 0.008433, k = 0.201993
         2         1        27     1      107.346542      458.138615    ;  uncertainty theta = 0.001499, k = 0.125841
         2         3         4     1      111.108292      610.592860    ;  uncertainty theta = 0.003859, k = 0.275914
         2         3        24     1      109.526100      594.826568    ;  uncertainty theta = 0.003297, k = 0.153738
         2         3        25     1      109.526100      594.826568    ;  uncertainty theta = 0.003297, k = 0.153738
         2         6         5     1      115.455093      510.860105    ;  uncertainty theta = 0.004763, k = 0.175035
         2         6         7     1      124.914505      356.274086    ;  uncertainty theta = 0.005007, k = 0.082130
         3         2         6     1      104.651291      710.794859    ;  uncertainty theta = 0.005013, k = 0.271671
         3         2        28     1      107.091957      385.050770    ;  uncertainty theta = 0.005339, k = 0.207737
         3         4         5     1      103.984230      709.792974    ;  uncertainty theta = 0.005273, k = 0.355621
         3         4        29     1      107.225937      380.179726    ;  uncertainty theta = 0.002622, k = 0.088553
         3         4        30     1      107.225937      380.179726    ;  uncertainty theta = 0.002622, k = 0.088553
         4         3        24     1      111.588036      659.455501    ;  uncertainty theta = 0.002894, k = 0.086543
         4         3        25     1      111.588036      659.455501    ;  uncertainty theta = 0.002894, k = 0.086543
         4         5         6     1      115.201233      532.440112    ;  uncertainty theta = 0.004928, k = 0.068265
         4         5        10     1      125.815269      387.639722    ;  uncertainty theta = 0.005842, k = 0.178311
         5         4        29     1      110.513512      379.665472    ;  uncertainty theta = 0.002497, k = 0.111777
         5         4        30     1      110.513512      379.665472    ;  uncertainty theta = 0.002497, k = 0.111777
         5         6         7     1      121.493912      425.146489    ;  uncertainty theta = 0.007798, k = 0.251596
         5        10         9     1      120.286942      382.355807    ;  uncertainty theta = 0.004635, k = 0.209710
         5        10        11     1      117.968384      403.798647    ;  uncertainty theta = 0.007628, k = 0.373711
         6         2        28     1      109.785484      377.022158    ;  uncertainty theta = 0.005359, k = 0.200380
         6         5        10     1      119.395363      417.422503    ;  uncertainty theta = 0.002769, k = 0.143179
         6         7         8     1      122.570030      440.145104    ;  uncertainty theta = 0.006479, k = 0.149602
         6         7        20     1      117.441025      348.351134    ;  uncertainty theta = 0.010398, k = 0.430045
         7         8         9     1      121.417313      490.226759    ;  uncertainty theta = 0.005851, k = 0.071227
         7         8        31     1      118.876663      259.614723    ;  uncertainty theta = 0.002765, k = 0.161964
         7        20        21     1      113.786789      575.848665    ;  uncertainty theta = 0.005091, k = 0.223098
         7        20        22     1      113.786789      575.848665    ;  uncertainty theta = 0.005091, k = 0.223098
         7        20        23     1      104.186691      653.170244    ;  uncertainty theta = 0.006210, k = 0.198807
         8         7        20     1      117.093628      360.503479    ;  uncertainty theta = 0.012264, k = 0.058215
         8         9        10     1      119.960106      506.435514    ;  uncertainty theta = 0.001836, k = 0.049663
         8         9        32     1      120.227638      275.681970    ;  uncertainty theta = 0.001299, k = 0.038108
         9         8        31     1      120.411842      283.962090    ;  uncertainty theta = 0.002874, k = 0.061552
         9        10        11     1      120.702377      434.244755    ;  uncertainty theta = 0.002684, k = 0.227304
        10         9        32     1      120.210915      275.478248    ;  uncertainty theta = 0.002309, k = 0.085237
        10        11        12     1      112.830063      473.152648    ;  uncertainty theta = 0.002377, k = 0.139998
        11        12        13     1      119.162613      420.809235    ;  uncertainty theta = 0.003695, k = 0.065402
        11        12        19     1      119.162613      420.809235    ;  uncertainty theta = 0.003695, k = 0.065402
        12        13        14     1      116.673340      503.115370    ;  uncertainty theta = 0.002511, k = 0.145406
        12        13        33     1      121.876328      273.916270    ;  uncertainty theta = 0.002382, k = 0.081280
        12        19        17     1      116.673340      503.115434    ;  uncertainty theta = 0.002511, k = 0.145406
        12        19        35     1      121.876328      273.916302    ;  uncertainty theta = 0.002382, k = 0.081280
        13        12        19     1      122.797623      387.741647    ;  uncertainty theta = 0.004027, k = 0.167872
        13        14        15     1      118.466934      493.794836    ;  uncertainty theta = 0.001910, k = 0.039540
        13        14        16     1      124.053566      371.417528    ;  uncertainty theta = 0.005120, k = 0.173620
        14        13        33     1      121.727890      284.014346    ;  uncertainty theta = 0.001918, k = 0.032736
        14        16        17     1      115.264389      471.325404    ;  uncertainty theta = 0.002949, k = 0.194271
        14        16        34     1      122.279922      279.016095    ;  uncertainty theta = 0.002258, k = 0.062816
        15        14        16     1      118.556541      504.699182    ;  uncertainty theta = 0.002808, k = 0.033772
        16        17        18     1      118.556541      504.699182    ;  uncertainty theta = 0.002808, k = 0.033772
        16        17        19     1      124.053566      371.417497    ;  uncertainty theta = 0.005120, k = 0.173620
        17        16        34     1      122.279922      279.016095    ;  uncertainty theta = 0.002258, k = 0.062816
        17        19        35     1      121.727890      284.014346    ;  uncertainty theta = 0.001918, k = 0.032737
        18        17        19     1      118.466934      493.794804    ;  uncertainty theta = 0.001910, k = 0.039540
        20        23        26     1      110.162193      436.533965    ;  uncertainty theta = 0.002446, k = 0.123920
        20        23        36     1      110.291122      449.307755    ;  uncertainty theta = 0.006114, k = 0.088780
        21        20        22     1      124.174637      795.061510    ;  uncertainty theta = 0.003324, k = 0.045360
        21        20        23     1      113.572647      860.944635    ;  uncertainty theta = 0.005657, k = 0.151096
        22        20        23     1      113.572647      860.944635    ;  uncertainty theta = 0.005657, k = 0.151096
        23        26        37     1      108.236450      442.512298    ;  uncertainty theta = 0.000935, k = 0.059151
        23        26        38     1      108.236450      442.512298    ;  uncertainty theta = 0.000935, k = 0.059151
        23        26        39     1      108.236450      442.512298    ;  uncertainty theta = 0.000935, k = 0.059151
        24         3        25     1      107.133316      788.630883    ;  uncertainty theta = 0.004222, k = 0.140640
        26        23        36     1      110.080246      400.314619    ;  uncertainty theta = 0.002709, k = 0.135010
        29         4        30     1      105.669456      291.017259    ;  uncertainty theta = 0.002858, k = 0.056928
        37        26        38     1      107.286133      322.276214    ;  uncertainty theta = 0.000885, k = 0.055992
        37        26        39     1      107.286133      322.276214    ;  uncertainty theta = 0.000885, k = 0.055992
        38        26        39     1      107.286133      322.276214    ;  uncertainty theta = 0.000885, k = 0.055992

[ dihedrals ] ; propers for gromacs 4.5 or higher, use funct 9
;       ai        aj        ak        al funct           phase               k        pn
         1         2         3         4     9        0.000000       -2.627646         1    ;  uncertainty k = 0.983996
         1         2         3         4     9      180.000000        1.655303         2    ;  uncertainty k = 0.535648
         1         2         3         4     9        0.000000        1.030511         3    ;  uncertainty k = 0.317267
         1         2         3         4     9      180.000000        0.047511         4    ;  uncertainty k = 0.272384
         1         2         3        24     9        0.000000       -0.269207         1    ;  uncertainty k = 1.403673
         1         2         3        24     9      180.000000        0.304235         2    ;  uncertainty k = 0.719898
         1         2         3        24     9        0.000000        1.458628         3    ;  uncertainty k = 0.375591
         1         2         3        24     9      180.000000        0.088981         4    ;  uncertainty k = 0.256701
         1         2         3        25     9        0.000000       -0.269207         1    ;  uncertainty k = 1.403673
         1         2         3        25     9      180.000000        0.304235         2    ;  uncertainty k = 0.719898
         1         2         3        25     9        0.000000        1.458628         3    ;  uncertainty k = 0.375591
         1         2         3        25     9      180.000000        0.088981         4    ;  uncertainty k = 0.256701
         1         2         6         5     9        0.000000       -4.299267         1    ;  uncertainty k = 2.354664
         1         2         6         5     9      180.000000        4.941023         2    ;  uncertainty k = 1.204986
         1         2         6         5     9        0.000000        1.097260         3    ;  uncertainty k = 0.739425
         1         2         6         5     9      180.000000        0.602792         4    ;  uncertainty k = 0.228845
         1         2         6         7     9        0.000000       -1.126273         1    ;  uncertainty k = 1.225369
         1         2         6         7     9      180.000000        3.463210         2    ;  uncertainty k = 0.307010
         1         2         6         7     9        0.000000       -0.188730         3    ;  uncertainty k = 0.242469
         1         2         6         7     9      180.000000        0.493512         4    ;  uncertainty k = 0.163129
         2         3         4         5     9        0.000000       -0.339598         1    ;  uncertainty k = 1.881083
         2         3         4         5     9      180.000000        1.948003         2    ;  uncertainty k = 0.604235
         2         3         4         5     9        0.000000        0.001289         3    ;  uncertainty k = 0.524600
         2         3         4         5     9      180.000000       -0.168933         4    ;  uncertainty k = 0.381813
         2         3         4        29     9        0.000000       -0.266515         1    ;  uncertainty k = 0.277694
         2         3         4        29     9      180.000000       -0.223030         2    ;  uncertainty k = 0.652617
         2         3         4        29     9        0.000000        0.002221         3    ;  uncertainty k = 0.216427
         2         3         4        29     9      180.000000       -0.025185         4    ;  uncertainty k = 0.190586
         2         3         4        30     9        0.000000       -0.266515         1    ;  uncertainty k = 0.277694
         2         3         4        30     9      180.000000       -0.223030         2    ;  uncertainty k = 0.652617
         2         3         4        30     9        0.000000        0.002221         3    ;  uncertainty k = 0.216427
         2         3         4        30     9      180.000000       -0.025185         4    ;  uncertainty k = 0.190586
         2         6         5         4     9        0.000000        0.512534         1    ;  uncertainty k = 0.626025
         2         6         5         4     9      180.000000       11.954446         2    ;  uncertainty k = 0.618012
         2         6         5         4     9        0.000000       -0.467270         3    ;  uncertainty k = 0.920557
         2         6         5         4     9      180.000000        1.189491         4    ;  uncertainty k = 0.315341
         2         6         5        10     9        0.000000        0.550812         1    ;  uncertainty k = 0.492362
         2         6         5        10     9      180.000000        8.694778         2    ;  uncertainty k = 0.374461
         2         6         5        10     9        0.000000        0.704139         3    ;  uncertainty k = 0.270279
         2         6         5        10     9      180.000000        1.265993         4    ;  uncertainty k = 0.186165
         2         6         7         8     9        0.000000        0.330498         1    ;  uncertainty k = 0.607828
         2         6         7         8     9      180.000000        6.565332         2    ;  uncertainty k = 0.265678
         2         6         7         8     9        0.000000        1.282926         3    ;  uncertainty k = 0.279523
         2         6         7         8     9      180.000000        1.649358         4    ;  uncertainty k = 0.148404
         2         6         7        20     9        0.000000        0.057236         1    ;  uncertainty k = 0.948883
         2         6         7        20     9      180.000000        6.938694         2    ;  uncertainty k = 0.359794
         2         6         7        20     9        0.000000        1.141608         3    ;  uncertainty k = 0.168000
         2         6         7        20     9      180.000000        1.306596         4    ;  uncertainty k = 0.208678
         3         2         1        27     9        0.000000       13.899418         1    ;  uncertainty k = 0.480946
         3         2         1        27     9      180.000000       -4.518750         2    ;  uncertainty k = 0.286306
         3         2         1        27     9        0.000000        1.011957         3    ;  uncertainty k = 0.239984
         3         2         1        27     9      180.000000        0.090569         4    ;  uncertainty k = 0.079063
         3         2         6         5     9        0.000000       -0.499699         1    ;  uncertainty k = 2.003251
         3         2         6         5     9      180.000000        8.491023         2    ;  uncertainty k = 0.968830
         3         2         6         5     9        0.000000       -1.041145         3    ;  uncertainty k = 0.486533
         3         2         6         5     9      180.000000        0.868592         4    ;  uncertainty k = 0.263434
         3         2         6         7     9        0.000000       -1.719093         1    ;  uncertainty k = 1.734728
         3         2         6         7     9      180.000000        3.561815         2    ;  uncertainty k = 0.630415
         3         2         6         7     9        0.000000        0.175889         3    ;  uncertainty k = 0.346983
         3         2         6         7     9      180.000000        0.610320         4    ;  uncertainty k = 0.197613
         3         4         5         6     9        0.000000       -2.198642         1    ;  uncertainty k = 1.829959
         3         4         5         6     9      180.000000        9.600209         2    ;  uncertainty k = 0.527021
         3         4         5         6     9        0.000000       -1.800562         3    ;  uncertainty k = 0.390428
         3         4         5         6     9      180.000000        0.935053         4    ;  uncertainty k = 0.107407
         3         4         5        10     9        0.000000       -0.403139         1    ;  uncertainty k = 0.755686
         3         4         5        10     9      180.000000        2.382150         2    ;  uncertainty k = 0.537141
         3         4         5        10     9        0.000000        0.124312         3    ;  uncertainty k = 0.233877
         3         4         5        10     9      180.000000        0.634495         4    ;  uncertainty k = 0.118174
         4         3         2         6     9        0.000000       -0.195848         1    ;  uncertainty k = 1.836956
         4         3         2         6     9      180.000000        1.336133         2    ;  uncertainty k = 0.605761
         4         3         2         6     9        0.000000        0.092873         3    ;  uncertainty k = 0.269493
         4         3         2         6     9      180.000000       -0.067807         4    ;  uncertainty k = 0.299605
         4         3         2        28     9        0.000000       -0.813798         1    ;  uncertainty k = 0.616105
         4         3         2        28     9      180.000000        0.445885         2    ;  uncertainty k = 0.553315
         4         3         2        28     9        0.000000        0.140775         3    ;  uncertainty k = 0.274254
         4         3         2        28     9      180.000000       -0.112167         4    ;  uncertainty k = 0.222826
         4         5         6         7     9        0.000000        0.195353         1    ;  uncertainty k = 0.712038
         4         5         6         7     9      180.000000        8.801545         2    ;  uncertainty k = 0.488138
         4         5         6         7     9        0.000000        0.683615         3    ;  uncertainty k = 0.413536
         4         5         6         7     9      180.000000        1.170329         4    ;  uncertainty k = 0.207132
         4         5        10         9     9        0.000000        0.519227         1    ;  uncertainty k = 0.339007
         4         5        10         9     9      180.000000        6.371380         2    ;  uncertainty k = 0.300120
         4         5        10         9     9        0.000000        1.309943         3    ;  uncertainty k = 0.271046
         4         5        10         9     9      180.000000        1.610695         4    ;  uncertainty k = 0.315993
         4         5        10        11     9        0.000000       -0.256270         1    ;  uncertainty k = 0.641127
         4         5        10        11     9      180.000000        8.887746         2    ;  uncertainty k = 0.270705
         4         5        10        11     9        0.000000        1.040819         3    ;  uncertainty k = 0.235548
         4         5        10        11     9      180.000000        1.264853         4    ;  uncertainty k = 0.164867
         5         4         3        24     9        0.000000       -0.911078         1    ;  uncertainty k = 0.917515
         5         4         3        24     9      180.000000        0.752361         2    ;  uncertainty k = 0.486248
         5         4         3        24     9        0.000000        1.122840         3    ;  uncertainty k = 0.305845
         5         4         3        24     9      180.000000        0.249147         4    ;  uncertainty k = 0.039650
         5         4         3        25     9        0.000000       -0.911078         1    ;  uncertainty k = 0.917515
         5         4         3        25     9      180.000000        0.752361         2    ;  uncertainty k = 0.486248
         5         4         3        25     9        0.000000        1.122840         3    ;  uncertainty k = 0.305845
         5         4         3        25     9      180.000000        0.249147         4    ;  uncertainty k = 0.039650
         5         6         2        28     9        0.000000       -0.881608         1    ;  uncertainty k = 0.703105
         5         6         2        28     9      180.000000        3.156279         2    ;  uncertainty k = 0.740344
         5         6         2        28     9        0.000000        0.795878         3    ;  uncertainty k = 0.165211
         5         6         2        28     9      180.000000        0.231904         4    ;  uncertainty k = 0.129127
         5         6         7         8     9        0.000000       -0.336333         1    ;  uncertainty k = 0.499966
         5         6         7         8     9      180.000000        9.970085         2    ;  uncertainty k = 0.404300
         5         6         7         8     9        0.000000       -0.575932         3    ;  uncertainty k = 0.464172
         5         6         7         8     9      180.000000        0.937218         4    ;  uncertainty k = 0.235029
         5         6         7        20     9        0.000000        0.400247         1    ;  uncertainty k = 0.745239
         5         6         7        20     9      180.000000        8.078282         2    ;  uncertainty k = 0.675584
         5         6         7        20     9        0.000000        1.403224         3    ;  uncertainty k = 0.458755
         5         6         7        20     9      180.000000        1.615395         4    ;  uncertainty k = 0.215317
         5        10         9         8     9        0.000000        0.325076         1    ;  uncertainty k = 0.253692
         5        10         9         8     9      180.000000        9.129364         2    ;  uncertainty k = 0.379838
         5        10         9         8     9        0.000000        0.225122         3    ;  uncertainty k = 0.447235
         5        10         9         8     9      180.000000        1.292054         4    ;  uncertainty k = 0.327934
         5        10         9        32     9        0.000000        0.163593         1    ;  uncertainty k = 0.321307
         5        10         9        32     9      180.000000        6.812893         2    ;  uncertainty k = 0.514561
         5        10         9        32     9        0.000000        1.359595         3    ;  uncertainty k = 0.499613
         5        10         9        32     9      180.000000        1.598205         4    ;  uncertainty k = 0.111732
         5        10        11        12     9        0.000000        4.495223         1    ;  uncertainty k = 0.771410
         5        10        11        12     9      180.000000        5.021101         2    ;  uncertainty k = 0.392890
         5        10        11        12     9        0.000000        0.757612         3    ;  uncertainty k = 0.066439
         5        10        11        12     9      180.000000        0.128923         4    ;  uncertainty k = 0.086641
         6         2         1        27     9        0.000000       14.581735         1    ;  uncertainty k = 0.328688
         6         2         1        27     9      180.000000       -3.719463         2    ;  uncertainty k = 0.551293
         6         2         1        27     9        0.000000        1.040414         3    ;  uncertainty k = 0.183452
         6         2         1        27     9      180.000000        0.068405         4    ;  uncertainty k = 0.056381
         6         2         3        24     9        0.000000        0.083254         1    ;  uncertainty k = 0.901879
         6         2         3        24     9      180.000000        0.575346         2    ;  uncertainty k = 0.977518
         6         2         3        24     9        0.000000        0.941587         3    ;  uncertainty k = 0.165749
         6         2         3        24     9      180.000000        0.250057         4    ;  uncertainty k = 0.052596
         6         2         3        25     9        0.000000        0.083254         1    ;  uncertainty k = 0.901879
         6         2         3        25     9      180.000000        0.575346         2    ;  uncertainty k = 0.977518
         6         2         3        25     9        0.000000        0.941587         3    ;  uncertainty k = 0.165749
         6         2         3        25     9      180.000000        0.250057         4    ;  uncertainty k = 0.052596
         6         5         4        29     9        0.000000       -0.229668         1    ;  uncertainty k = 0.337021
         6         5         4        29     9      180.000000        1.737023         2    ;  uncertainty k = 0.359441
         6         5         4        29     9        0.000000        0.277450         3    ;  uncertainty k = 0.122674
         6         5         4        29     9      180.000000        0.234267         4    ;  uncertainty k = 0.091983
         6         5         4        30     9        0.000000       -0.229668         1    ;  uncertainty k = 0.337021
         6         5         4        30     9      180.000000        1.737023         2    ;  uncertainty k = 0.359441
         6         5         4        30     9        0.000000        0.277450         3    ;  uncertainty k = 0.122674
         6         5         4        30     9      180.000000        0.234267         4    ;  uncertainty k = 0.091983
         6         5        10         9     9        0.000000       -0.193299         1    ;  uncertainty k = 0.203480
         6         5        10         9     9      180.000000        8.308810         2    ;  uncertainty k = 0.541648
         6         5        10         9     9        0.000000       -0.465942         3    ;  uncertainty k = 0.458354
         6         5        10         9     9      180.000000        1.057211         4    ;  uncertainty k = 0.296716
         6         5        10        11     9        0.000000        0.016739         1    ;  uncertainty k = 0.256444
         6         5        10        11     9      180.000000        9.710899         2    ;  uncertainty k = 0.299584
         6         5        10        11     9        0.000000        1.395708         3    ;  uncertainty k = 0.277548
         6         5        10        11     9      180.000000        1.516528         4    ;  uncertainty k = 0.167744
         6         7         8         9     9        0.000000       -0.205715         1    ;  uncertainty k = 0.480375
         6         7         8         9     9      180.000000       10.177927         2    ;  uncertainty k = 0.500904
         6         7         8         9     9        0.000000       -0.270794         3    ;  uncertainty k = 0.407048
         6         7         8         9     9      180.000000        1.080223         4    ;  uncertainty k = 0.328431
         6         7         8        31     9        0.000000        0.032756         1    ;  uncertainty k = 0.390351
         6         7         8        31     9      180.000000        7.368219         2    ;  uncertainty k = 0.659357
         6         7         8        31     9        0.000000        1.238358         3    ;  uncertainty k = 0.430848
         6         7         8        31     9      180.000000        1.628314         4    ;  uncertainty k = 0.127477
         6         7        20        21     9        0.000000       -1.073603         1    ;  uncertainty k = 0.650163
         6         7        20        21     9      180.000000        1.333008         2    ;  uncertainty k = 0.356597
         6         7        20        21     9        0.000000        0.693972         3    ;  uncertainty k = 0.105624
         6         7        20        21     9      180.000000        0.032264         4    ;  uncertainty k = 0.128009
         6         7        20        22     9        0.000000       -1.073603         1    ;  uncertainty k = 0.650163
         6         7        20        22     9      180.000000        1.333008         2    ;  uncertainty k = 0.356597
         6         7        20        22     9        0.000000        0.693972         3    ;  uncertainty k = 0.105624
         6         7        20        22     9      180.000000        0.032264         4    ;  uncertainty k = 0.128009
         6         7        20        23     9        0.000000        0.742344         1    ;  uncertainty k = 1.282267
         6         7        20        23     9      180.000000        0.999295         2    ;  uncertainty k = 0.428466
         6         7        20        23     9        0.000000        0.867419         3    ;  uncertainty k = 0.444449
         6         7        20        23     9      180.000000        0.281387         4    ;  uncertainty k = 0.179632
         7         6         2        28     9        0.000000        1.385952         1    ;  uncertainty k = 0.919603
         7         6         2        28     9      180.000000        2.204509         2    ;  uncertainty k = 0.768955
         7         6         2        28     9        0.000000       -0.122220         3    ;  uncertainty k = 0.070922
         7         6         2        28     9      180.000000        0.194689         4    ;  uncertainty k = 0.167458
         7         6         5        10     9        0.000000       -0.068531         1    ;  uncertainty k = 0.460434
         7         6         5        10     9      180.000000        8.490235         2    ;  uncertainty k = 0.332420
         7         6         5        10     9        0.000000        0.109632         3    ;  uncertainty k = 0.195372
         7         6         5        10     9      180.000000        1.095319         4    ;  uncertainty k = 0.285276
         7         8         9        10     9        0.000000        0.066139         1    ;  uncertainty k = 0.304689
         7         8         9        10     9      180.000000       11.975602         2    ;  uncertainty k = 0.273807
         7         8         9        10     9        0.000000       -0.883099         3    ;  uncertainty k = 0.577588
         7         8         9        10     9      180.000000        0.921417         4    ;  uncertainty k = 0.312791
         7         8         9        32     9        0.000000       -0.028937         1    ;  uncertainty k = 0.519836
         7         8         9        32     9      180.000000        8.227791         2    ;  uncertainty k = 0.214402
         7         8         9        32     9        0.000000        1.191294         3    ;  uncertainty k = 0.164687
         7         8         9        32     9      180.000000        1.654266         4    ;  uncertainty k = 0.123079
         7        20        23        26     9        0.000000       -4.936641         1    ;  uncertainty k = 1.009141
         7        20        23        26     9      180.000000       -4.897357         2    ;  uncertainty k = 0.817091
         7        20        23        26     9        0.000000        2.580015         3    ;  uncertainty k = 0.667346
         7        20        23        26     9      180.000000        0.454498         4    ;  uncertainty k = 0.284776
         7        20        23        36     9        0.000000        0.557961         1    ;  uncertainty k = 1.286364
         7        20        23        36     9      180.000000       -5.880606         2    ;  uncertainty k = 1.133806
         7        20        23        36     9        0.000000       -0.574359         3    ;  uncertainty k = 0.345792
         7        20        23        36     9      180.000000        0.071524         4    ;  uncertainty k = 0.221126
         8         7        20        21     9        0.000000       -0.599775         1    ;  uncertainty k = 0.506454
         8         7        20        21     9      180.000000        1.585173         2    ;  uncertainty k = 0.629051
         8         7        20        21     9        0.000000        0.460353         3    ;  uncertainty k = 0.238259
         8         7        20        21     9      180.000000       -0.030207         4    ;  uncertainty k = 0.103906
         8         7        20        22     9        0.000000       -0.599775         1    ;  uncertainty k = 0.506454
         8         7        20        22     9      180.000000        1.585173         2    ;  uncertainty k = 0.629051
         8         7        20        22     9        0.000000        0.460353         3    ;  uncertainty k = 0.238259
         8         7        20        22     9      180.000000       -0.030207         4    ;  uncertainty k = 0.103906
         8         7        20        23     9        0.000000        1.502600         1    ;  uncertainty k = 0.476186
         8         7        20        23     9      180.000000        1.292559         2    ;  uncertainty k = 0.436140
         8         7        20        23     9        0.000000        0.334209         3    ;  uncertainty k = 0.255820
         8         7        20        23     9      180.000000        0.153196         4    ;  uncertainty k = 0.153293
         8         9        10        11     9        0.000000       -0.011159         1    ;  uncertainty k = 0.268545
         8         9        10        11     9      180.000000       10.920508         2    ;  uncertainty k = 0.395983
         8         9        10        11     9        0.000000        1.454327         3    ;  uncertainty k = 0.261081
         8         9        10        11     9      180.000000        1.748627         4    ;  uncertainty k = 0.205548
         9         8         7        20     9        0.000000        0.296906         1    ;  uncertainty k = 0.222044
         9         8         7        20     9      180.000000        9.469601         2    ;  uncertainty k = 0.451550
         9         8         7        20     9        0.000000        1.387856         3    ;  uncertainty k = 0.407011
         9         8         7        20     9      180.000000        1.733701         4    ;  uncertainty k = 0.177973
         9        10        11        12     9        0.000000        5.263799         1    ;  uncertainty k = 0.304243
         9        10        11        12     9      180.000000        5.740981         2    ;  uncertainty k = 0.204085
         9        10        11        12     9        0.000000        0.387969         3    ;  uncertainty k = 0.213678
         9        10        11        12     9      180.000000        0.179367         4    ;  uncertainty k = 0.081297
        10         5         4        29     9        0.000000        0.671745         1    ;  uncertainty k = 0.182100
        10         5         4        29     9      180.000000        1.635978         2    ;  uncertainty k = 0.610115
        10         5         4        29     9        0.000000        0.148338         3    ;  uncertainty k = 0.254441
        10         5         4        29     9      180.000000        0.227750         4    ;  uncertainty k = 0.142932
        10         5         4        30     9        0.000000        0.671745         1    ;  uncertainty k = 0.182100
        10         5         4        30     9      180.000000        1.635978         2    ;  uncertainty k = 0.610115
        10         5         4        30     9        0.000000        0.148338         3    ;  uncertainty k = 0.254441
        10         5         4        30     9      180.000000        0.227750         4    ;  uncertainty k = 0.142932
        10         9         8        31     9        0.000000       -0.107889         1    ;  uncertainty k = 0.336425
        10         9         8        31     9      180.000000        7.780677         2    ;  uncertainty k = 0.139976
        10         9         8        31     9        0.000000        1.037225         3    ;  uncertainty k = 0.196086
        10         9         8        31     9      180.000000        1.698738         4    ;  uncertainty k = 0.058856
        10        11        12        13     9        0.000000        4.383487         1    ;  uncertainty k = 0.361648
        10        11        12        13     9      180.000000        5.533793         2    ;  uncertainty k = 0.200911
        10        11        12        13     9        0.000000        0.501717         3    ;  uncertainty k = 0.165450
        10        11        12        13     9      180.000000        0.147723         4    ;  uncertainty k = 0.061693
        10        11        12        19     9        0.000000        4.383488         1    ;  uncertainty k = 0.361647
        10        11        12        19     9      180.000000        5.533793         2    ;  uncertainty k = 0.200911
        10        11        12        19     9        0.000000        0.501717         3    ;  uncertainty k = 0.165450
        10        11        12        19     9      180.000000        0.147723         4    ;  uncertainty k = 0.061693
        11        10         9        32     9        0.000000       -0.042866         1    ;  uncertainty k = 0.149865
        11        10         9        32     9      180.000000        9.026456         2    ;  uncertainty k = 0.347908
        11        10         9        32     9        0.000000        0.844988         3    ;  uncertainty k = 0.233280
        11        10         9        32     9      180.000000        1.132687         4    ;  uncertainty k = 0.137115
        11        12        13        14     9        0.000000        0.072052         1    ;  uncertainty k = 0.150060
        11        12        13        14     9      180.000000       10.619269         2    ;  uncertainty k = 0.305035
        11        12        13        14     9        0.000000        1.304108         3    ;  uncertainty k = 0.154314
        11        12        13        14     9      180.000000        1.616795         4    ;  uncertainty k = 0.132282
        11        12        13        33     9        0.000000       -0.070575         1    ;  uncertainty k = 0.071484
        11        12        13        33     9      180.000000        8.196714         2    ;  uncertainty k = 0.278176
        11        12        13        33     9        0.000000        0.858407         3    ;  uncertainty k = 0.256561
        11        12        13        33     9      180.000000        1.107411         4    ;  uncertainty k = 0.104777
        11        12        19        17     9        0.000000        0.072051         1    ;  uncertainty k = 0.150060
        11        12        19        17     9      180.000000       10.619270         2    ;  uncertainty k = 0.305036
        11        12        19        17     9        0.000000        1.304107         3    ;  uncertainty k = 0.154315
        11        12        19        17     9      180.000000        1.616795         4    ;  uncertainty k = 0.132282
        11        12        19        35     9        0.000000       -0.070575         1    ;  uncertainty k = 0.071485
        11        12        19        35     9      180.000000        8.196715         2    ;  uncertainty k = 0.278176
        11        12        19        35     9        0.000000        0.858407         3    ;  uncertainty k = 0.256560
        11        12        19        35     9      180.000000        1.107412         4    ;  uncertainty k = 0.104777
        12        13        14        15     9        0.000000        0.021310         1    ;  uncertainty k = 0.082079
        12        13        14        15     9      180.000000       12.621670         2    ;  uncertainty k = 0.597171
        12        13        14        15     9        0.000000        1.514721         3    ;  uncertainty k = 0.352433
        12        13        14        15     9      180.000000        1.493583         4    ;  uncertainty k = 0.264785
        12        13        14        16     9        0.000000       -0.068499         1    ;  uncertainty k = 0.229741
        12        13        14        16     9      180.000000        9.347409         2    ;  uncertainty k = 0.435040
        12        13        14        16     9        0.000000       -0.034722         3    ;  uncertainty k = 0.546730
        12        13        14        16     9      180.000000        1.309149         4    ;  uncertainty k = 0.251917
        12        19        17        16     9        0.000000       -0.068498         1    ;  uncertainty k = 0.229742
        12        19        17        16     9      180.000000        9.347410         2    ;  uncertainty k = 0.435040
        12        19        17        16     9        0.000000       -0.034722         3    ;  uncertainty k = 0.546729
        12        19        17        16     9      180.000000        1.309149         4    ;  uncertainty k = 0.251918
        12        19        17        18     9        0.000000        0.021309         1    ;  uncertainty k = 0.082078
        12        19        17        18     9      180.000000       12.621674         2    ;  uncertainty k = 0.597170
        12        19        17        18     9        0.000000        1.514721         3    ;  uncertainty k = 0.352433
        12        19        17        18     9      180.000000        1.493583         4    ;  uncertainty k = 0.264786
        13        12        19        17     9        0.000000       -0.024646         1    ;  uncertainty k = 0.133982
        13        12        19        17     9      180.000000        9.575445         2    ;  uncertainty k = 0.511833
        13        12        19        17     9        0.000000       -0.133339         3    ;  uncertainty k = 0.552962
        13        12        19        17     9      180.000000        1.231268         4    ;  uncertainty k = 0.293001
        13        12        19        35     9        0.000000        0.187463         1    ;  uncertainty k = 0.312467
        13        12        19        35     9      180.000000        6.012782         2    ;  uncertainty k = 0.790760
        13        12        19        35     9        0.000000        1.452632         3    ;  uncertainty k = 0.400769
        13        12        19        35     9      180.000000        1.585435         4    ;  uncertainty k = 0.171144
        13        14        16        17     9        0.000000        0.012644         1    ;  uncertainty k = 0.186478
        13        14        16        17     9      180.000000        9.254012         2    ;  uncertainty k = 0.455270
        13        14        16        17     9        0.000000       -0.196366         3    ;  uncertainty k = 0.525204
        13        14        16        17     9      180.000000        1.256392         4    ;  uncertainty k = 0.239378
        13        14        16        34     9        0.000000        0.007887         1    ;  uncertainty k = 0.273454
        13        14        16        34     9      180.000000        5.748778         2    ;  uncertainty k = 0.734862
        13        14        16        34     9        0.000000        1.320563         3    ;  uncertainty k = 0.345125
        13        14        16        34     9      180.000000        1.469363         4    ;  uncertainty k = 0.139893
        14        13        12        19     9        0.000000       -0.024648         1    ;  uncertainty k = 0.133983
        14        13        12        19     9      180.000000        9.575444         2    ;  uncertainty k = 0.511834
        14        13        12        19     9        0.000000       -0.133340         3    ;  uncertainty k = 0.552963
        14        13        12        19     9      180.000000        1.231268         4    ;  uncertainty k = 0.293001
        14        16        17        18     9        0.000000       -0.084080         1    ;  uncertainty k = 0.246580
        14        16        17        18     9      180.000000       12.571784         2    ;  uncertainty k = 0.622502
        14        16        17        18     9        0.000000        1.580271         3    ;  uncertainty k = 0.300212
        14        16        17        18     9      180.000000        1.496894         4    ;  uncertainty k = 0.275368
        14        16        17        19     9        0.000000        0.012644         1    ;  uncertainty k = 0.186477
        14        16        17        19     9      180.000000        9.254014         2    ;  uncertainty k = 0.455269
        14        16        17        19     9        0.000000       -0.196365         3    ;  uncertainty k = 0.525204
        14        16        17        19     9      180.000000        1.256392         4    ;  uncertainty k = 0.239378
        15        14        13        33     9        0.000000       -0.292576         1    ;  uncertainty k = 0.229076
        15        14        13        33     9      180.000000        8.728901         2    ;  uncertainty k = 0.342947
        15        14        13        33     9        0.000000        0.836645         3    ;  uncertainty k = 0.291580
        15        14        13        33     9      180.000000        1.027813         4    ;  uncertainty k = 0.201885
        15        14        16        17     9        0.000000       -0.084081         1    ;  uncertainty k = 0.246579
        15        14        16        17     9      180.000000       12.571783         2    ;  uncertainty k = 0.622503
        15        14        16        17     9        0.000000        1.580271         3    ;  uncertainty k = 0.300211
        15        14        16        17     9      180.000000        1.496893         4    ;  uncertainty k = 0.275368
        15        14        16        34     9        0.000000       -0.235152         1    ;  uncertainty k = 0.270124
        15        14        16        34     9      180.000000        8.558982         2    ;  uncertainty k = 0.295736
        15        14        16        34     9        0.000000        0.809460         3    ;  uncertainty k = 0.314206
        15        14        16        34     9      180.000000        0.978765         4    ;  uncertainty k = 0.218612
        16        14        13        33     9        0.000000        0.084601         1    ;  uncertainty k = 0.213740
        16        14        13        33     9      180.000000        5.883624         2    ;  uncertainty k = 0.684423
        16        14        13        33     9        0.000000        1.370202         3    ;  uncertainty k = 0.375339
        16        14        13        33     9      180.000000        1.558143         4    ;  uncertainty k = 0.172439
        16        17        19        35     9        0.000000        0.084600         1    ;  uncertainty k = 0.213740
        16        17        19        35     9      180.000000        5.883621         2    ;  uncertainty k = 0.684423
        16        17        19        35     9        0.000000        1.370202         3    ;  uncertainty k = 0.375339
        16        17        19        35     9      180.000000        1.558143         4    ;  uncertainty k = 0.172438
        18        17        16        34     9        0.000000       -0.235150         1    ;  uncertainty k = 0.270124
        18        17        16        34     9      180.000000        8.558983         2    ;  uncertainty k = 0.295736
        18        17        16        34     9        0.000000        0.809459         3    ;  uncertainty k = 0.314206
        18        17        16        34     9      180.000000        0.978765         4    ;  uncertainty k = 0.218612
        18        17        19        35     9        0.000000       -0.292575         1    ;  uncertainty k = 0.229076
        18        17        19        35     9      180.000000        8.728902         2    ;  uncertainty k = 0.342947
        18        17        19        35     9        0.000000        0.836645         3    ;  uncertainty k = 0.291581
        18        17        19        35     9      180.000000        1.027813         4    ;  uncertainty k = 0.201886
        19        12        13        33     9        0.000000        0.187463         1    ;  uncertainty k = 0.312469
        19        12        13        33     9      180.000000        6.012783         2    ;  uncertainty k = 0.790761
        19        12        13        33     9        0.000000        1.452632         3    ;  uncertainty k = 0.400769
        19        12        13        33     9      180.000000        1.585435         4    ;  uncertainty k = 0.171144
        19        17        16        34     9        0.000000        0.007885         1    ;  uncertainty k = 0.273453
        19        17        16        34     9      180.000000        5.748779         2    ;  uncertainty k = 0.734862
        19        17        16        34     9        0.000000        1.320562         3    ;  uncertainty k = 0.345124
        19        17        16        34     9      180.000000        1.469364         4    ;  uncertainty k = 0.139894
        20         7         8        31     9        0.000000       -0.298787         1    ;  uncertainty k = 0.418447
        20         7         8        31     9      180.000000        6.890616         2    ;  uncertainty k = 0.117447
        20         7         8        31     9        0.000000        0.808966         3    ;  uncertainty k = 0.194418
        20         7         8        31     9      180.000000        1.147918         4    ;  uncertainty k = 0.124455
        20        23        26        37     9        0.000000       -1.173455         1    ;  uncertainty k = 1.084402
        20        23        26        37     9      180.000000       -5.135608         2    ;  uncertainty k = 0.866861
        20        23        26        37     9        0.000000       -0.782590         3    ;  uncertainty k = 0.197405
        20        23        26        37     9      180.000000        0.156253         4    ;  uncertainty k = 0.198272
        20        23        26        38     9        0.000000       -1.173455         1    ;  uncertainty k = 1.084402
        20        23        26        38     9      180.000000       -5.135608         2    ;  uncertainty k = 0.866861
        20        23        26        38     9        0.000000       -0.782590         3    ;  uncertainty k = 0.197405
        20        23        26        38     9      180.000000        0.156253         4    ;  uncertainty k = 0.198272
        20        23        26        39     9        0.000000       -1.173455         1    ;  uncertainty k = 1.084402
        20        23        26        39     9      180.000000       -5.135608         2    ;  uncertainty k = 0.866861
        20        23        26        39     9        0.000000       -0.782590         3    ;  uncertainty k = 0.197405
        20        23        26        39     9      180.000000        0.156253         4    ;  uncertainty k = 0.198272
        21        20        23        26     9        0.000000        1.892512         1    ;  uncertainty k = 1.262370
        21        20        23        26     9      180.000000        3.623180         2    ;  uncertainty k = 0.729496
        21        20        23        26     9        0.000000        1.471167         3    ;  uncertainty k = 0.284404
        21        20        23        26     9      180.000000       -0.438739         4    ;  uncertainty k = 0.307571
        21        20        23        36     9        0.000000        7.742561         1    ;  uncertainty k = 0.542432
        21        20        23        36     9      180.000000        0.817032         2    ;  uncertainty k = 0.601843
        21        20        23        36     9        0.000000       -0.341365         3    ;  uncertainty k = 0.236569
        21        20        23        36     9      180.000000       -0.065473         4    ;  uncertainty k = 0.229105
        22        20        23        26     9        0.000000        1.892512         1    ;  uncertainty k = 1.262370
        22        20        23        26     9      180.000000        3.623180         2    ;  uncertainty k = 0.729496
        22        20        23        26     9        0.000000        1.471167         3    ;  uncertainty k = 0.284404
        22        20        23        26     9      180.000000       -0.438739         4    ;  uncertainty k = 0.307571
        22        20        23        36     9        0.000000        7.742561         1    ;  uncertainty k = 0.542432
        22        20        23        36     9      180.000000        0.817032         2    ;  uncertainty k = 0.601843
        22        20        23        36     9        0.000000       -0.341365         3    ;  uncertainty k = 0.236569
        22        20        23        36     9      180.000000       -0.065473         4    ;  uncertainty k = 0.229105
        24         3         2        28     9        0.000000        0.285295         1    ;  uncertainty k = 0.312518
        24         3         2        28     9      180.000000       -0.571825         2    ;  uncertainty k = 0.320476
        24         3         2        28     9        0.000000        0.725217         3    ;  uncertainty k = 0.185310
        24         3         2        28     9      180.000000        0.076517         4    ;  uncertainty k = 0.139185
        24         3         4        29     9        0.000000        0.273366         1    ;  uncertainty k = 0.288472
        24         3         4        29     9      180.000000       -0.700450         2    ;  uncertainty k = 0.314491
        24         3         4        29     9        0.000000        0.866669         3    ;  uncertainty k = 0.217754
        24         3         4        29     9      180.000000        0.036836         4    ;  uncertainty k = 0.054095
        24         3         4        30     9        0.000000        0.273366         1    ;  uncertainty k = 0.288472
        24         3         4        30     9      180.000000       -0.700450         2    ;  uncertainty k = 0.314491
        24         3         4        30     9        0.000000        0.866669         3    ;  uncertainty k = 0.217754
        24         3         4        30     9      180.000000        0.036836         4    ;  uncertainty k = 0.054095
        25         3         2        28     9        0.000000        0.285295         1    ;  uncertainty k = 0.312518
        25         3         2        28     9      180.000000       -0.571825         2    ;  uncertainty k = 0.320476
        25         3         2        28     9        0.000000        0.725217         3    ;  uncertainty k = 0.185310
        25         3         2        28     9      180.000000        0.076517         4    ;  uncertainty k = 0.139185
        25         3         4        29     9        0.000000        0.273366         1    ;  uncertainty k = 0.288472
        25         3         4        29     9      180.000000       -0.700450         2    ;  uncertainty k = 0.314491
        25         3         4        29     9        0.000000        0.866669         3    ;  uncertainty k = 0.217754
        25         3         4        29     9      180.000000        0.036836         4    ;  uncertainty k = 0.054095
        25         3         4        30     9        0.000000        0.273366         1    ;  uncertainty k = 0.288472
        25         3         4        30     9      180.000000       -0.700450         2    ;  uncertainty k = 0.314491
        25         3         4        30     9        0.000000        0.866669         3    ;  uncertainty k = 0.217754
        25         3         4        30     9      180.000000        0.036836         4    ;  uncertainty k = 0.054095
        27         1         2        28     9        0.000000       11.884370         1    ;  uncertainty k = 0.695044
        27         1         2        28     9      180.000000       -0.803357         2    ;  uncertainty k = 0.319713
        27         1         2        28     9        0.000000        0.795568         3    ;  uncertainty k = 0.210217
        27         1         2        28     9      180.000000        0.187424         4    ;  uncertainty k = 0.128652
        31         8         9        32     9        0.000000       -0.236589         1    ;  uncertainty k = 0.475764
        31         8         9        32     9      180.000000        7.325131         2    ;  uncertainty k = 0.421253
        31         8         9        32     9        0.000000       -0.311948         3    ;  uncertainty k = 0.292859
        31         8         9        32     9      180.000000        0.288288         4    ;  uncertainty k = 0.098490
        36        23        26        37     9        0.000000        2.715908         1    ;  uncertainty k = 0.904677
        36        23        26        37     9      180.000000       -3.829325         2    ;  uncertainty k = 0.590576
        36        23        26        37     9        0.000000        0.980192         3    ;  uncertainty k = 0.198228
        36        23        26        37     9      180.000000        0.280107         4    ;  uncertainty k = 0.112497
        36        23        26        38     9        0.000000        2.715908         1    ;  uncertainty k = 0.904677
        36        23        26        38     9      180.000000       -3.829325         2    ;  uncertainty k = 0.590576
        36        23        26        38     9        0.000000        0.980192         3    ;  uncertainty k = 0.198228
        36        23        26        38     9      180.000000        0.280107         4    ;  uncertainty k = 0.112497
        36        23        26        39     9        0.000000        2.715908         1    ;  uncertainty k = 0.904677
        36        23        26        39     9      180.000000       -3.829325         2    ;  uncertainty k = 0.590576
        36        23        26        39     9        0.000000        0.980192         3    ;  uncertainty k = 0.198228
        36        23        26        39     9      180.000000        0.280107         4    ;  uncertainty k = 0.112497

[ dihedrals ] ; impropers
;       ai        aj        ak        al funct           phase               k        pn
         5         4         6        10     4      180.000000        5.343711         2    ;  uncertainty k = 0.269810
         5         6        10         4     4      180.000000        5.343711         2    ;  uncertainty k = 0.269810
         5        10         4         6     4      180.000000        5.343711         2    ;  uncertainty k = 0.269810
         6         2         5         7     4      180.000000        5.780740         2    ;  uncertainty k = 0.142699
         6         5         7         2     4      180.000000        5.780740         2    ;  uncertainty k = 0.142699
         6         7         2         5     4      180.000000        5.780740         2    ;  uncertainty k = 0.142699
         7         6         8        20     4      180.000000        4.545567         2    ;  uncertainty k = 0.427666
         7         8        20         6     4      180.000000        4.545567         2    ;  uncertainty k = 0.427666
         7        20         6         8     4      180.000000        4.545567         2    ;  uncertainty k = 0.427666
         8         7         9        31     4      180.000000        5.061817         2    ;  uncertainty k = 0.192185
         8         9        31         7     4      180.000000        5.061817         2    ;  uncertainty k = 0.192185
         8        31         7         9     4      180.000000        5.061817         2    ;  uncertainty k = 0.192185
         9         8        10        32     4      180.000000        2.193500         2    ;  uncertainty k = 0.131375
         9        10        32         8     4      180.000000        2.193500         2    ;  uncertainty k = 0.131375
         9        32         8        10     4      180.000000        2.193500         2    ;  uncertainty k = 0.131375
        10         5         9        11     4      180.000000       17.493266         2    ;  uncertainty k = 0.102298
        10         9        11         5     4      180.000000       17.493266         2    ;  uncertainty k = 0.102298
        10        11         5         9     4      180.000000       17.493266         2    ;  uncertainty k = 0.102298
        12        11        13        19     4      180.000000       19.463601         2    ;  uncertainty k = 0.034027
        12        13        19        11     4      180.000000       19.463601         2    ;  uncertainty k = 0.034027
        12        19        11        13     4      180.000000       19.463601         2    ;  uncertainty k = 0.034027
        13        12        14        33     4      180.000000        1.406376         2    ;  uncertainty k = 0.424044
        13        14        33        12     4      180.000000        1.406376         2    ;  uncertainty k = 0.424044
        13        33        12        14     4      180.000000        1.406376         2    ;  uncertainty k = 0.424044
        14        13        15        16     4      180.000000       18.559984         2    ;  uncertainty k = 0.051312
        14        15        16        13     4      180.000000       18.559984         2    ;  uncertainty k = 0.051312
        14        16        13        15     4      180.000000       18.559984         2    ;  uncertainty k = 0.051312
        16        14        17        34     4      180.000000        1.388756         2    ;  uncertainty k = 0.630805
        16        17        34        14     4      180.000000        1.388756         2    ;  uncertainty k = 0.630805
        16        34        14        17     4      180.000000        1.388756         2    ;  uncertainty k = 0.630805
        17        16        18        19     4      180.000000       18.559980         2    ;  uncertainty k = 0.051312
        17        18        19        16     4      180.000000       18.559980         2    ;  uncertainty k = 0.051312
        17        19        16        18     4      180.000000       18.559980         2    ;  uncertainty k = 0.051312
        19        12        17        35     4      180.000000        1.406376         2    ;  uncertainty k = 0.424044
        19        17        35        12     4      180.000000        1.406376         2    ;  uncertainty k = 0.424044
        19        35        12        17     4      180.000000        1.406376         2    ;  uncertainty k = 0.424044

[ pairs ]
;       ai        aj funct
         1         4     1
         1         5     1
         1         7     1
         1        24     1
         1        25     1
         2         8     1
         2        10     1
         2        20     1
         2        29     1
         2        30     1
         3         7     1
         3        10     1
         3        27     1
         4         7     1
         4         9     1
         4        11     1
         4        28     1
         5         8     1
         5        12     1
         5        20     1
         5        24     1
         5        25     1
         5        28     1
         5        32     1
         6         9     1
         6        11     1
         6        21     1
         6        22     1
         6        23     1
         6        24     1
         6        25     1
         6        27     1
         6        29     1
         6        30     1
         6        31     1
         7        10     1
         7        26     1
         7        28     1
         7        32     1
         7        36     1
         8        11     1
         8        21     1
         8        22     1
         8        23     1
         9        12     1
         9        20     1
        10        13     1
        10        19     1
        10        29     1
        10        30     1
        10        31     1
        11        14     1
        11        17     1
        11        32     1
        11        33     1
        11        35     1
        12        15     1
        12        16     1
        12        18     1
        13        17     1
        13        34     1
        13        35     1
        14        18     1
        14        19     1
        15        17     1
        15        33     1
        15        34     1
        16        33     1
        16        35     1
        18        34     1
        18        35     1
        19        33     1
        19        34     1
        20        31     1
        20        37     1
        20        38     1
        20        39     1
        21        26     1
        21        36     1
        22        26     1
        22        36     1
        24        28     1
        24        29     1
        24        30     1
        25        28     1
        25        29     1
        25        30     1
        27        28     1
        31        32     1
        36        37     1
        36        38     1
        36        39     1
