; ITP file created by ByteFF-joint-25, 2026-02-17 09:18:33.658978

[ atomtypes ]
;name           bonded.type        at.num        mass        charge   ptype           sigma         epsilon
 o0bf                                   8      0.0000       0.00000       A     3.24314e-01     3.87820e-01    ;  uncertainty sigma = 0.000033, epsilon = 0.000883
 c1bf                                   6      0.0000       0.00000       A     3.39732e-01     4.50286e-01    ;  uncertainty sigma = 0.000031, epsilon = 0.001479
 c2bf                                   6      0.0000       0.00000       A     3.39804e-01     4.51139e-01    ;  uncertainty sigma = 0.000023, epsilon = 0.001153
 c3bf                                   6      0.0000       0.00000       A     3.39790e-01     4.50784e-01    ;  uncertainty sigma = 0.000016, epsilon = 0.000744
 c4bf                                   6      0.0000       0.00000       A     3.31543e-01     4.13487e-01    ;  uncertainty sigma = 0.000010, epsilon = 0.000942
 c5bf                                   6      0.0000       0.00000       A     3.31563e-01     4.12613e-01    ;  uncertainty sigma = 0.000022, epsilon = 0.001213
 c6bf                                   6      0.0000       0.00000       A     3.31509e-01     4.12814e-01    ;  uncertainty sigma = 0.000018, epsilon = 0.002018
 c7bf                                   6      0.0000       0.00000       A     3.31522e-01     4.13337e-01    ;  uncertainty sigma = 0.000009, epsilon = 0.000738
 c8bf                                   6      0.0000       0.00000       A     3.31528e-01     4.13650e-01    ;  uncertainty sigma = 0.000010, epsilon = 0.000487
 c9bf                                   6      0.0000       0.00000       A     3.31531e-01     4.13205e-01    ;  uncertainty sigma = 0.000015, epsilon = 0.000623
 o10bf                                  8      0.0000       0.00000       A     3.15560e-01     3.01903e-01    ;  uncertainty sigma = 0.000035, epsilon = 0.001496
 c11bf                                  6      0.0000       0.00000       A     3.31495e-01     4.13941e-01    ;  uncertainty sigma = 0.000010, epsilon = 0.001010
 c12bf                                  6      0.0000       0.00000       A     3.31520e-01     4.13586e-01    ;  uncertainty sigma = 0.000002, epsilon = 0.000805
 c13bf                                  6      0.0000       0.00000       A     3.31497e-01     4.13352e-01    ;  uncertainty sigma = 0.000008, epsilon = 0.000492
 f14bf                                  9      0.0000       0.00000       A     3.03420e-01     3.47893e-01    ;  uncertainty sigma = 0.000010, epsilon = 0.000765
 c15bf                                  6      0.0000       0.00000       A     3.31510e-01     4.13401e-01    ;  uncertainty sigma = 0.000009, epsilon = 0.000546
 c16bf                                  6      0.0000       0.00000       A     3.31508e-01     4.13715e-01    ;  uncertainty sigma = 0.000016, epsilon = 0.000826
 c17bf                                  6      0.0000       0.00000       A     3.47927e-01     6.68046e-01    ;  uncertainty sigma = 0.000023, epsilon = 0.001608
 c18bf                                  6      0.0000       0.00000       A     3.31520e-01     4.13321e-01    ;  uncertainty sigma = 0.000008, epsilon = 0.000748
 s19bf                                 16      0.0000       0.00000       A     4.05831e-01     2.57003e-01    ;  uncertainty sigma = 0.000009, epsilon = 0.003255
 o20bf                                  8      0.0000       0.00000       A     3.04800e-01     6.12000e-01    ;  uncertainty sigma = 0.000019, epsilon = 0.001178
 o21bf                                  8      0.0000       0.00000       A     3.04800e-01     6.12000e-01    ;  uncertainty sigma = 0.000019, epsilon = 0.001178
 n22bf                                  7      0.0000       0.00000       A     3.50662e-01     2.19579e-01    ;  uncertainty sigma = 0.000032, epsilon = 0.001400
 f23bf                                  9      0.0000       0.00000       A     3.03449e-01     3.47672e-01    ;  uncertainty sigma = 0.000012, epsilon = 0.001616
 f24bf                                  9      0.0000       0.00000       A     3.03449e-01     3.47672e-01    ;  uncertainty sigma = 0.000012, epsilon = 0.001616
 n25bf                                  7      0.0000       0.00000       A     3.27375e-01     4.59084e-01    ;  uncertainty sigma = 0.000021, epsilon = 0.000492
 c26bf                                  6      0.0000       0.00000       A     3.39773e-01     4.51254e-01    ;  uncertainty sigma = 0.000013, epsilon = 0.000914
 h27bf                                  1      0.0000       0.00000       A     5.38093e-02     1.93077e-02    ;  uncertainty sigma = 0.000062, epsilon = 0.000926
 h28bf                                  1      0.0000       0.00000       A     2.42326e-01     8.68827e-02    ;  uncertainty sigma = 0.000128, epsilon = 0.000858
 h29bf                                  1      0.0000       0.00000       A     2.60052e-01     8.67185e-02    ;  uncertainty sigma = 0.000035, epsilon = 0.000545
 h30bf                                  1      0.0000       0.00000       A     2.60052e-01     8.67184e-02    ;  uncertainty sigma = 0.000035, epsilon = 0.000545
 h31bf                                  1      0.0000       0.00000       A     2.62561e-01     6.72196e-02    ;  uncertainty sigma = 0.000018, epsilon = 0.000741
 h32bf                                  1      0.0000       0.00000       A     2.62556e-01     6.70855e-02    ;  uncertainty sigma = 0.000006, epsilon = 0.000381
 h33bf                                  1      0.0000       0.00000       A     2.62552e-01     6.72491e-02    ;  uncertainty sigma = 0.000007, epsilon = 0.000350
 h34bf                                  1      0.0000       0.00000       A     2.62545e-01     6.70249e-02    ;  uncertainty sigma = 0.000017, epsilon = 0.000507
 h35bf                                  1      0.0000       0.00000       A     2.62547e-01     6.71166e-02    ;  uncertainty sigma = 0.000014, epsilon = 0.000743
 h36bf                                  1      0.0000       0.00000       A     1.10717e-01     4.08441e-02    ;  uncertainty sigma = 0.000071, epsilon = 0.001174
 h37bf                                  1      0.0000       0.00000       A     2.42156e-01     8.66337e-02    ;  uncertainty sigma = 0.000014, epsilon = 0.000388
 h38bf                                  1      0.0000       0.00000       A     2.42156e-01     8.66337e-02    ;  uncertainty sigma = 0.000014, epsilon = 0.000388
 h39bf                                  1      0.0000       0.00000       A     2.42156e-01     8.66337e-02    ;  uncertainty sigma = 0.000014, epsilon = 0.000388

[ moleculetype ]
;name             nrexcl
 MOL                   3

[ atoms ]
;       nr            type      resi   res      atom      cgnr      charge          mass ; qtot
         1            o0bf         1   UNL        o0         1    -0.57180       15.9990 ; qtot   -0.572
         2            c1bf         1   UNL        c1         2     0.16419       12.0110 ; qtot   -0.408
         3            c2bf         1   UNL        c2         3     0.38809       12.0110 ; qtot   -0.020
         4            c3bf         1   UNL        c3         4    -0.05586       12.0110 ; qtot   -0.075
         5            c4bf         1   UNL        c4         5    -0.10164       12.0110 ; qtot   -0.177
         6            c5bf         1   UNL        c5         6     0.00673       12.0110 ; qtot   -0.170
         7            c6bf         1   UNL        c6         7    -0.23879       12.0110 ; qtot   -0.409
         8            c7bf         1   UNL        c7         8    -0.00875       12.0110 ; qtot   -0.418
         9            c8bf         1   UNL        c8         9    -0.17845       12.0110 ; qtot   -0.596
        10            c9bf         1   UNL        c9        10     0.16757       12.0110 ; qtot   -0.429
        11           o10bf         1   UNL       o10        11    -0.24701       15.9990 ; qtot   -0.676
        12           c11bf         1   UNL       c11        12     0.15098       12.0110 ; qtot   -0.525
        13           c12bf         1   UNL       c12        13    -0.18271       12.0110 ; qtot   -0.707
        14           c13bf         1   UNL       c13        14     0.15843       12.0110 ; qtot   -0.549
        15           f14bf         1   UNL       f14        15    -0.12713       18.9980 ; qtot   -0.676
        16           c15bf         1   UNL       c15        16    -0.15485       12.0110 ; qtot   -0.831
        17           c16bf         1   UNL       c16        17     0.03943       12.0110 ; qtot   -0.792
        18           c17bf         1   UNL       c17        18     0.22805       12.0110 ; qtot   -0.564
        19           c18bf         1   UNL       c18        19    -0.13883       12.0110 ; qtot   -0.702
        20           s19bf         1   UNL       s19        20     1.20904       32.0670 ; qtot    0.507
        21           o20bf         1   UNL       o20        21    -0.59478       15.9990 ; qtot   -0.088
        22           o21bf         1   UNL       o21        22    -0.59478       15.9990 ; qtot   -0.683
        23           n22bf         1   UNL       n22        23    -0.78042       14.0070 ; qtot   -1.463
        24           f23bf         1   UNL       f23        24    -0.22758       18.9980 ; qtot   -1.691
        25           f24bf         1   UNL       f24        25    -0.22758       18.9980 ; qtot   -1.918
        26           n25bf         1   UNL       n25        26    -0.34869       14.0070 ; qtot   -2.267
        27           c26bf         1   UNL       c26        27     0.17266       12.0110 ; qtot   -2.094
        28           h27bf         1   UNL       h27        28     0.41807        1.0080 ; qtot   -1.676
        29           h28bf         1   UNL       h28        29     0.09280        1.0080 ; qtot   -1.584
        30           h29bf         1   UNL       h29        30     0.09141        1.0080 ; qtot   -1.492
        31           h30bf         1   UNL       h30        31     0.09141        1.0080 ; qtot   -1.401
        32           h31bf         1   UNL       h31        32     0.16690        1.0080 ; qtot   -1.234
        33           h32bf         1   UNL       h32        33     0.15698        1.0080 ; qtot   -1.077
        34           h33bf         1   UNL       h33        34     0.16858        1.0080 ; qtot   -0.908
        35           h34bf         1   UNL       h34        35     0.16624        1.0080 ; qtot   -0.742
        36           h35bf         1   UNL       h35        36     0.16647        1.0080 ; qtot   -0.576
        37           h36bf         1   UNL       h36        37     0.41646        1.0080 ; qtot   -0.159
        38           h37bf         1   UNL       h37        38     0.05306        1.0080 ; qtot   -0.106
        39           h38bf         1   UNL       h38        39     0.05306        1.0080 ; qtot   -0.053
        40           h39bf         1   UNL       h39        40     0.05304        1.0080 ; qtot   -0.000

[ bonds ]
;       ai        aj funct               r               k
         1         2     1        0.141331   267113.056641    ;  uncertainty r = 0.000172, k = 16.485083
         1        28     1        0.097120   457921.536914    ;  uncertainty r = 0.000049, k = 2.604885
         2         3     1        0.154734   188259.634155    ;  uncertainty r = 0.000263, k = 7.032730
         2         6     1        0.151708   245635.326172    ;  uncertainty r = 0.000139, k = 20.497732
         2        29     1        0.109517   308365.728662    ;  uncertainty r = 0.000075, k = 3.129445
         3         4     1        0.153436   201677.482617    ;  uncertainty r = 0.000098, k = 9.661873
         3        24     1        0.137560   301163.370020    ;  uncertainty r = 0.000061, k = 5.585031
         3        25     1        0.137560   301163.370020    ;  uncertainty r = 0.000061, k = 5.585031
         4         5     1        0.151103   251822.635791    ;  uncertainty r = 0.000111, k = 19.730269
         4        30     1        0.109406   310072.348145    ;  uncertainty r = 0.000044, k = 1.784813
         4        31     1        0.109406   310072.348145    ;  uncertainty r = 0.000044, k = 1.784813
         5         6     1        0.139500   360586.359326    ;  uncertainty r = 0.000141, k = 21.232225
         5        10     1        0.138851   352235.443652    ;  uncertainty r = 0.000132, k = 5.267191
         6         7     1        0.139229   335423.726123    ;  uncertainty r = 0.000142, k = 13.833998
         7         8     1        0.139316   347334.029639    ;  uncertainty r = 0.000156, k = 7.463264
         7        20     1        0.178898   156178.346826    ;  uncertainty r = 0.000211, k = 20.082095
         8         9     1        0.139213   365369.638672    ;  uncertainty r = 0.000072, k = 6.133232
         8        32     1        0.108472   328030.503125    ;  uncertainty r = 0.000036, k = 1.705069
         9        10     1        0.139641   353341.047266    ;  uncertainty r = 0.000088, k = 6.953342
         9        33     1        0.108767   335998.847363    ;  uncertainty r = 0.000034, k = 1.377941
        10        11     1        0.138287   316815.881543    ;  uncertainty r = 0.000141, k = 11.445995
        11        12     1        0.137077   316895.097656    ;  uncertainty r = 0.000110, k = 9.258271
        12        13     1        0.139427   359163.303906    ;  uncertainty r = 0.000040, k = 4.028925
        12        19     1        0.139179   355512.646436    ;  uncertainty r = 0.000043, k = 0.656935
        13        14     1        0.138903   360755.951270    ;  uncertainty r = 0.000040, k = 3.414912
        13        34     1        0.108801   339525.062500    ;  uncertainty r = 0.000019, k = 1.519211
        14        15     1        0.134939   340193.470801    ;  uncertainty r = 0.000095, k = 3.973496
        14        16     1        0.138772   359379.322314    ;  uncertainty r = 0.000049, k = 1.285215
        16        17     1        0.140293   363423.557715    ;  uncertainty r = 0.000073, k = 1.983955
        16        35     1        0.108643   335847.029248    ;  uncertainty r = 0.000020, k = 0.933262
        17        18     1        0.143666   316064.886230    ;  uncertainty r = 0.000041, k = 3.494328
        17        19     1        0.140042   357603.165283    ;  uncertainty r = 0.000048, k = 4.155063
        18        26     1        0.116625  1127949.809766    ;  uncertainty r = 0.000026, k = 2.900562
        19        36     1        0.108681   335495.357715    ;  uncertainty r = 0.000025, k = 1.572342
        20        21     1        0.147128   534696.149316    ;  uncertainty r = 0.000081, k = 5.788704
        20        22     1        0.147128   534696.149316    ;  uncertainty r = 0.000081, k = 5.788704
        20        23     1        0.169247   179256.283643    ;  uncertainty r = 0.000159, k = 30.474459
        23        27     1        0.147159   244847.455273    ;  uncertainty r = 0.000057, k = 3.893541
        23        37     1        0.102247   453443.145117    ;  uncertainty r = 0.000050, k = 2.939494
        27        38     1        0.109424   310613.479492    ;  uncertainty r = 0.000029, k = 2.840346
        27        39     1        0.109424   310613.505029    ;  uncertainty r = 0.000029, k = 2.840348
        27        40     1        0.109424   310613.505029    ;  uncertainty r = 0.000029, k = 2.840332

[ angles ]
;       ai        aj        ak funct           theta             cth
         1         2         3     1      107.403610      630.358008    ;  uncertainty theta = 0.009066, k = 0.257815
         1         2         6     1      112.318848      669.387585    ;  uncertainty theta = 0.007695, k = 0.207292
         1         2        29     1      108.014236      441.995683    ;  uncertainty theta = 0.008433, k = 0.201993
         2         1        28     1      107.346542      458.138615    ;  uncertainty theta = 0.001499, k = 0.125841
         2         3         4     1      111.108292      610.592860    ;  uncertainty theta = 0.003859, k = 0.275914
         2         3        24     1      109.526100      594.826568    ;  uncertainty theta = 0.003297, k = 0.153738
         2         3        25     1      109.526100      594.826568    ;  uncertainty theta = 0.003297, k = 0.153738
         2         6         5     1      115.455093      510.860105    ;  uncertainty theta = 0.004763, k = 0.175035
         2         6         7     1      124.914505      356.274086    ;  uncertainty theta = 0.005007, k = 0.082130
         3         2         6     1      104.651291      710.794859    ;  uncertainty theta = 0.005013, k = 0.271671
         3         2        29     1      107.091957      385.050770    ;  uncertainty theta = 0.005339, k = 0.207737
         3         4         5     1      103.984230      709.792974    ;  uncertainty theta = 0.005273, k = 0.355621
         3         4        30     1      107.225937      380.179726    ;  uncertainty theta = 0.002622, k = 0.088553
         3         4        31     1      107.225937      380.179694    ;  uncertainty theta = 0.002622, k = 0.088553
         4         3        24     1      111.588036      659.455501    ;  uncertainty theta = 0.002894, k = 0.086543
         4         3        25     1      111.588036      659.455501    ;  uncertainty theta = 0.002894, k = 0.086543
         4         5         6     1      115.201233      532.440112    ;  uncertainty theta = 0.004928, k = 0.068265
         4         5        10     1      125.815269      387.639722    ;  uncertainty theta = 0.005842, k = 0.178311
         5         4        30     1      110.513512      379.665472    ;  uncertainty theta = 0.002497, k = 0.111777
         5         4        31     1      110.513512      379.665504    ;  uncertainty theta = 0.002497, k = 0.111777
         5         6         7     1      121.493912      425.146489    ;  uncertainty theta = 0.007798, k = 0.251596
         5        10         9     1      120.286942      382.355807    ;  uncertainty theta = 0.004635, k = 0.209710
         5        10        11     1      118.095924      404.015202    ;  uncertainty theta = 0.007376, k = 0.363977
         6         2        29     1      109.785484      377.022158    ;  uncertainty theta = 0.005359, k = 0.200380
         6         5        10     1      119.395363      417.422503    ;  uncertainty theta = 0.002769, k = 0.143179
         6         7         8     1      122.570030      440.145104    ;  uncertainty theta = 0.006479, k = 0.149602
         6         7        20     1      117.441025      348.351134    ;  uncertainty theta = 0.010398, k = 0.430045
         7         8         9     1      121.417313      490.226759    ;  uncertainty theta = 0.005851, k = 0.071227
         7         8        32     1      118.876663      259.614723    ;  uncertainty theta = 0.002765, k = 0.161964
         7        20        21     1      113.786789      575.848665    ;  uncertainty theta = 0.005091, k = 0.223098
         7        20        22     1      113.786789      575.848665    ;  uncertainty theta = 0.005091, k = 0.223098
         7        20        23     1      104.186691      653.170244    ;  uncertainty theta = 0.006210, k = 0.198807
         8         7        20     1      117.093628      360.503479    ;  uncertainty theta = 0.012264, k = 0.058215
         8         9        10     1      119.960106      506.435514    ;  uncertainty theta = 0.001836, k = 0.049663
         8         9        33     1      120.227638      275.681970    ;  uncertainty theta = 0.001299, k = 0.038108
         9         8        32     1      120.411842      283.962090    ;  uncertainty theta = 0.002874, k = 0.061552
         9        10        11     1      120.806480      433.370683    ;  uncertainty theta = 0.002686, k = 0.217983
        10         9        33     1      120.210915      275.478248    ;  uncertainty theta = 0.002309, k = 0.085237
        10        11        12     1      112.663620      472.674785    ;  uncertainty theta = 0.002352, k = 0.096123
        11        12        13     1      119.026627      419.851465    ;  uncertainty theta = 0.002706, k = 0.052294
        11        12        19     1      119.290588      404.135418    ;  uncertainty theta = 0.003651, k = 0.053296
        12        13        14     1      117.038597      502.569227    ;  uncertainty theta = 0.003445, k = 0.110867
        12        13        34     1      121.702477      272.440034    ;  uncertainty theta = 0.003455, k = 0.132527
        12        19        17     1      118.761208      522.894787    ;  uncertainty theta = 0.001489, k = 0.068180
        12        19        36     1      120.905983      280.332437    ;  uncertainty theta = 0.002004, k = 0.062093
        13        12        19     1      122.428162      385.560203    ;  uncertainty theta = 0.005403, k = 0.175952
        13        14        15     1      118.267052      494.604714    ;  uncertainty theta = 0.001988, k = 0.058359
        13        14        16     1      123.726730      369.147375    ;  uncertainty theta = 0.006010, k = 0.127235
        14        13        34     1      121.505081      285.104493    ;  uncertainty theta = 0.003243, k = 0.069272
        14        16        17     1      117.400681      493.697380    ;  uncertainty theta = 0.001506, k = 0.173040
        14        16        35     1      121.339279      286.173157    ;  uncertainty theta = 0.003120, k = 0.038569
        15        14        16     1      118.689796      499.274046    ;  uncertainty theta = 0.003051, k = 0.052524
        16        17        18     1      119.117836      375.204905    ;  uncertainty theta = 0.002733, k = 0.097877
        16        17        19     1      122.566833      457.580470    ;  uncertainty theta = 0.002293, k = 0.135282
        17        16        35     1      121.185242      278.472122    ;  uncertainty theta = 0.003138, k = 0.095958
        17        18        26     1      180.000000      233.555922    ;  uncertainty theta = 0.000000, k = 0.675784
        17        19        36     1      120.586197      284.638441    ;  uncertainty theta = 0.004219, k = 0.089604
        18        17        19     1      118.919228      375.151182    ;  uncertainty theta = 0.002637, k = 0.097444
        20        23        27     1      110.162193      436.533965    ;  uncertainty theta = 0.002446, k = 0.123920
        20        23        37     1      110.291122      449.307755    ;  uncertainty theta = 0.006114, k = 0.088780
        21        20        22     1      124.174637      795.061510    ;  uncertainty theta = 0.003324, k = 0.045360
        21        20        23     1      113.572647      860.944635    ;  uncertainty theta = 0.005657, k = 0.151096
        22        20        23     1      113.572647      860.944635    ;  uncertainty theta = 0.005657, k = 0.151096
        23        27        38     1      108.236450      442.512298    ;  uncertainty theta = 0.000935, k = 0.059151
        23        27        39     1      108.236450      442.512298    ;  uncertainty theta = 0.000935, k = 0.059151
        23        27        40     1      108.236450      442.512298    ;  uncertainty theta = 0.000935, k = 0.059151
        24         3        25     1      107.133316      788.630883    ;  uncertainty theta = 0.004222, k = 0.140640
        27        23        37     1      110.080246      400.314619    ;  uncertainty theta = 0.002709, k = 0.135010
        30         4        31     1      105.669456      291.017291    ;  uncertainty theta = 0.002858, k = 0.056929
        38        27        39     1      107.286133      322.276214    ;  uncertainty theta = 0.000885, k = 0.055992
        38        27        40     1      107.286133      322.276214    ;  uncertainty theta = 0.000885, k = 0.055992
        39        27        40     1      107.286133      322.276214    ;  uncertainty theta = 0.000885, k = 0.055992

[ dihedrals ] ; propers for gromacs 4.5 or higher, use funct 9
;       ai        aj        ak        al funct           phase               k        pn
         1         2         3         4     9        0.000000       -2.627646         1    ;  uncertainty k = 0.983996
         1         2         3         4     9      180.000000        1.655303         2    ;  uncertainty k = 0.535648
         1         2         3         4     9        0.000000        1.030511         3    ;  uncertainty k = 0.317267
         1         2         3         4     9      180.000000        0.047511         4    ;  uncertainty k = 0.272384
         1         2         3        24     9        0.000000       -0.269207         1    ;  uncertainty k = 1.403673
         1         2         3        24     9      180.000000        0.304235         2    ;  uncertainty k = 0.719898
         1         2         3        24     9        0.000000        1.458628         3    ;  uncertainty k = 0.375591
         1         2         3        24     9      180.000000        0.088981         4    ;  uncertainty k = 0.256701
         1         2         3        25     9        0.000000       -0.269207         1    ;  uncertainty k = 1.403673
         1         2         3        25     9      180.000000        0.304235         2    ;  uncertainty k = 0.719898
         1         2         3        25     9        0.000000        1.458628         3    ;  uncertainty k = 0.375591
         1         2         3        25     9      180.000000        0.088981         4    ;  uncertainty k = 0.256701
         1         2         6         5     9        0.000000       -4.299267         1    ;  uncertainty k = 2.354664
         1         2         6         5     9      180.000000        4.941023         2    ;  uncertainty k = 1.204986
         1         2         6         5     9        0.000000        1.097260         3    ;  uncertainty k = 0.739425
         1         2         6         5     9      180.000000        0.602792         4    ;  uncertainty k = 0.228845
         1         2         6         7     9        0.000000       -1.126273         1    ;  uncertainty k = 1.225369
         1         2         6         7     9      180.000000        3.463210         2    ;  uncertainty k = 0.307010
         1         2         6         7     9        0.000000       -0.188730         3    ;  uncertainty k = 0.242469
         1         2         6         7     9      180.000000        0.493512         4    ;  uncertainty k = 0.163129
         2         3         4         5     9        0.000000       -0.339598         1    ;  uncertainty k = 1.881083
         2         3         4         5     9      180.000000        1.948003         2    ;  uncertainty k = 0.604235
         2         3         4         5     9        0.000000        0.001289         3    ;  uncertainty k = 0.524600
         2         3         4         5     9      180.000000       -0.168933         4    ;  uncertainty k = 0.381813
         2         3         4        30     9        0.000000       -0.266515         1    ;  uncertainty k = 0.277694
         2         3         4        30     9      180.000000       -0.223030         2    ;  uncertainty k = 0.652617
         2         3         4        30     9        0.000000        0.002221         3    ;  uncertainty k = 0.216427
         2         3         4        30     9      180.000000       -0.025185         4    ;  uncertainty k = 0.190586
         2         3         4        31     9        0.000000       -0.266514         1    ;  uncertainty k = 0.277694
         2         3         4        31     9      180.000000       -0.223030         2    ;  uncertainty k = 0.652619
         2         3         4        31     9        0.000000        0.002221         3    ;  uncertainty k = 0.216428
         2         3         4        31     9      180.000000       -0.025185         4    ;  uncertainty k = 0.190587
         2         6         5         4     9        0.000000        0.512534         1    ;  uncertainty k = 0.626025
         2         6         5         4     9      180.000000       11.954446         2    ;  uncertainty k = 0.618012
         2         6         5         4     9        0.000000       -0.467270         3    ;  uncertainty k = 0.920557
         2         6         5         4     9      180.000000        1.189491         4    ;  uncertainty k = 0.315341
         2         6         5        10     9        0.000000        0.550812         1    ;  uncertainty k = 0.492362
         2         6         5        10     9      180.000000        8.694778         2    ;  uncertainty k = 0.374461
         2         6         5        10     9        0.000000        0.704139         3    ;  uncertainty k = 0.270279
         2         6         5        10     9      180.000000        1.265993         4    ;  uncertainty k = 0.186165
         2         6         7         8     9        0.000000        0.330498         1    ;  uncertainty k = 0.607828
         2         6         7         8     9      180.000000        6.565332         2    ;  uncertainty k = 0.265678
         2         6         7         8     9        0.000000        1.282926         3    ;  uncertainty k = 0.279523
         2         6         7         8     9      180.000000        1.649358         4    ;  uncertainty k = 0.148404
         2         6         7        20     9        0.000000        0.057236         1    ;  uncertainty k = 0.948883
         2         6         7        20     9      180.000000        6.938694         2    ;  uncertainty k = 0.359794
         2         6         7        20     9        0.000000        1.141608         3    ;  uncertainty k = 0.168000
         2         6         7        20     9      180.000000        1.306596         4    ;  uncertainty k = 0.208678
         3         2         1        28     9        0.000000       13.899418         1    ;  uncertainty k = 0.480946
         3         2         1        28     9      180.000000       -4.518750         2    ;  uncertainty k = 0.286306
         3         2         1        28     9        0.000000        1.011957         3    ;  uncertainty k = 0.239984
         3         2         1        28     9      180.000000        0.090569         4    ;  uncertainty k = 0.079063
         3         2         6         5     9        0.000000       -0.499699         1    ;  uncertainty k = 2.003251
         3         2         6         5     9      180.000000        8.491023         2    ;  uncertainty k = 0.968830
         3         2         6         5     9        0.000000       -1.041145         3    ;  uncertainty k = 0.486533
         3         2         6         5     9      180.000000        0.868592         4    ;  uncertainty k = 0.263434
         3         2         6         7     9        0.000000       -1.719093         1    ;  uncertainty k = 1.734728
         3         2         6         7     9      180.000000        3.561815         2    ;  uncertainty k = 0.630415
         3         2         6         7     9        0.000000        0.175889         3    ;  uncertainty k = 0.346983
         3         2         6         7     9      180.000000        0.610320         4    ;  uncertainty k = 0.197613
         3         4         5         6     9        0.000000       -2.198642         1    ;  uncertainty k = 1.829959
         3         4         5         6     9      180.000000        9.600209         2    ;  uncertainty k = 0.527021
         3         4         5         6     9        0.000000       -1.800562         3    ;  uncertainty k = 0.390428
         3         4         5         6     9      180.000000        0.935053         4    ;  uncertainty k = 0.107407
         3         4         5        10     9        0.000000       -0.403139         1    ;  uncertainty k = 0.755686
         3         4         5        10     9      180.000000        2.382150         2    ;  uncertainty k = 0.537141
         3         4         5        10     9        0.000000        0.124312         3    ;  uncertainty k = 0.233877
         3         4         5        10     9      180.000000        0.634495         4    ;  uncertainty k = 0.118174
         4         3         2         6     9        0.000000       -0.195848         1    ;  uncertainty k = 1.836956
         4         3         2         6     9      180.000000        1.336133         2    ;  uncertainty k = 0.605761
         4         3         2         6     9        0.000000        0.092873         3    ;  uncertainty k = 0.269493
         4         3         2         6     9      180.000000       -0.067807         4    ;  uncertainty k = 0.299605
         4         3         2        29     9        0.000000       -0.813798         1    ;  uncertainty k = 0.616105
         4         3         2        29     9      180.000000        0.445885         2    ;  uncertainty k = 0.553315
         4         3         2        29     9        0.000000        0.140775         3    ;  uncertainty k = 0.274254
         4         3         2        29     9      180.000000       -0.112167         4    ;  uncertainty k = 0.222826
         4         5         6         7     9        0.000000        0.195353         1    ;  uncertainty k = 0.712038
         4         5         6         7     9      180.000000        8.801545         2    ;  uncertainty k = 0.488138
         4         5         6         7     9        0.000000        0.683615         3    ;  uncertainty k = 0.413536
         4         5         6         7     9      180.000000        1.170329         4    ;  uncertainty k = 0.207132
         4         5        10         9     9        0.000000        0.519227         1    ;  uncertainty k = 0.339007
         4         5        10         9     9      180.000000        6.371380         2    ;  uncertainty k = 0.300120
         4         5        10         9     9        0.000000        1.309943         3    ;  uncertainty k = 0.271046
         4         5        10         9     9      180.000000        1.610695         4    ;  uncertainty k = 0.315993
         4         5        10        11     9        0.000000       -0.257973         1    ;  uncertainty k = 0.659249
         4         5        10        11     9      180.000000        8.886956         2    ;  uncertainty k = 0.261556
         4         5        10        11     9        0.000000        1.041210         3    ;  uncertainty k = 0.241801
         4         5        10        11     9      180.000000        1.262701         4    ;  uncertainty k = 0.156509
         5         4         3        24     9        0.000000       -0.911078         1    ;  uncertainty k = 0.917515
         5         4         3        24     9      180.000000        0.752361         2    ;  uncertainty k = 0.486248
         5         4         3        24     9        0.000000        1.122840         3    ;  uncertainty k = 0.305845
         5         4         3        24     9      180.000000        0.249147         4    ;  uncertainty k = 0.039650
         5         4         3        25     9        0.000000       -0.911078         1    ;  uncertainty k = 0.917515
         5         4         3        25     9      180.000000        0.752361         2    ;  uncertainty k = 0.486248
         5         4         3        25     9        0.000000        1.122840         3    ;  uncertainty k = 0.305845
         5         4         3        25     9      180.000000        0.249147         4    ;  uncertainty k = 0.039650
         5         6         2        29     9        0.000000       -0.881608         1    ;  uncertainty k = 0.703105
         5         6         2        29     9      180.000000        3.156279         2    ;  uncertainty k = 0.740344
         5         6         2        29     9        0.000000        0.795878         3    ;  uncertainty k = 0.165211
         5         6         2        29     9      180.000000        0.231904         4    ;  uncertainty k = 0.129127
         5         6         7         8     9        0.000000       -0.336333         1    ;  uncertainty k = 0.499966
         5         6         7         8     9      180.000000        9.970085         2    ;  uncertainty k = 0.404300
         5         6         7         8     9        0.000000       -0.575932         3    ;  uncertainty k = 0.464172
         5         6         7         8     9      180.000000        0.937218         4    ;  uncertainty k = 0.235029
         5         6         7        20     9        0.000000        0.400247         1    ;  uncertainty k = 0.745239
         5         6         7        20     9      180.000000        8.078282         2    ;  uncertainty k = 0.675584
         5         6         7        20     9        0.000000        1.403224         3    ;  uncertainty k = 0.458755
         5         6         7        20     9      180.000000        1.615395         4    ;  uncertainty k = 0.215317
         5        10         9         8     9        0.000000        0.325076         1    ;  uncertainty k = 0.253692
         5        10         9         8     9      180.000000        9.129364         2    ;  uncertainty k = 0.379838
         5        10         9         8     9        0.000000        0.225122         3    ;  uncertainty k = 0.447235
         5        10         9         8     9      180.000000        1.292054         4    ;  uncertainty k = 0.327934
         5        10         9        33     9        0.000000        0.163593         1    ;  uncertainty k = 0.321307
         5        10         9        33     9      180.000000        6.812893         2    ;  uncertainty k = 0.514561
         5        10         9        33     9        0.000000        1.359595         3    ;  uncertainty k = 0.499613
         5        10         9        33     9      180.000000        1.598205         4    ;  uncertainty k = 0.111732
         5        10        11        12     9        0.000000        4.422202         1    ;  uncertainty k = 0.645086
         5        10        11        12     9      180.000000        4.912317         2    ;  uncertainty k = 0.344696
         5        10        11        12     9        0.000000        0.717188         3    ;  uncertainty k = 0.042153
         5        10        11        12     9      180.000000        0.148817         4    ;  uncertainty k = 0.088737
         6         2         1        28     9        0.000000       14.581735         1    ;  uncertainty k = 0.328688
         6         2         1        28     9      180.000000       -3.719463         2    ;  uncertainty k = 0.551293
         6         2         1        28     9        0.000000        1.040414         3    ;  uncertainty k = 0.183452
         6         2         1        28     9      180.000000        0.068405         4    ;  uncertainty k = 0.056381
         6         2         3        24     9        0.000000        0.083254         1    ;  uncertainty k = 0.901879
         6         2         3        24     9      180.000000        0.575346         2    ;  uncertainty k = 0.977518
         6         2         3        24     9        0.000000        0.941587         3    ;  uncertainty k = 0.165749
         6         2         3        24     9      180.000000        0.250057         4    ;  uncertainty k = 0.052596
         6         2         3        25     9        0.000000        0.083254         1    ;  uncertainty k = 0.901879
         6         2         3        25     9      180.000000        0.575346         2    ;  uncertainty k = 0.977518
         6         2         3        25     9        0.000000        0.941587         3    ;  uncertainty k = 0.165749
         6         2         3        25     9      180.000000        0.250057         4    ;  uncertainty k = 0.052596
         6         5         4        30     9        0.000000       -0.229668         1    ;  uncertainty k = 0.337021
         6         5         4        30     9      180.000000        1.737023         2    ;  uncertainty k = 0.359441
         6         5         4        30     9        0.000000        0.277450         3    ;  uncertainty k = 0.122674
         6         5         4        30     9      180.000000        0.234267         4    ;  uncertainty k = 0.091983
         6         5         4        31     9        0.000000       -0.229668         1    ;  uncertainty k = 0.337021
         6         5         4        31     9      180.000000        1.737022         2    ;  uncertainty k = 0.359441
         6         5         4        31     9        0.000000        0.277450         3    ;  uncertainty k = 0.122673
         6         5         4        31     9      180.000000        0.234267         4    ;  uncertainty k = 0.091983
         6         5        10         9     9        0.000000       -0.193299         1    ;  uncertainty k = 0.203480
         6         5        10         9     9      180.000000        8.308810         2    ;  uncertainty k = 0.541648
         6         5        10         9     9        0.000000       -0.465942         3    ;  uncertainty k = 0.458354
         6         5        10         9     9      180.000000        1.057211         4    ;  uncertainty k = 0.296716
         6         5        10        11     9        0.000000        0.016526         1    ;  uncertainty k = 0.232720
         6         5        10        11     9      180.000000        9.751280         2    ;  uncertainty k = 0.318430
         6         5        10        11     9        0.000000        1.383064         3    ;  uncertainty k = 0.271973
         6         5        10        11     9      180.000000        1.516638         4    ;  uncertainty k = 0.169639
         6         7         8         9     9        0.000000       -0.205715         1    ;  uncertainty k = 0.480375
         6         7         8         9     9      180.000000       10.177927         2    ;  uncertainty k = 0.500904
         6         7         8         9     9        0.000000       -0.270794         3    ;  uncertainty k = 0.407048
         6         7         8         9     9      180.000000        1.080223         4    ;  uncertainty k = 0.328431
         6         7         8        32     9        0.000000        0.032756         1    ;  uncertainty k = 0.390351
         6         7         8        32     9      180.000000        7.368219         2    ;  uncertainty k = 0.659357
         6         7         8        32     9        0.000000        1.238358         3    ;  uncertainty k = 0.430848
         6         7         8        32     9      180.000000        1.628314         4    ;  uncertainty k = 0.127477
         6         7        20        21     9        0.000000       -1.073603         1    ;  uncertainty k = 0.650163
         6         7        20        21     9      180.000000        1.333008         2    ;  uncertainty k = 0.356597
         6         7        20        21     9        0.000000        0.693972         3    ;  uncertainty k = 0.105624
         6         7        20        21     9      180.000000        0.032264         4    ;  uncertainty k = 0.128009
         6         7        20        22     9        0.000000       -1.073603         1    ;  uncertainty k = 0.650163
         6         7        20        22     9      180.000000        1.333008         2    ;  uncertainty k = 0.356597
         6         7        20        22     9        0.000000        0.693972         3    ;  uncertainty k = 0.105624
         6         7        20        22     9      180.000000        0.032264         4    ;  uncertainty k = 0.128009
         6         7        20        23     9        0.000000        0.742344         1    ;  uncertainty k = 1.282267
         6         7        20        23     9      180.000000        0.999295         2    ;  uncertainty k = 0.428466
         6         7        20        23     9        0.000000        0.867419         3    ;  uncertainty k = 0.444449
         6         7        20        23     9      180.000000        0.281387         4    ;  uncertainty k = 0.179632
         7         6         2        29     9        0.000000        1.385952         1    ;  uncertainty k = 0.919603
         7         6         2        29     9      180.000000        2.204509         2    ;  uncertainty k = 0.768955
         7         6         2        29     9        0.000000       -0.122220         3    ;  uncertainty k = 0.070922
         7         6         2        29     9      180.000000        0.194689         4    ;  uncertainty k = 0.167458
         7         6         5        10     9        0.000000       -0.068531         1    ;  uncertainty k = 0.460434
         7         6         5        10     9      180.000000        8.490235         2    ;  uncertainty k = 0.332420
         7         6         5        10     9        0.000000        0.109632         3    ;  uncertainty k = 0.195372
         7         6         5        10     9      180.000000        1.095319         4    ;  uncertainty k = 0.285276
         7         8         9        10     9        0.000000        0.066139         1    ;  uncertainty k = 0.304689
         7         8         9        10     9      180.000000       11.975602         2    ;  uncertainty k = 0.273807
         7         8         9        10     9        0.000000       -0.883099         3    ;  uncertainty k = 0.577588
         7         8         9        10     9      180.000000        0.921417         4    ;  uncertainty k = 0.312791
         7         8         9        33     9        0.000000       -0.028937         1    ;  uncertainty k = 0.519836
         7         8         9        33     9      180.000000        8.227791         2    ;  uncertainty k = 0.214402
         7         8         9        33     9        0.000000        1.191294         3    ;  uncertainty k = 0.164687
         7         8         9        33     9      180.000000        1.654266         4    ;  uncertainty k = 0.123079
         7        20        23        27     9        0.000000       -4.936641         1    ;  uncertainty k = 1.009141
         7        20        23        27     9      180.000000       -4.897357         2    ;  uncertainty k = 0.817091
         7        20        23        27     9        0.000000        2.580015         3    ;  uncertainty k = 0.667346
         7        20        23        27     9      180.000000        0.454498         4    ;  uncertainty k = 0.284776
         7        20        23        37     9        0.000000        0.557961         1    ;  uncertainty k = 1.286364
         7        20        23        37     9      180.000000       -5.880606         2    ;  uncertainty k = 1.133806
         7        20        23        37     9        0.000000       -0.574359         3    ;  uncertainty k = 0.345792
         7        20        23        37     9      180.000000        0.071524         4    ;  uncertainty k = 0.221126
         8         7        20        21     9        0.000000       -0.599775         1    ;  uncertainty k = 0.506454
         8         7        20        21     9      180.000000        1.585173         2    ;  uncertainty k = 0.629051
         8         7        20        21     9        0.000000        0.460353         3    ;  uncertainty k = 0.238259
         8         7        20        21     9      180.000000       -0.030207         4    ;  uncertainty k = 0.103906
         8         7        20        22     9        0.000000       -0.599775         1    ;  uncertainty k = 0.506454
         8         7        20        22     9      180.000000        1.585173         2    ;  uncertainty k = 0.629051
         8         7        20        22     9        0.000000        0.460353         3    ;  uncertainty k = 0.238259
         8         7        20        22     9      180.000000       -0.030207         4    ;  uncertainty k = 0.103906
         8         7        20        23     9        0.000000        1.502600         1    ;  uncertainty k = 0.476186
         8         7        20        23     9      180.000000        1.292559         2    ;  uncertainty k = 0.436140
         8         7        20        23     9        0.000000        0.334209         3    ;  uncertainty k = 0.255820
         8         7        20        23     9      180.000000        0.153196         4    ;  uncertainty k = 0.153293
         8         9        10        11     9        0.000000       -0.009459         1    ;  uncertainty k = 0.272741
         8         9        10        11     9      180.000000       10.955398         2    ;  uncertainty k = 0.413805
         8         9        10        11     9        0.000000        1.455137         3    ;  uncertainty k = 0.270581
         8         9        10        11     9      180.000000        1.742436         4    ;  uncertainty k = 0.215092
         9         8         7        20     9        0.000000        0.296906         1    ;  uncertainty k = 0.222044
         9         8         7        20     9      180.000000        9.469601         2    ;  uncertainty k = 0.451550
         9         8         7        20     9        0.000000        1.387856         3    ;  uncertainty k = 0.407011
         9         8         7        20     9      180.000000        1.733701         4    ;  uncertainty k = 0.177973
         9        10        11        12     9        0.000000        5.016333         1    ;  uncertainty k = 0.339059
         9        10        11        12     9      180.000000        5.521418         2    ;  uncertainty k = 0.150714
         9        10        11        12     9        0.000000        0.363619         3    ;  uncertainty k = 0.120160
         9        10        11        12     9      180.000000        0.184255         4    ;  uncertainty k = 0.078716
        10         5         4        30     9        0.000000        0.671745         1    ;  uncertainty k = 0.182100
        10         5         4        30     9      180.000000        1.635978         2    ;  uncertainty k = 0.610115
        10         5         4        30     9        0.000000        0.148338         3    ;  uncertainty k = 0.254441
        10         5         4        30     9      180.000000        0.227750         4    ;  uncertainty k = 0.142932
        10         5         4        31     9        0.000000        0.671745         1    ;  uncertainty k = 0.182101
        10         5         4        31     9      180.000000        1.635978         2    ;  uncertainty k = 0.610116
        10         5         4        31     9        0.000000        0.148338         3    ;  uncertainty k = 0.254441
        10         5         4        31     9      180.000000        0.227750         4    ;  uncertainty k = 0.142933
        10         9         8        32     9        0.000000       -0.107889         1    ;  uncertainty k = 0.336425
        10         9         8        32     9      180.000000        7.780677         2    ;  uncertainty k = 0.139976
        10         9         8        32     9        0.000000        1.037225         3    ;  uncertainty k = 0.196086
        10         9         8        32     9      180.000000        1.698738         4    ;  uncertainty k = 0.058856
        10        11        12        13     9        0.000000        4.215533         1    ;  uncertainty k = 0.350421
        10        11        12        13     9      180.000000        5.366357         2    ;  uncertainty k = 0.291064
        10        11        12        13     9        0.000000        0.432025         3    ;  uncertainty k = 0.135129
        10        11        12        13     9      180.000000        0.162533         4    ;  uncertainty k = 0.097194
        10        11        12        19     9        0.000000        4.241893         1    ;  uncertainty k = 0.379468
        10        11        12        19     9      180.000000        5.622853         2    ;  uncertainty k = 0.281623
        10        11        12        19     9        0.000000        0.386448         3    ;  uncertainty k = 0.154755
        10        11        12        19     9      180.000000        0.145124         4    ;  uncertainty k = 0.118699
        11        10         9        33     9        0.000000       -0.038820         1    ;  uncertainty k = 0.157450
        11        10         9        33     9      180.000000        9.063425         2    ;  uncertainty k = 0.341411
        11        10         9        33     9        0.000000        0.843318         3    ;  uncertainty k = 0.228673
        11        10         9        33     9      180.000000        1.125269         4    ;  uncertainty k = 0.133021
        11        12        13        14     9        0.000000        0.110616         1    ;  uncertainty k = 0.280260
        11        12        13        14     9      180.000000       10.825049         2    ;  uncertainty k = 0.268023
        11        12        13        14     9        0.000000        1.291452         3    ;  uncertainty k = 0.181954
        11        12        13        14     9      180.000000        1.601789         4    ;  uncertainty k = 0.123424
        11        12        13        34     9        0.000000       -0.096546         1    ;  uncertainty k = 0.131039
        11        12        13        34     9      180.000000        8.372996         2    ;  uncertainty k = 0.282068
        11        12        13        34     9        0.000000        0.828749         3    ;  uncertainty k = 0.203572
        11        12        13        34     9      180.000000        1.093044         4    ;  uncertainty k = 0.104496
        11        12        19        17     9        0.000000       -0.066703         1    ;  uncertainty k = 0.256317
        11        12        19        17     9      180.000000       11.317502         2    ;  uncertainty k = 0.454829
        11        12        19        17     9        0.000000        1.188762         3    ;  uncertainty k = 0.073630
        11        12        19        17     9      180.000000        1.617869         4    ;  uncertainty k = 0.138905
        11        12        19        36     9        0.000000        0.114391         1    ;  uncertainty k = 0.181010
        11        12        19        36     9      180.000000        8.496717         2    ;  uncertainty k = 0.306846
        11        12        19        36     9        0.000000        0.848986         3    ;  uncertainty k = 0.295991
        11        12        19        36     9      180.000000        1.147922         4    ;  uncertainty k = 0.169207
        12        13        14        15     9        0.000000        0.029267         1    ;  uncertainty k = 0.076351
        12        13        14        15     9      180.000000       12.681220         2    ;  uncertainty k = 0.591249
        12        13        14        15     9        0.000000        1.486062         3    ;  uncertainty k = 0.376399
        12        13        14        15     9      180.000000        1.475435         4    ;  uncertainty k = 0.279101
        12        13        14        16     9        0.000000       -0.041312         1    ;  uncertainty k = 0.166168
        12        13        14        16     9      180.000000        8.711743         2    ;  uncertainty k = 0.535595
        12        13        14        16     9        0.000000        0.058226         3    ;  uncertainty k = 0.483440
        12        13        14        16     9      180.000000        1.296510         4    ;  uncertainty k = 0.287570
        12        19        17        16     9        0.000000       -0.126135         1    ;  uncertainty k = 0.335758
        12        19        17        16     9      180.000000       11.543728         2    ;  uncertainty k = 0.211528
        12        19        17        16     9        0.000000       -0.409273         3    ;  uncertainty k = 0.525587
        12        19        17        16     9      180.000000        1.114605         4    ;  uncertainty k = 0.265123
        12        19        17        18     9        0.000000        0.008933         1    ;  uncertainty k = 0.224406
        12        19        17        18     9      180.000000       10.110912         2    ;  uncertainty k = 0.333390
        12        19        17        18     9        0.000000        1.306913         3    ;  uncertainty k = 0.264685
        12        19        17        18     9      180.000000        1.637563         4    ;  uncertainty k = 0.199965
        13        12        19        17     9        0.000000       -0.051322         1    ;  uncertainty k = 0.175220
        13        12        19        17     9      180.000000        9.609478         2    ;  uncertainty k = 0.403633
        13        12        19        17     9        0.000000        0.176055         3    ;  uncertainty k = 0.389800
        13        12        19        17     9      180.000000        1.259071         4    ;  uncertainty k = 0.358591
        13        12        19        36     9        0.000000        0.319861         1    ;  uncertainty k = 0.231991
        13        12        19        36     9      180.000000        6.318270         2    ;  uncertainty k = 0.750341
        13        12        19        36     9        0.000000        1.465273         3    ;  uncertainty k = 0.273057
        13        12        19        36     9      180.000000        1.603175         4    ;  uncertainty k = 0.165843
        13        14        16        17     9        0.000000       -0.019167         1    ;  uncertainty k = 0.236218
        13        14        16        17     9      180.000000        9.329732         2    ;  uncertainty k = 0.304985
        13        14        16        17     9        0.000000        0.099008         3    ;  uncertainty k = 0.304607
        13        14        16        17     9      180.000000        1.274852         4    ;  uncertainty k = 0.274241
        13        14        16        35     9        0.000000       -0.000593         1    ;  uncertainty k = 0.199602
        13        14        16        35     9      180.000000        5.887325         2    ;  uncertainty k = 0.750109
        13        14        16        35     9        0.000000        1.321078         3    ;  uncertainty k = 0.278410
        13        14        16        35     9      180.000000        1.516102         4    ;  uncertainty k = 0.088176
        14        13        12        19     9        0.000000        0.083575         1    ;  uncertainty k = 0.184356
        14        13        12        19     9      180.000000        9.069038         2    ;  uncertainty k = 0.673942
        14        13        12        19     9        0.000000        0.004877         3    ;  uncertainty k = 0.505260
        14        13        12        19     9      180.000000        1.219759         4    ;  uncertainty k = 0.386904
        14        16        17        18     9        0.000000        0.042737         1    ;  uncertainty k = 0.291483
        14        16        17        18     9      180.000000        9.815526         2    ;  uncertainty k = 0.311825
        14        16        17        18     9        0.000000        1.325513         3    ;  uncertainty k = 0.249458
        14        16        17        18     9      180.000000        1.659796         4    ;  uncertainty k = 0.165102
        14        16        17        19     9        0.000000       -0.093634         1    ;  uncertainty k = 0.287446
        14        16        17        19     9      180.000000       11.524169         2    ;  uncertainty k = 0.474663
        14        16        17        19     9        0.000000       -0.540684         3    ;  uncertainty k = 0.386751
        14        16        17        19     9      180.000000        1.065656         4    ;  uncertainty k = 0.270989
        15        14        13        34     9        0.000000       -0.266165         1    ;  uncertainty k = 0.229666
        15        14        13        34     9      180.000000        8.750384         2    ;  uncertainty k = 0.391886
        15        14        13        34     9        0.000000        0.839204         3    ;  uncertainty k = 0.231015
        15        14        13        34     9      180.000000        1.056841         4    ;  uncertainty k = 0.208951
        15        14        16        17     9        0.000000       -0.039623         1    ;  uncertainty k = 0.207167
        15        14        16        17     9      180.000000       13.467148         2    ;  uncertainty k = 0.458195
        15        14        16        17     9        0.000000        1.330325         3    ;  uncertainty k = 0.272641
        15        14        16        17     9      180.000000        1.408183         4    ;  uncertainty k = 0.220523
        15        14        16        35     9        0.000000       -0.317019         1    ;  uncertainty k = 0.306342
        15        14        16        35     9      180.000000        8.994255         2    ;  uncertainty k = 0.352455
        15        14        16        35     9        0.000000        0.799840         3    ;  uncertainty k = 0.209801
        15        14        16        35     9      180.000000        1.001169         4    ;  uncertainty k = 0.172439
        16        14        13        34     9        0.000000        0.117728         1    ;  uncertainty k = 0.152876
        16        14        13        34     9      180.000000        5.739162         2    ;  uncertainty k = 0.725581
        16        14        13        34     9        0.000000        1.354805         3    ;  uncertainty k = 0.319905
        16        14        13        34     9      180.000000        1.531360         4    ;  uncertainty k = 0.102992
        16        17        18        26     9        0.000000        0.000000         1    ;  uncertainty k = 0.000000
        16        17        18        26     9      180.000000        0.000000         2    ;  uncertainty k = 0.000000
        16        17        18        26     9        0.000000        0.000000         3    ;  uncertainty k = 0.000000
        16        17        18        26     9      180.000000        0.000000         4    ;  uncertainty k = 0.000000
        16        17        19        36     9        0.000000        0.266901         1    ;  uncertainty k = 0.392933
        16        17        19        36     9      180.000000        6.702181         2    ;  uncertainty k = 0.686766
        16        17        19        36     9        0.000000        1.492380         3    ;  uncertainty k = 0.274536
        16        17        19        36     9      180.000000        1.680830         4    ;  uncertainty k = 0.134103
        18        17        16        35     9        0.000000       -0.401280         1    ;  uncertainty k = 0.467937
        18        17        16        35     9      180.000000        7.099068         2    ;  uncertainty k = 0.224071
        18        17        16        35     9        0.000000        0.520905         3    ;  uncertainty k = 0.112594
        18        17        16        35     9      180.000000        0.955860         4    ;  uncertainty k = 0.230500
        18        17        19        36     9        0.000000       -0.303371         1    ;  uncertainty k = 0.311612
        18        17        19        36     9      180.000000        7.433399         2    ;  uncertainty k = 0.295932
        18        17        19        36     9        0.000000        0.543142         3    ;  uncertainty k = 0.139134
        18        17        19        36     9      180.000000        0.967541         4    ;  uncertainty k = 0.213771
        19        12        13        34     9        0.000000        0.238077         1    ;  uncertainty k = 0.231773
        19        12        13        34     9      180.000000        5.993858         2    ;  uncertainty k = 0.765201
        19        12        13        34     9        0.000000        1.476771         3    ;  uncertainty k = 0.368309
        19        12        13        34     9      180.000000        1.569369         4    ;  uncertainty k = 0.131184
        19        17        16        35     9        0.000000        0.157284         1    ;  uncertainty k = 0.536677
        19        17        16        35     9      180.000000        6.651379         2    ;  uncertainty k = 0.604357
        19        17        16        35     9        0.000000        1.457227         3    ;  uncertainty k = 0.366961
        19        17        16        35     9      180.000000        1.599688         4    ;  uncertainty k = 0.107457
        19        17        18        26     9        0.000000        0.000000         1    ;  uncertainty k = 0.000000
        19        17        18        26     9      180.000000        0.000000         2    ;  uncertainty k = 0.000000
        19        17        18        26     9        0.000000        0.000000         3    ;  uncertainty k = 0.000000
        19        17        18        26     9      180.000000        0.000000         4    ;  uncertainty k = 0.000000
        20         7         8        32     9        0.000000       -0.298787         1    ;  uncertainty k = 0.418447
        20         7         8        32     9      180.000000        6.890616         2    ;  uncertainty k = 0.117447
        20         7         8        32     9        0.000000        0.808966         3    ;  uncertainty k = 0.194418
        20         7         8        32     9      180.000000        1.147918         4    ;  uncertainty k = 0.124455
        20        23        27        38     9        0.000000       -1.173455         1    ;  uncertainty k = 1.084402
        20        23        27        38     9      180.000000       -5.135608         2    ;  uncertainty k = 0.866861
        20        23        27        38     9        0.000000       -0.782590         3    ;  uncertainty k = 0.197405
        20        23        27        38     9      180.000000        0.156253         4    ;  uncertainty k = 0.198272
        20        23        27        39     9        0.000000       -1.173455         1    ;  uncertainty k = 1.084402
        20        23        27        39     9      180.000000       -5.135608         2    ;  uncertainty k = 0.866861
        20        23        27        39     9        0.000000       -0.782590         3    ;  uncertainty k = 0.197405
        20        23        27        39     9      180.000000        0.156253         4    ;  uncertainty k = 0.198272
        20        23        27        40     9        0.000000       -1.173455         1    ;  uncertainty k = 1.084402
        20        23        27        40     9      180.000000       -5.135608         2    ;  uncertainty k = 0.866861
        20        23        27        40     9        0.000000       -0.782590         3    ;  uncertainty k = 0.197405
        20        23        27        40     9      180.000000        0.156253         4    ;  uncertainty k = 0.198272
        21        20        23        27     9        0.000000        1.892512         1    ;  uncertainty k = 1.262370
        21        20        23        27     9      180.000000        3.623180         2    ;  uncertainty k = 0.729496
        21        20        23        27     9        0.000000        1.471167         3    ;  uncertainty k = 0.284404
        21        20        23        27     9      180.000000       -0.438739         4    ;  uncertainty k = 0.307571
        21        20        23        37     9        0.000000        7.742561         1    ;  uncertainty k = 0.542432
        21        20        23        37     9      180.000000        0.817032         2    ;  uncertainty k = 0.601843
        21        20        23        37     9        0.000000       -0.341365         3    ;  uncertainty k = 0.236569
        21        20        23        37     9      180.000000       -0.065473         4    ;  uncertainty k = 0.229105
        22        20        23        27     9        0.000000        1.892512         1    ;  uncertainty k = 1.262370
        22        20        23        27     9      180.000000        3.623180         2    ;  uncertainty k = 0.729496
        22        20        23        27     9        0.000000        1.471167         3    ;  uncertainty k = 0.284404
        22        20        23        27     9      180.000000       -0.438739         4    ;  uncertainty k = 0.307571
        22        20        23        37     9        0.000000        7.742561         1    ;  uncertainty k = 0.542432
        22        20        23        37     9      180.000000        0.817032         2    ;  uncertainty k = 0.601843
        22        20        23        37     9        0.000000       -0.341365         3    ;  uncertainty k = 0.236569
        22        20        23        37     9      180.000000       -0.065473         4    ;  uncertainty k = 0.229105
        24         3         2        29     9        0.000000        0.285295         1    ;  uncertainty k = 0.312518
        24         3         2        29     9      180.000000       -0.571825         2    ;  uncertainty k = 0.320476
        24         3         2        29     9        0.000000        0.725217         3    ;  uncertainty k = 0.185310
        24         3         2        29     9      180.000000        0.076517         4    ;  uncertainty k = 0.139185
        24         3         4        30     9        0.000000        0.273366         1    ;  uncertainty k = 0.288472
        24         3         4        30     9      180.000000       -0.700450         2    ;  uncertainty k = 0.314491
        24         3         4        30     9        0.000000        0.866669         3    ;  uncertainty k = 0.217754
        24         3         4        30     9      180.000000        0.036836         4    ;  uncertainty k = 0.054095
        24         3         4        31     9        0.000000        0.273367         1    ;  uncertainty k = 0.288473
        24         3         4        31     9      180.000000       -0.700448         2    ;  uncertainty k = 0.314492
        24         3         4        31     9        0.000000        0.866670         3    ;  uncertainty k = 0.217754
        24         3         4        31     9      180.000000        0.036836         4    ;  uncertainty k = 0.054095
        25         3         2        29     9        0.000000        0.285295         1    ;  uncertainty k = 0.312518
        25         3         2        29     9      180.000000       -0.571825         2    ;  uncertainty k = 0.320476
        25         3         2        29     9        0.000000        0.725217         3    ;  uncertainty k = 0.185310
        25         3         2        29     9      180.000000        0.076517         4    ;  uncertainty k = 0.139185
        25         3         4        30     9        0.000000        0.273366         1    ;  uncertainty k = 0.288472
        25         3         4        30     9      180.000000       -0.700450         2    ;  uncertainty k = 0.314491
        25         3         4        30     9        0.000000        0.866669         3    ;  uncertainty k = 0.217754
        25         3         4        30     9      180.000000        0.036836         4    ;  uncertainty k = 0.054095
        25         3         4        31     9        0.000000        0.273367         1    ;  uncertainty k = 0.288473
        25         3         4        31     9      180.000000       -0.700448         2    ;  uncertainty k = 0.314492
        25         3         4        31     9        0.000000        0.866670         3    ;  uncertainty k = 0.217754
        25         3         4        31     9      180.000000        0.036836         4    ;  uncertainty k = 0.054095
        28         1         2        29     9        0.000000       11.884370         1    ;  uncertainty k = 0.695044
        28         1         2        29     9      180.000000       -0.803357         2    ;  uncertainty k = 0.319713
        28         1         2        29     9        0.000000        0.795568         3    ;  uncertainty k = 0.210217
        28         1         2        29     9      180.000000        0.187424         4    ;  uncertainty k = 0.128652
        32         8         9        33     9        0.000000       -0.236589         1    ;  uncertainty k = 0.475764
        32         8         9        33     9      180.000000        7.325131         2    ;  uncertainty k = 0.421253
        32         8         9        33     9        0.000000       -0.311948         3    ;  uncertainty k = 0.292859
        32         8         9        33     9      180.000000        0.288288         4    ;  uncertainty k = 0.098490
        37        23        27        38     9        0.000000        2.715908         1    ;  uncertainty k = 0.904677
        37        23        27        38     9      180.000000       -3.829325         2    ;  uncertainty k = 0.590576
        37        23        27        38     9        0.000000        0.980192         3    ;  uncertainty k = 0.198228
        37        23        27        38     9      180.000000        0.280107         4    ;  uncertainty k = 0.112497
        37        23        27        39     9        0.000000        2.715908         1    ;  uncertainty k = 0.904677
        37        23        27        39     9      180.000000       -3.829325         2    ;  uncertainty k = 0.590576
        37        23        27        39     9        0.000000        0.980192         3    ;  uncertainty k = 0.198228
        37        23        27        39     9      180.000000        0.280107         4    ;  uncertainty k = 0.112497
        37        23        27        40     9        0.000000        2.715908         1    ;  uncertainty k = 0.904677
        37        23        27        40     9      180.000000       -3.829325         2    ;  uncertainty k = 0.590576
        37        23        27        40     9        0.000000        0.980192         3    ;  uncertainty k = 0.198228
        37        23        27        40     9      180.000000        0.280107         4    ;  uncertainty k = 0.112497

[ dihedrals ] ; impropers
;       ai        aj        ak        al funct           phase               k        pn
         5         4         6        10     4      180.000000        5.343711         2    ;  uncertainty k = 0.269810
         5         6        10         4     4      180.000000        5.343711         2    ;  uncertainty k = 0.269810
         5        10         4         6     4      180.000000        5.343711         2    ;  uncertainty k = 0.269810
         6         2         5         7     4      180.000000        5.780740         2    ;  uncertainty k = 0.142699
         6         5         7         2     4      180.000000        5.780740         2    ;  uncertainty k = 0.142699
         6         7         2         5     4      180.000000        5.780740         2    ;  uncertainty k = 0.142699
         7         6         8        20     4      180.000000        4.545567         2    ;  uncertainty k = 0.427666
         7         8        20         6     4      180.000000        4.545567         2    ;  uncertainty k = 0.427666
         7        20         6         8     4      180.000000        4.545567         2    ;  uncertainty k = 0.427666
         8         7         9        32     4      180.000000        5.061817         2    ;  uncertainty k = 0.192185
         8         9        32         7     4      180.000000        5.061817         2    ;  uncertainty k = 0.192185
         8        32         7         9     4      180.000000        5.061817         2    ;  uncertainty k = 0.192185
         9         8        10        33     4      180.000000        2.193500         2    ;  uncertainty k = 0.131375
         9        10        33         8     4      180.000000        2.193500         2    ;  uncertainty k = 0.131375
         9        33         8        10     4      180.000000        2.193500         2    ;  uncertainty k = 0.131375
        10         5         9        11     4      180.000000       17.439492         2    ;  uncertainty k = 0.107659
        10         9        11         5     4      180.000000       17.439492         2    ;  uncertainty k = 0.107659
        10        11         5         9     4      180.000000       17.439492         2    ;  uncertainty k = 0.107659
        12        11        13        19     4      180.000000       19.053422         2    ;  uncertainty k = 0.038066
        12        13        19        11     4      180.000000       19.053422         2    ;  uncertainty k = 0.038066
        12        19        11        13     4      180.000000       19.053422         2    ;  uncertainty k = 0.038066
        13        12        14        34     4      180.000000        1.848818         2    ;  uncertainty k = 0.255047
        13        14        34        12     4      180.000000        1.848818         2    ;  uncertainty k = 0.255047
        13        34        12        14     4      180.000000        1.848818         2    ;  uncertainty k = 0.255047
        14        13        15        16     4      180.000000       17.880537         2    ;  uncertainty k = 0.047509
        14        15        16        13     4      180.000000       17.880537         2    ;  uncertainty k = 0.047509
        14        16        13        15     4      180.000000       17.880537         2    ;  uncertainty k = 0.047509
        16        14        17        35     4      180.000000        2.461655         2    ;  uncertainty k = 0.340230
        16        17        35        14     4      180.000000        2.461655         2    ;  uncertainty k = 0.340230
        16        35        14        17     4      180.000000        2.461655         2    ;  uncertainty k = 0.340230
        17        16        18        19     4      180.000000       11.727372         2    ;  uncertainty k = 0.187314
        17        18        19        16     4      180.000000       11.727372         2    ;  uncertainty k = 0.187314
        17        19        16        18     4      180.000000       11.727372         2    ;  uncertainty k = 0.187314
        19        12        17        36     4      180.000000        2.852757         2    ;  uncertainty k = 0.269075
        19        17        36        12     4      180.000000        2.852757         2    ;  uncertainty k = 0.269075
        19        36        12        17     4      180.000000        2.852757         2    ;  uncertainty k = 0.269075

[ pairs ]
;       ai        aj funct
         1         4     1
         1         5     1
         1         7     1
         1        24     1
         1        25     1
         2         8     1
         2        10     1
         2        20     1
         2        30     1
         2        31     1
         3         7     1
         3        10     1
         3        28     1
         4         7     1
         4         9     1
         4        11     1
         4        29     1
         5         8     1
         5        12     1
         5        20     1
         5        24     1
         5        25     1
         5        29     1
         5        33     1
         6         9     1
         6        11     1
         6        21     1
         6        22     1
         6        23     1
         6        24     1
         6        25     1
         6        28     1
         6        30     1
         6        31     1
         6        32     1
         7        10     1
         7        27     1
         7        29     1
         7        33     1
         7        37     1
         8        11     1
         8        21     1
         8        22     1
         8        23     1
         9        12     1
         9        20     1
        10        13     1
        10        19     1
        10        30     1
        10        31     1
        10        32     1
        11        14     1
        11        17     1
        11        33     1
        11        34     1
        11        36     1
        12        15     1
        12        16     1
        12        18     1
        13        17     1
        13        35     1
        13        36     1
        14        18     1
        14        19     1
        15        17     1
        15        34     1
        15        35     1
        16        26     1
        16        34     1
        16        36     1
        18        35     1
        18        36     1
        19        26     1
        19        34     1
        19        35     1
        20        32     1
        20        38     1
        20        39     1
        20        40     1
        21        27     1
        21        37     1
        22        27     1
        22        37     1
        24        29     1
        24        30     1
        24        31     1
        25        29     1
        25        30     1
        25        31     1
        28        29     1
        32        33     1
        37        38     1
        37        39     1
        37        40     1
