; ITP file created by ByteFF-joint-25, 2026-02-17 09:18:53.752773

[ atomtypes ]
;name           bonded.type        at.num        mass        charge   ptype           sigma         epsilon
 o0bf                                   8      0.0000       0.00000       A     3.24314e-01     3.87820e-01    ;  uncertainty sigma = 0.000033, epsilon = 0.000883
 c1bf                                   6      0.0000       0.00000       A     3.39732e-01     4.50286e-01    ;  uncertainty sigma = 0.000031, epsilon = 0.001479
 c2bf                                   6      0.0000       0.00000       A     3.39804e-01     4.51139e-01    ;  uncertainty sigma = 0.000023, epsilon = 0.001153
 c3bf                                   6      0.0000       0.00000       A     3.39790e-01     4.50784e-01    ;  uncertainty sigma = 0.000016, epsilon = 0.000744
 c4bf                                   6      0.0000       0.00000       A     3.31543e-01     4.13487e-01    ;  uncertainty sigma = 0.000010, epsilon = 0.000942
 c5bf                                   6      0.0000       0.00000       A     3.31567e-01     4.12660e-01    ;  uncertainty sigma = 0.000023, epsilon = 0.001061
 c6bf                                   6      0.0000       0.00000       A     3.31517e-01     4.13091e-01    ;  uncertainty sigma = 0.000023, epsilon = 0.002635
 c7bf                                   6      0.0000       0.00000       A     3.31526e-01     4.13435e-01    ;  uncertainty sigma = 0.000007, epsilon = 0.000844
 c8bf                                   6      0.0000       0.00000       A     3.31528e-01     4.13650e-01    ;  uncertainty sigma = 0.000010, epsilon = 0.000487
 c9bf                                   6      0.0000       0.00000       A     3.31531e-01     4.13205e-01    ;  uncertainty sigma = 0.000015, epsilon = 0.000623
 o10bf                                  8      0.0000       0.00000       A     3.15544e-01     3.01948e-01    ;  uncertainty sigma = 0.000035, epsilon = 0.001551
 c11bf                                  6      0.0000       0.00000       A     3.31511e-01     4.13571e-01    ;  uncertainty sigma = 0.000010, epsilon = 0.000767
 c12bf                                  6      0.0000       0.00000       A     3.31518e-01     4.13730e-01    ;  uncertainty sigma = 0.000004, epsilon = 0.000811
 c13bf                                  6      0.0000       0.00000       A     3.31509e-01     4.13333e-01    ;  uncertainty sigma = 0.000007, epsilon = 0.000387
 f14bf                                  9      0.0000       0.00000       A     3.03415e-01     3.47926e-01    ;  uncertainty sigma = 0.000006, epsilon = 0.000734
 c15bf                                  6      0.0000       0.00000       A     3.31525e-01     4.13682e-01    ;  uncertainty sigma = 0.000009, epsilon = 0.000681
 c16bf                                  6      0.0000       0.00000       A     3.31509e-01     4.13333e-01    ;  uncertainty sigma = 0.000007, epsilon = 0.000387
 f17bf                                  9      0.0000       0.00000       A     3.03415e-01     3.47927e-01    ;  uncertainty sigma = 0.000006, epsilon = 0.000734
 c18bf                                  6      0.0000       0.00000       A     3.31518e-01     4.13730e-01    ;  uncertainty sigma = 0.000004, epsilon = 0.000811
 s19bf                                 16      0.0000       0.00000       A     4.05850e-01     2.55204e-01    ;  uncertainty sigma = 0.000020, epsilon = 0.004067
 o20bf                                  8      0.0000       0.00000       A     3.04823e-01     6.12515e-01    ;  uncertainty sigma = 0.000023, epsilon = 0.001528
 o21bf                                  8      0.0000       0.00000       A     3.04823e-01     6.12515e-01    ;  uncertainty sigma = 0.000023, epsilon = 0.001528
 n22bf                                  7      0.0000       0.00000       A     3.64926e-01     1.35405e-01    ;  uncertainty sigma = 0.000078, epsilon = 0.002837
 f23bf                                  9      0.0000       0.00000       A     3.03449e-01     3.47672e-01    ;  uncertainty sigma = 0.000012, epsilon = 0.001616
 f24bf                                  9      0.0000       0.00000       A     3.03449e-01     3.47672e-01    ;  uncertainty sigma = 0.000012, epsilon = 0.001616
 h25bf                                  1      0.0000       0.00000       A     5.38093e-02     1.93077e-02    ;  uncertainty sigma = 0.000062, epsilon = 0.000926
 h26bf                                  1      0.0000       0.00000       A     2.42326e-01     8.68827e-02    ;  uncertainty sigma = 0.000128, epsilon = 0.000858
 h27bf                                  1      0.0000       0.00000       A     2.60052e-01     8.67184e-02    ;  uncertainty sigma = 0.000035, epsilon = 0.000545
 h28bf                                  1      0.0000       0.00000       A     2.60052e-01     8.67184e-02    ;  uncertainty sigma = 0.000035, epsilon = 0.000545
 h29bf                                  1      0.0000       0.00000       A     2.62561e-01     6.72196e-02    ;  uncertainty sigma = 0.000018, epsilon = 0.000741
 h30bf                                  1      0.0000       0.00000       A     2.62556e-01     6.70855e-02    ;  uncertainty sigma = 0.000006, epsilon = 0.000381
 h31bf                                  1      0.0000       0.00000       A     2.62552e-01     6.72491e-02    ;  uncertainty sigma = 0.000007, epsilon = 0.000350
 h32bf                                  1      0.0000       0.00000       A     2.62567e-01     6.73686e-02    ;  uncertainty sigma = 0.000010, epsilon = 0.000382
 h33bf                                  1      0.0000       0.00000       A     2.62552e-01     6.72491e-02    ;  uncertainty sigma = 0.000007, epsilon = 0.000350
 h34bf                                  1      0.0000       0.00000       A     1.10687e-01     4.13796e-02    ;  uncertainty sigma = 0.000118, epsilon = 0.001002
 h35bf                                  1      0.0000       0.00000       A     1.10687e-01     4.13796e-02    ;  uncertainty sigma = 0.000118, epsilon = 0.001002

[ moleculetype ]
;name             nrexcl
 MOL                   3

[ atoms ]
;       nr            type      resi   res      atom      cgnr      charge          mass ; qtot
         1            o0bf         1   UNL        o0         1    -0.57180       15.9990 ; qtot   -0.572
         2            c1bf         1   UNL        c1         2     0.16330       12.0110 ; qtot   -0.408
         3            c2bf         1   UNL        c2         3     0.38809       12.0110 ; qtot   -0.020
         4            c3bf         1   UNL        c3         4    -0.05586       12.0110 ; qtot   -0.076
         5            c4bf         1   UNL        c4         5    -0.10166       12.0110 ; qtot   -0.178
         6            c5bf         1   UNL        c5         6     0.00768       12.0110 ; qtot   -0.170
         7            c6bf         1   UNL        c6         7    -0.23284       12.0110 ; qtot   -0.403
         8            c7bf         1   UNL        c7         8    -0.00818       12.0110 ; qtot   -0.411
         9            c8bf         1   UNL        c8         9    -0.17816       12.0110 ; qtot   -0.589
        10            c9bf         1   UNL        c9        10     0.16668       12.0110 ; qtot   -0.423
        11           o10bf         1   UNL       o10        11    -0.24833       15.9990 ; qtot   -0.671
        12           c11bf         1   UNL       c11        12     0.17398       12.0110 ; qtot   -0.497
        13           c12bf         1   UNL       c12        13    -0.21553       12.0110 ; qtot   -0.713
        14           c13bf         1   UNL       c13        14     0.18115       12.0110 ; qtot   -0.531
        15           f14bf         1   UNL       f14        15    -0.13434       18.9980 ; qtot   -0.666
        16           c15bf         1   UNL       c15        16    -0.22603       12.0110 ; qtot   -0.892
        17           c16bf         1   UNL       c16        17     0.18115       12.0110 ; qtot   -0.711
        18           f17bf         1   UNL       f17        18    -0.13434       18.9980 ; qtot   -0.845
        19           c18bf         1   UNL       c18        19    -0.21553       12.0110 ; qtot   -1.061
        20           s19bf         1   UNL       s19        20     1.19568       32.0670 ; qtot    0.135
        21           o20bf         1   UNL       o20        21    -0.59660       15.9990 ; qtot   -0.461
        22           o21bf         1   UNL       o21        22    -0.59660       15.9990 ; qtot   -1.058
        23           n22bf         1   UNL       n22        23    -0.85461       14.0070 ; qtot   -1.913
        24           f23bf         1   UNL       f23        24    -0.22758       18.9980 ; qtot   -2.140
        25           f24bf         1   UNL       f24        25    -0.22758       18.9980 ; qtot   -2.368
        26           h25bf         1   UNL       h25        26     0.41807        1.0080 ; qtot   -1.950
        27           h26bf         1   UNL       h26        27     0.09280        1.0080 ; qtot   -1.857
        28           h27bf         1   UNL       h27        28     0.09141        1.0080 ; qtot   -1.766
        29           h28bf         1   UNL       h28        29     0.09141        1.0080 ; qtot   -1.674
        30           h29bf         1   UNL       h29        30     0.16677        1.0080 ; qtot   -1.507
        31           h30bf         1   UNL       h30        31     0.15698        1.0080 ; qtot   -1.350
        32           h31bf         1   UNL       h31        32     0.17232        1.0080 ; qtot   -1.178
        33           h32bf         1   UNL       h32        33     0.17302        1.0080 ; qtot   -1.005
        34           h33bf         1   UNL       h33        34     0.17232        1.0080 ; qtot   -0.833
        35           h34bf         1   UNL       h34        35     0.41638        1.0080 ; qtot   -0.416
        36           h35bf         1   UNL       h35        36     0.41638        1.0080 ; qtot   -0.000

[ bonds ]
;       ai        aj funct               r               k
         1         2     1        0.141331   267113.056641    ;  uncertainty r = 0.000172, k = 16.485083
         1        26     1        0.097120   457921.536914    ;  uncertainty r = 0.000049, k = 2.604885
         2         3     1        0.154734   188259.634155    ;  uncertainty r = 0.000263, k = 7.032730
         2         6     1        0.151751   244035.758252    ;  uncertainty r = 0.000153, k = 23.480362
         2        27     1        0.109517   308365.728662    ;  uncertainty r = 0.000075, k = 3.129445
         3         4     1        0.153436   201677.482617    ;  uncertainty r = 0.000098, k = 9.661873
         3        24     1        0.137560   301163.370020    ;  uncertainty r = 0.000061, k = 5.585031
         3        25     1        0.137560   301163.370020    ;  uncertainty r = 0.000061, k = 5.585031
         4         5     1        0.151103   251822.635791    ;  uncertainty r = 0.000111, k = 19.730269
         4        28     1        0.109406   310072.348145    ;  uncertainty r = 0.000044, k = 1.784813
         4        29     1        0.109406   310072.348145    ;  uncertainty r = 0.000044, k = 1.784813
         5         6     1        0.139504   360168.495605    ;  uncertainty r = 0.000164, k = 20.613134
         5        10     1        0.138851   352235.443652    ;  uncertainty r = 0.000132, k = 5.267191
         6         7     1        0.139212   334115.153564    ;  uncertainty r = 0.000237, k = 15.999905
         7         8     1        0.139231   350793.388623    ;  uncertainty r = 0.000140, k = 5.493757
         7        20     1        0.178482   154871.498022    ;  uncertainty r = 0.000203, k = 20.309423
         8         9     1        0.139196   366986.903809    ;  uncertainty r = 0.000103, k = 5.304059
         8        30     1        0.108485   328628.812061    ;  uncertainty r = 0.000022, k = 1.996754
         9        10     1        0.139641   353341.047266    ;  uncertainty r = 0.000088, k = 6.953342
         9        31     1        0.108767   335998.847363    ;  uncertainty r = 0.000034, k = 1.377941
        10        11     1        0.138440   316900.307227    ;  uncertainty r = 0.000153, k = 11.466605
        11        12     1        0.137463   318925.731982    ;  uncertainty r = 0.000071, k = 4.610372
        12        13     1        0.139530   359247.474219    ;  uncertainty r = 0.000036, k = 2.166069
        12        19     1        0.139530   359247.474219    ;  uncertainty r = 0.000036, k = 2.166057
        13        14     1        0.138947   361555.364941    ;  uncertainty r = 0.000040, k = 2.077232
        13        32     1        0.108788   339427.663965    ;  uncertainty r = 0.000020, k = 1.308496
        14        15     1        0.135169   340532.475928    ;  uncertainty r = 0.000051, k = 1.928135
        14        16     1        0.139095   364995.009277    ;  uncertainty r = 0.000024, k = 1.685249
        16        17     1        0.139095   364995.009277    ;  uncertainty r = 0.000024, k = 1.685270
        16        33     1        0.108736   339313.027881    ;  uncertainty r = 0.000017, k = 0.790658
        17        18     1        0.135169   340532.475928    ;  uncertainty r = 0.000051, k = 1.928140
        17        19     1        0.138947   361555.364941    ;  uncertainty r = 0.000040, k = 2.077227
        19        34     1        0.108788   339427.663965    ;  uncertainty r = 0.000020, k = 1.308514
        20        21     1        0.148008   572633.108594    ;  uncertainty r = 0.000071, k = 6.985206
        20        22     1        0.148008   572633.108594    ;  uncertainty r = 0.000071, k = 6.985206
        20        23     1        0.173169   399710.972949    ;  uncertainty r = 0.000114, k = 17.328685
        23        35     1        0.102773   455751.495508    ;  uncertainty r = 0.000050, k = 3.119897
        23        36     1        0.102773   455751.495508    ;  uncertainty r = 0.000050, k = 3.119897

[ angles ]
;       ai        aj        ak funct           theta             cth
         1         2         3     1      107.403610      630.358008    ;  uncertainty theta = 0.009066, k = 0.257815
         1         2         6     1      112.223778      670.577231    ;  uncertainty theta = 0.007287, k = 0.197015
         1         2        27     1      108.014236      441.995683    ;  uncertainty theta = 0.008433, k = 0.201993
         2         1        26     1      107.346542      458.138615    ;  uncertainty theta = 0.001499, k = 0.125841
         2         3         4     1      111.108292      610.592860    ;  uncertainty theta = 0.003859, k = 0.275914
         2         3        24     1      109.526100      594.826568    ;  uncertainty theta = 0.003297, k = 0.153738
         2         3        25     1      109.526100      594.826568    ;  uncertainty theta = 0.003297, k = 0.153738
         2         6         5     1      115.503159      513.618496    ;  uncertainty theta = 0.004851, k = 0.170826
         2         6         7     1      124.756760      357.490323    ;  uncertainty theta = 0.004950, k = 0.158665
         3         2         6     1      104.657921      716.061058    ;  uncertainty theta = 0.005518, k = 0.234399
         3         2        27     1      107.091957      385.050770    ;  uncertainty theta = 0.005339, k = 0.207737
         3         4         5     1      103.984230      709.792974    ;  uncertainty theta = 0.005273, k = 0.355621
         3         4        28     1      107.225937      380.179694    ;  uncertainty theta = 0.002622, k = 0.088553
         3         4        29     1      107.225937      380.179694    ;  uncertainty theta = 0.002622, k = 0.088553
         4         3        24     1      111.588036      659.455501    ;  uncertainty theta = 0.002894, k = 0.086543
         4         3        25     1      111.588036      659.455501    ;  uncertainty theta = 0.002894, k = 0.086543
         4         5         6     1      115.246727      534.762137    ;  uncertainty theta = 0.005085, k = 0.053225
         4         5        10     1      125.815269      387.639722    ;  uncertainty theta = 0.005842, k = 0.178311
         5         4        28     1      110.513512      379.665504    ;  uncertainty theta = 0.002497, k = 0.111777
         5         4        29     1      110.513512      379.665504    ;  uncertainty theta = 0.002497, k = 0.111777
         5         6         7     1      121.487137      421.271073    ;  uncertainty theta = 0.008819, k = 0.292195
         5        10         9     1      120.286942      382.355807    ;  uncertainty theta = 0.004635, k = 0.209710
         5        10        11     1      117.968384      403.798647    ;  uncertainty theta = 0.007628, k = 0.373711
         6         2        27     1      109.782753      378.186778    ;  uncertainty theta = 0.005231, k = 0.186098
         6         5        10     1      119.469116      418.344904    ;  uncertainty theta = 0.002892, k = 0.154067
         6         7         8     1      122.922462      447.094773    ;  uncertainty theta = 0.007495, k = 0.186230
         6         7        20     1      116.334671      352.949506    ;  uncertainty theta = 0.011972, k = 0.270145
         7         8         9     1      121.446327      496.034536    ;  uncertainty theta = 0.008216, k = 0.086765
         7         8        30     1      118.805092      260.903246    ;  uncertainty theta = 0.003055, k = 0.101798
         7        20        21     1      115.093407      533.790769    ;  uncertainty theta = 0.007610, k = 0.159586
         7        20        22     1      115.093407      533.790769    ;  uncertainty theta = 0.007610, k = 0.159586
         7        20        23     1      107.823608      680.188250    ;  uncertainty theta = 0.008680, k = 0.150613
         8         7        20     1      116.137680      348.715198    ;  uncertainty theta = 0.009109, k = 0.160165
         8         9        10     1      120.022972      510.533613    ;  uncertainty theta = 0.002133, k = 0.040703
         8         9        31     1      120.243324      276.878447    ;  uncertainty theta = 0.001470, k = 0.039101
         9         8        30     1      120.535400      282.436918    ;  uncertainty theta = 0.002765, k = 0.064900
         9        10        11     1      120.702377      434.244755    ;  uncertainty theta = 0.002684, k = 0.227304
        10         9        31     1      120.210915      275.478248    ;  uncertainty theta = 0.002309, k = 0.085237
        10        11        12     1      112.830063      473.152648    ;  uncertainty theta = 0.002377, k = 0.139998
        11        12        13     1      119.162613      420.809235    ;  uncertainty theta = 0.003695, k = 0.065402
        11        12        19     1      119.162613      420.809267    ;  uncertainty theta = 0.003695, k = 0.065401
        12        13        14     1      116.673340      503.115370    ;  uncertainty theta = 0.002511, k = 0.145406
        12        13        32     1      121.876328      273.916270    ;  uncertainty theta = 0.002382, k = 0.081280
        12        19        17     1      116.673340      503.115370    ;  uncertainty theta = 0.002511, k = 0.145406
        12        19        34     1      121.876328      273.916302    ;  uncertainty theta = 0.002382, k = 0.081280
        13        12        19     1      122.797623      387.741647    ;  uncertainty theta = 0.004027, k = 0.167872
        13        14        15     1      118.466934      493.794836    ;  uncertainty theta = 0.001910, k = 0.039540
        13        14        16     1      124.053566      371.417528    ;  uncertainty theta = 0.005120, k = 0.173620
        14        13        32     1      121.727890      284.014346    ;  uncertainty theta = 0.001918, k = 0.032736
        14        16        17     1      115.264389      471.325404    ;  uncertainty theta = 0.002949, k = 0.194271
        14        16        33     1      122.279922      279.016095    ;  uncertainty theta = 0.002258, k = 0.062816
        15        14        16     1      118.556541      504.699182    ;  uncertainty theta = 0.002808, k = 0.033772
        16        17        18     1      118.556541      504.699182    ;  uncertainty theta = 0.002808, k = 0.033772
        16        17        19     1      124.053566      371.417497    ;  uncertainty theta = 0.005120, k = 0.173620
        17        16        33     1      122.279922      279.016095    ;  uncertainty theta = 0.002258, k = 0.062816
        17        19        34     1      121.727890      284.014346    ;  uncertainty theta = 0.001918, k = 0.032736
        18        17        19     1      118.466934      493.794804    ;  uncertainty theta = 0.001910, k = 0.039540
        20        23        35     1      115.937195      479.911938    ;  uncertainty theta = 0.001943, k = 0.084465
        20        23        36     1      115.937195      479.911938    ;  uncertainty theta = 0.001943, k = 0.084465
        21        20        22     1      126.189552      821.384141    ;  uncertainty theta = 0.006195, k = 0.054353
        21        20        23     1      116.329086     1125.200408    ;  uncertainty theta = 0.003385, k = 0.071601
        22        20        23     1      116.329086     1125.200408    ;  uncertainty theta = 0.003385, k = 0.071601
        24         3        25     1      107.133301      788.630883    ;  uncertainty theta = 0.004222, k = 0.140640
        28         4        29     1      105.669456      291.017323    ;  uncertainty theta = 0.002858, k = 0.056928
        35        23        36     1      109.758423      338.498375    ;  uncertainty theta = 0.004066, k = 0.117683

[ dihedrals ] ; propers for gromacs 4.5 or higher, use funct 9
;       ai        aj        ak        al funct           phase               k        pn
         1         2         3         4     9        0.000000       -2.627646         1    ;  uncertainty k = 0.983996
         1         2         3         4     9      180.000000        1.655303         2    ;  uncertainty k = 0.535648
         1         2         3         4     9        0.000000        1.030511         3    ;  uncertainty k = 0.317267
         1         2         3         4     9      180.000000        0.047511         4    ;  uncertainty k = 0.272384
         1         2         3        24     9        0.000000       -0.269207         1    ;  uncertainty k = 1.403673
         1         2         3        24     9      180.000000        0.304235         2    ;  uncertainty k = 0.719898
         1         2         3        24     9        0.000000        1.458628         3    ;  uncertainty k = 0.375591
         1         2         3        24     9      180.000000        0.088981         4    ;  uncertainty k = 0.256701
         1         2         3        25     9        0.000000       -0.269207         1    ;  uncertainty k = 1.403673
         1         2         3        25     9      180.000000        0.304235         2    ;  uncertainty k = 0.719898
         1         2         3        25     9        0.000000        1.458628         3    ;  uncertainty k = 0.375591
         1         2         3        25     9      180.000000        0.088981         4    ;  uncertainty k = 0.256701
         1         2         6         5     9        0.000000       -4.408925         1    ;  uncertainty k = 2.618699
         1         2         6         5     9      180.000000        4.979468         2    ;  uncertainty k = 1.197667
         1         2         6         5     9        0.000000        1.118194         3    ;  uncertainty k = 0.728884
         1         2         6         5     9      180.000000        0.596059         4    ;  uncertainty k = 0.242404
         1         2         6         7     9        0.000000       -1.367036         1    ;  uncertainty k = 1.772866
         1         2         6         7     9      180.000000        3.529994         2    ;  uncertainty k = 0.348813
         1         2         6         7     9        0.000000       -0.135221         3    ;  uncertainty k = 0.300332
         1         2         6         7     9      180.000000        0.511346         4    ;  uncertainty k = 0.189690
         2         3         4         5     9        0.000000       -0.339598         1    ;  uncertainty k = 1.881083
         2         3         4         5     9      180.000000        1.948003         2    ;  uncertainty k = 0.604235
         2         3         4         5     9        0.000000        0.001289         3    ;  uncertainty k = 0.524600
         2         3         4         5     9      180.000000       -0.168933         4    ;  uncertainty k = 0.381813
         2         3         4        28     9        0.000000       -0.266514         1    ;  uncertainty k = 0.277694
         2         3         4        28     9      180.000000       -0.223030         2    ;  uncertainty k = 0.652619
         2         3         4        28     9        0.000000        0.002221         3    ;  uncertainty k = 0.216428
         2         3         4        28     9      180.000000       -0.025185         4    ;  uncertainty k = 0.190587
         2         3         4        29     9        0.000000       -0.266514         1    ;  uncertainty k = 0.277694
         2         3         4        29     9      180.000000       -0.223030         2    ;  uncertainty k = 0.652619
         2         3         4        29     9        0.000000        0.002221         3    ;  uncertainty k = 0.216428
         2         3         4        29     9      180.000000       -0.025185         4    ;  uncertainty k = 0.190587
         2         6         5         4     9        0.000000        0.564456         1    ;  uncertainty k = 0.645073
         2         6         5         4     9      180.000000       11.990522         2    ;  uncertainty k = 0.628037
         2         6         5         4     9        0.000000       -0.481186         3    ;  uncertainty k = 0.906845
         2         6         5         4     9      180.000000        1.194612         4    ;  uncertainty k = 0.296899
         2         6         5        10     9        0.000000        0.576015         1    ;  uncertainty k = 0.550739
         2         6         5        10     9      180.000000        8.762035         2    ;  uncertainty k = 0.367544
         2         6         5        10     9        0.000000        0.707480         3    ;  uncertainty k = 0.266070
         2         6         5        10     9      180.000000        1.263319         4    ;  uncertainty k = 0.178174
         2         6         7         8     9        0.000000        0.319649         1    ;  uncertainty k = 0.478743
         2         6         7         8     9      180.000000        6.425545         2    ;  uncertainty k = 0.463280
         2         6         7         8     9        0.000000        1.261082         3    ;  uncertainty k = 0.299462
         2         6         7         8     9      180.000000        1.642217         4    ;  uncertainty k = 0.151019
         2         6         7        20     9        0.000000        0.096035         1    ;  uncertainty k = 0.866484
         2         6         7        20     9      180.000000        7.073461         2    ;  uncertainty k = 0.459631
         2         6         7        20     9        0.000000        1.076035         3    ;  uncertainty k = 0.108140
         2         6         7        20     9      180.000000        1.186093         4    ;  uncertainty k = 0.170322
         3         2         1        26     9        0.000000       13.899418         1    ;  uncertainty k = 0.480946
         3         2         1        26     9      180.000000       -4.518750         2    ;  uncertainty k = 0.286306
         3         2         1        26     9        0.000000        1.011957         3    ;  uncertainty k = 0.239984
         3         2         1        26     9      180.000000        0.090569         4    ;  uncertainty k = 0.079063
         3         2         6         5     9        0.000000       -0.434008         1    ;  uncertainty k = 2.039508
         3         2         6         5     9      180.000000        8.654997         2    ;  uncertainty k = 1.013135
         3         2         6         5     9        0.000000       -1.038299         3    ;  uncertainty k = 0.500843
         3         2         6         5     9      180.000000        0.865064         4    ;  uncertainty k = 0.273293
         3         2         6         7     9        0.000000       -1.454541         1    ;  uncertainty k = 1.554650
         3         2         6         7     9      180.000000        3.518317         2    ;  uncertainty k = 0.672980
         3         2         6         7     9        0.000000        0.176215         3    ;  uncertainty k = 0.350851
         3         2         6         7     9      180.000000        0.663493         4    ;  uncertainty k = 0.200699
         3         4         5         6     9        0.000000       -2.204508         1    ;  uncertainty k = 1.772951
         3         4         5         6     9      180.000000        9.470118         2    ;  uncertainty k = 0.528250
         3         4         5         6     9        0.000000       -1.775390         3    ;  uncertainty k = 0.396027
         3         4         5         6     9      180.000000        0.946509         4    ;  uncertainty k = 0.088708
         3         4         5        10     9        0.000000       -0.403139         1    ;  uncertainty k = 0.755686
         3         4         5        10     9      180.000000        2.382150         2    ;  uncertainty k = 0.537141
         3         4         5        10     9        0.000000        0.124312         3    ;  uncertainty k = 0.233877
         3         4         5        10     9      180.000000        0.634495         4    ;  uncertainty k = 0.118174
         4         3         2         6     9        0.000000       -0.190340         1    ;  uncertainty k = 1.769685
         4         3         2         6     9      180.000000        1.227381         2    ;  uncertainty k = 0.611819
         4         3         2         6     9        0.000000        0.110823         3    ;  uncertainty k = 0.279090
         4         3         2         6     9      180.000000       -0.068104         4    ;  uncertainty k = 0.284627
         4         3         2        27     9        0.000000       -0.813798         1    ;  uncertainty k = 0.616105
         4         3         2        27     9      180.000000        0.445885         2    ;  uncertainty k = 0.553315
         4         3         2        27     9        0.000000        0.140775         3    ;  uncertainty k = 0.274254
         4         3         2        27     9      180.000000       -0.112167         4    ;  uncertainty k = 0.222826
         4         5         6         7     9        0.000000        0.220009         1    ;  uncertainty k = 0.747089
         4         5         6         7     9      180.000000        8.537724         2    ;  uncertainty k = 0.574565
         4         5         6         7     9        0.000000        0.744175         3    ;  uncertainty k = 0.399795
         4         5         6         7     9      180.000000        1.197679         4    ;  uncertainty k = 0.224238
         4         5        10         9     9        0.000000        0.519227         1    ;  uncertainty k = 0.339007
         4         5        10         9     9      180.000000        6.371380         2    ;  uncertainty k = 0.300120
         4         5        10         9     9        0.000000        1.309943         3    ;  uncertainty k = 0.271046
         4         5        10         9     9      180.000000        1.610695         4    ;  uncertainty k = 0.315993
         4         5        10        11     9        0.000000       -0.256270         1    ;  uncertainty k = 0.641127
         4         5        10        11     9      180.000000        8.887746         2    ;  uncertainty k = 0.270705
         4         5        10        11     9        0.000000        1.040819         3    ;  uncertainty k = 0.235548
         4         5        10        11     9      180.000000        1.264853         4    ;  uncertainty k = 0.164867
         5         4         3        24     9        0.000000       -0.911078         1    ;  uncertainty k = 0.917515
         5         4         3        24     9      180.000000        0.752361         2    ;  uncertainty k = 0.486248
         5         4         3        24     9        0.000000        1.122840         3    ;  uncertainty k = 0.305845
         5         4         3        24     9      180.000000        0.249147         4    ;  uncertainty k = 0.039650
         5         4         3        25     9        0.000000       -0.911078         1    ;  uncertainty k = 0.917515
         5         4         3        25     9      180.000000        0.752361         2    ;  uncertainty k = 0.486248
         5         4         3        25     9        0.000000        1.122840         3    ;  uncertainty k = 0.305845
         5         4         3        25     9      180.000000        0.249147         4    ;  uncertainty k = 0.039650
         5         6         2        27     9        0.000000       -0.858782         1    ;  uncertainty k = 0.652170
         5         6         2        27     9      180.000000        3.204560         2    ;  uncertainty k = 0.681873
         5         6         2        27     9        0.000000        0.809312         3    ;  uncertainty k = 0.147911
         5         6         2        27     9      180.000000        0.240567         4    ;  uncertainty k = 0.140375
         5         6         7         8     9        0.000000       -0.329771         1    ;  uncertainty k = 0.521927
         5         6         7         8     9      180.000000        9.911972         2    ;  uncertainty k = 0.404101
         5         6         7         8     9        0.000000       -0.600215         3    ;  uncertainty k = 0.420251
         5         6         7         8     9      180.000000        0.918511         4    ;  uncertainty k = 0.225240
         5         6         7        20     9        0.000000        0.285842         1    ;  uncertainty k = 0.688920
         5         6         7        20     9      180.000000        7.915559         2    ;  uncertainty k = 0.650679
         5         6         7        20     9        0.000000        1.419796         3    ;  uncertainty k = 0.519204
         5         6         7        20     9      180.000000        1.626759         4    ;  uncertainty k = 0.177543
         5        10         9         8     9        0.000000        0.281863         1    ;  uncertainty k = 0.241440
         5        10         9         8     9      180.000000        9.093976         2    ;  uncertainty k = 0.375047
         5        10         9         8     9        0.000000        0.225196         3    ;  uncertainty k = 0.432097
         5        10         9         8     9      180.000000        1.298955         4    ;  uncertainty k = 0.307568
         5        10         9        31     9        0.000000        0.163593         1    ;  uncertainty k = 0.321307
         5        10         9        31     9      180.000000        6.812893         2    ;  uncertainty k = 0.514561
         5        10         9        31     9        0.000000        1.359595         3    ;  uncertainty k = 0.499613
         5        10         9        31     9      180.000000        1.598205         4    ;  uncertainty k = 0.111732
         5        10        11        12     9        0.000000        4.495223         1    ;  uncertainty k = 0.771410
         5        10        11        12     9      180.000000        5.021101         2    ;  uncertainty k = 0.392890
         5        10        11        12     9        0.000000        0.757612         3    ;  uncertainty k = 0.066439
         5        10        11        12     9      180.000000        0.128923         4    ;  uncertainty k = 0.086641
         6         2         1        26     9        0.000000       14.588495         1    ;  uncertainty k = 0.337989
         6         2         1        26     9      180.000000       -3.787092         2    ;  uncertainty k = 0.575264
         6         2         1        26     9        0.000000        1.038268         3    ;  uncertainty k = 0.190840
         6         2         1        26     9      180.000000        0.068243         4    ;  uncertainty k = 0.054163
         6         2         3        24     9        0.000000        0.117922         1    ;  uncertainty k = 0.939269
         6         2         3        24     9      180.000000        0.554448         2    ;  uncertainty k = 0.975036
         6         2         3        24     9        0.000000        0.941155         3    ;  uncertainty k = 0.197274
         6         2         3        24     9      180.000000        0.255705         4    ;  uncertainty k = 0.049184
         6         2         3        25     9        0.000000        0.117922         1    ;  uncertainty k = 0.939269
         6         2         3        25     9      180.000000        0.554448         2    ;  uncertainty k = 0.975036
         6         2         3        25     9        0.000000        0.941155         3    ;  uncertainty k = 0.197274
         6         2         3        25     9      180.000000        0.255705         4    ;  uncertainty k = 0.049184
         6         5         4        28     9        0.000000       -0.248640         1    ;  uncertainty k = 0.356651
         6         5         4        28     9      180.000000        1.733790         2    ;  uncertainty k = 0.342890
         6         5         4        28     9        0.000000        0.270458         3    ;  uncertainty k = 0.117753
         6         5         4        28     9      180.000000        0.232448         4    ;  uncertainty k = 0.106051
         6         5         4        29     9        0.000000       -0.248640         1    ;  uncertainty k = 0.356651
         6         5         4        29     9      180.000000        1.733790         2    ;  uncertainty k = 0.342890
         6         5         4        29     9        0.000000        0.270458         3    ;  uncertainty k = 0.117753
         6         5         4        29     9      180.000000        0.232448         4    ;  uncertainty k = 0.106051
         6         5        10         9     9        0.000000       -0.202364         1    ;  uncertainty k = 0.217783
         6         5        10         9     9      180.000000        8.280665         2    ;  uncertainty k = 0.536249
         6         5        10         9     9        0.000000       -0.460969         3    ;  uncertainty k = 0.473926
         6         5        10         9     9      180.000000        1.067462         4    ;  uncertainty k = 0.288964
         6         5        10        11     9        0.000000        0.020444         1    ;  uncertainty k = 0.285733
         6         5        10        11     9      180.000000        9.670177         2    ;  uncertainty k = 0.292850
         6         5        10        11     9        0.000000        1.386594         3    ;  uncertainty k = 0.272604
         6         5        10        11     9      180.000000        1.518323         4    ;  uncertainty k = 0.176494
         6         7         8         9     9        0.000000       -0.182354         1    ;  uncertainty k = 0.406608
         6         7         8         9     9      180.000000       10.200973         2    ;  uncertainty k = 0.555830
         6         7         8         9     9        0.000000       -0.297211         3    ;  uncertainty k = 0.382202
         6         7         8         9     9      180.000000        1.066258         4    ;  uncertainty k = 0.361480
         6         7         8        30     9        0.000000        0.045752         1    ;  uncertainty k = 0.328597
         6         7         8        30     9      180.000000        7.304059         2    ;  uncertainty k = 0.631657
         6         7         8        30     9        0.000000        1.247984         3    ;  uncertainty k = 0.509795
         6         7         8        30     9      180.000000        1.639064         4    ;  uncertainty k = 0.108217
         6         7        20        21     9        0.000000       -1.922249         1    ;  uncertainty k = 1.221904
         6         7        20        21     9      180.000000        0.819503         2    ;  uncertainty k = 0.657588
         6         7        20        21     9        0.000000        0.753768         3    ;  uncertainty k = 0.161786
         6         7        20        21     9      180.000000        0.068942         4    ;  uncertainty k = 0.156805
         6         7        20        22     9        0.000000       -1.922249         1    ;  uncertainty k = 1.221904
         6         7        20        22     9      180.000000        0.819503         2    ;  uncertainty k = 0.657588
         6         7        20        22     9        0.000000        0.753768         3    ;  uncertainty k = 0.161786
         6         7        20        22     9      180.000000        0.068942         4    ;  uncertainty k = 0.156805
         6         7        20        23     9        0.000000        4.631742         1    ;  uncertainty k = 1.834340
         6         7        20        23     9      180.000000        1.049046         2    ;  uncertainty k = 0.875452
         6         7        20        23     9        0.000000        0.685122         3    ;  uncertainty k = 0.400113
         6         7        20        23     9      180.000000        0.378839         4    ;  uncertainty k = 0.187818
         7         6         2        27     9        0.000000        1.257324         1    ;  uncertainty k = 1.022330
         7         6         2        27     9      180.000000        2.271143         2    ;  uncertainty k = 0.806392
         7         6         2        27     9        0.000000       -0.070965         3    ;  uncertainty k = 0.088713
         7         6         2        27     9      180.000000        0.192046         4    ;  uncertainty k = 0.158998
         7         6         5        10     9        0.000000       -0.007794         1    ;  uncertainty k = 0.690152
         7         6         5        10     9      180.000000        8.474706         2    ;  uncertainty k = 0.331433
         7         6         5        10     9        0.000000        0.093010         3    ;  uncertainty k = 0.196042
         7         6         5        10     9      180.000000        1.133588         4    ;  uncertainty k = 0.255951
         7         8         9        10     9        0.000000        0.041373         1    ;  uncertainty k = 0.378239
         7         8         9        10     9      180.000000       11.941960         2    ;  uncertainty k = 0.369612
         7         8         9        10     9        0.000000       -0.851631         3    ;  uncertainty k = 0.632346
         7         8         9        10     9      180.000000        0.922552         4    ;  uncertainty k = 0.331556
         7         8         9        31     9        0.000000       -0.056549         1    ;  uncertainty k = 0.549282
         7         8         9        31     9      180.000000        8.163090         2    ;  uncertainty k = 0.262830
         7         8         9        31     9        0.000000        1.199072         3    ;  uncertainty k = 0.243704
         7         8         9        31     9      180.000000        1.683892         4    ;  uncertainty k = 0.115578
         7        20        23        35     9        0.000000        6.235036         1    ;  uncertainty k = 0.968887
         7        20        23        35     9      180.000000       -5.757584         2    ;  uncertainty k = 0.897661
         7        20        23        35     9        0.000000        0.560813         3    ;  uncertainty k = 0.179002
         7        20        23        35     9      180.000000        0.292520         4    ;  uncertainty k = 0.181415
         7        20        23        36     9        0.000000        6.235036         1    ;  uncertainty k = 0.968887
         7        20        23        36     9      180.000000       -5.757584         2    ;  uncertainty k = 0.897661
         7        20        23        36     9        0.000000        0.560813         3    ;  uncertainty k = 0.179002
         7        20        23        36     9      180.000000        0.292520         4    ;  uncertainty k = 0.181415
         8         7        20        21     9        0.000000       -0.879535         1    ;  uncertainty k = 1.527486
         8         7        20        21     9      180.000000        1.085487         2    ;  uncertainty k = 0.685815
         8         7        20        21     9        0.000000        0.463998         3    ;  uncertainty k = 0.262265
         8         7        20        21     9      180.000000        0.000401         4    ;  uncertainty k = 0.110177
         8         7        20        22     9        0.000000       -0.879535         1    ;  uncertainty k = 1.527486
         8         7        20        22     9      180.000000        1.085487         2    ;  uncertainty k = 0.685815
         8         7        20        22     9        0.000000        0.463998         3    ;  uncertainty k = 0.262265
         8         7        20        22     9      180.000000        0.000401         4    ;  uncertainty k = 0.110177
         8         7        20        23     9        0.000000        3.960925         1    ;  uncertainty k = 1.570264
         8         7        20        23     9      180.000000        1.280625         2    ;  uncertainty k = 0.631973
         8         7        20        23     9        0.000000       -0.063230         3    ;  uncertainty k = 0.431381
         8         7        20        23     9      180.000000        0.173722         4    ;  uncertainty k = 0.105735
         8         9        10        11     9        0.000000       -0.000514         1    ;  uncertainty k = 0.256664
         8         9        10        11     9      180.000000       10.826133         2    ;  uncertainty k = 0.420879
         8         9        10        11     9        0.000000        1.452206         3    ;  uncertainty k = 0.249862
         8         9        10        11     9      180.000000        1.757477         4    ;  uncertainty k = 0.212283
         9         8         7        20     9        0.000000        0.250249         1    ;  uncertainty k = 0.255418
         9         8         7        20     9      180.000000        9.355400         2    ;  uncertainty k = 0.313514
         9         8         7        20     9        0.000000        1.431578         3    ;  uncertainty k = 0.381419
         9         8         7        20     9      180.000000        1.769174         4    ;  uncertainty k = 0.177408
         9        10        11        12     9        0.000000        5.263799         1    ;  uncertainty k = 0.304243
         9        10        11        12     9      180.000000        5.740981         2    ;  uncertainty k = 0.204085
         9        10        11        12     9        0.000000        0.387969         3    ;  uncertainty k = 0.213678
         9        10        11        12     9      180.000000        0.179367         4    ;  uncertainty k = 0.081297
        10         5         4        28     9        0.000000        0.671745         1    ;  uncertainty k = 0.182101
        10         5         4        28     9      180.000000        1.635978         2    ;  uncertainty k = 0.610116
        10         5         4        28     9        0.000000        0.148338         3    ;  uncertainty k = 0.254441
        10         5         4        28     9      180.000000        0.227750         4    ;  uncertainty k = 0.142933
        10         5         4        29     9        0.000000        0.671745         1    ;  uncertainty k = 0.182101
        10         5         4        29     9      180.000000        1.635978         2    ;  uncertainty k = 0.610116
        10         5         4        29     9        0.000000        0.148338         3    ;  uncertainty k = 0.254441
        10         5         4        29     9      180.000000        0.227750         4    ;  uncertainty k = 0.142933
        10         9         8        30     9        0.000000       -0.102022         1    ;  uncertainty k = 0.337095
        10         9         8        30     9      180.000000        7.853503         2    ;  uncertainty k = 0.153239
        10         9         8        30     9        0.000000        1.042914         3    ;  uncertainty k = 0.197569
        10         9         8        30     9      180.000000        1.707553         4    ;  uncertainty k = 0.063184
        10        11        12        13     9        0.000000        4.383487         1    ;  uncertainty k = 0.361648
        10        11        12        13     9      180.000000        5.533793         2    ;  uncertainty k = 0.200911
        10        11        12        13     9        0.000000        0.501717         3    ;  uncertainty k = 0.165450
        10        11        12        13     9      180.000000        0.147723         4    ;  uncertainty k = 0.061693
        10        11        12        19     9        0.000000        4.383488         1    ;  uncertainty k = 0.361647
        10        11        12        19     9      180.000000        5.533793         2    ;  uncertainty k = 0.200910
        10        11        12        19     9        0.000000        0.501717         3    ;  uncertainty k = 0.165451
        10        11        12        19     9      180.000000        0.147723         4    ;  uncertainty k = 0.061693
        11        10         9        31     9        0.000000       -0.042866         1    ;  uncertainty k = 0.149865
        11        10         9        31     9      180.000000        9.026456         2    ;  uncertainty k = 0.347908
        11        10         9        31     9        0.000000        0.844988         3    ;  uncertainty k = 0.233280
        11        10         9        31     9      180.000000        1.132687         4    ;  uncertainty k = 0.137115
        11        12        13        14     9        0.000000        0.072052         1    ;  uncertainty k = 0.150060
        11        12        13        14     9      180.000000       10.619269         2    ;  uncertainty k = 0.305035
        11        12        13        14     9        0.000000        1.304108         3    ;  uncertainty k = 0.154314
        11        12        13        14     9      180.000000        1.616795         4    ;  uncertainty k = 0.132282
        11        12        13        32     9        0.000000       -0.070575         1    ;  uncertainty k = 0.071484
        11        12        13        32     9      180.000000        8.196714         2    ;  uncertainty k = 0.278176
        11        12        13        32     9        0.000000        0.858407         3    ;  uncertainty k = 0.256561
        11        12        13        32     9      180.000000        1.107411         4    ;  uncertainty k = 0.104777
        11        12        19        17     9        0.000000        0.072052         1    ;  uncertainty k = 0.150061
        11        12        19        17     9      180.000000       10.619271         2    ;  uncertainty k = 0.305035
        11        12        19        17     9        0.000000        1.304108         3    ;  uncertainty k = 0.154314
        11        12        19        17     9      180.000000        1.616796         4    ;  uncertainty k = 0.132282
        11        12        19        34     9        0.000000       -0.070574         1    ;  uncertainty k = 0.071485
        11        12        19        34     9      180.000000        8.196714         2    ;  uncertainty k = 0.278175
        11        12        19        34     9        0.000000        0.858407         3    ;  uncertainty k = 0.256561
        11        12        19        34     9      180.000000        1.107412         4    ;  uncertainty k = 0.104777
        12        13        14        15     9        0.000000        0.021310         1    ;  uncertainty k = 0.082079
        12        13        14        15     9      180.000000       12.621670         2    ;  uncertainty k = 0.597171
        12        13        14        15     9        0.000000        1.514721         3    ;  uncertainty k = 0.352433
        12        13        14        15     9      180.000000        1.493583         4    ;  uncertainty k = 0.264785
        12        13        14        16     9        0.000000       -0.068499         1    ;  uncertainty k = 0.229741
        12        13        14        16     9      180.000000        9.347409         2    ;  uncertainty k = 0.435040
        12        13        14        16     9        0.000000       -0.034722         3    ;  uncertainty k = 0.546730
        12        13        14        16     9      180.000000        1.309149         4    ;  uncertainty k = 0.251917
        12        19        17        16     9        0.000000       -0.068499         1    ;  uncertainty k = 0.229740
        12        19        17        16     9      180.000000        9.347409         2    ;  uncertainty k = 0.435039
        12        19        17        16     9        0.000000       -0.034722         3    ;  uncertainty k = 0.546729
        12        19        17        16     9      180.000000        1.309149         4    ;  uncertainty k = 0.251917
        12        19        17        18     9        0.000000        0.021310         1    ;  uncertainty k = 0.082079
        12        19        17        18     9      180.000000       12.621673         2    ;  uncertainty k = 0.597171
        12        19        17        18     9        0.000000        1.514721         3    ;  uncertainty k = 0.352433
        12        19        17        18     9      180.000000        1.493583         4    ;  uncertainty k = 0.264785
        13        12        19        17     9        0.000000       -0.024646         1    ;  uncertainty k = 0.133982
        13        12        19        17     9      180.000000        9.575445         2    ;  uncertainty k = 0.511834
        13        12        19        17     9        0.000000       -0.133339         3    ;  uncertainty k = 0.552963
        13        12        19        17     9      180.000000        1.231269         4    ;  uncertainty k = 0.293001
        13        12        19        34     9        0.000000        0.187462         1    ;  uncertainty k = 0.312468
        13        12        19        34     9      180.000000        6.012783         2    ;  uncertainty k = 0.790760
        13        12        19        34     9        0.000000        1.452631         3    ;  uncertainty k = 0.400770
        13        12        19        34     9      180.000000        1.585435         4    ;  uncertainty k = 0.171144
        13        14        16        17     9        0.000000        0.012644         1    ;  uncertainty k = 0.186478
        13        14        16        17     9      180.000000        9.254012         2    ;  uncertainty k = 0.455270
        13        14        16        17     9        0.000000       -0.196366         3    ;  uncertainty k = 0.525204
        13        14        16        17     9      180.000000        1.256392         4    ;  uncertainty k = 0.239378
        13        14        16        33     9        0.000000        0.007887         1    ;  uncertainty k = 0.273454
        13        14        16        33     9      180.000000        5.748778         2    ;  uncertainty k = 0.734862
        13        14        16        33     9        0.000000        1.320563         3    ;  uncertainty k = 0.345125
        13        14        16        33     9      180.000000        1.469363         4    ;  uncertainty k = 0.139893
        14        13        12        19     9        0.000000       -0.024648         1    ;  uncertainty k = 0.133982
        14        13        12        19     9      180.000000        9.575444         2    ;  uncertainty k = 0.511833
        14        13        12        19     9        0.000000       -0.133339         3    ;  uncertainty k = 0.552962
        14        13        12        19     9      180.000000        1.231268         4    ;  uncertainty k = 0.293001
        14        16        17        18     9        0.000000       -0.084080         1    ;  uncertainty k = 0.246580
        14        16        17        18     9      180.000000       12.571784         2    ;  uncertainty k = 0.622502
        14        16        17        18     9        0.000000        1.580271         3    ;  uncertainty k = 0.300212
        14        16        17        18     9      180.000000        1.496894         4    ;  uncertainty k = 0.275368
        14        16        17        19     9        0.000000        0.012643         1    ;  uncertainty k = 0.186477
        14        16        17        19     9      180.000000        9.254013         2    ;  uncertainty k = 0.455270
        14        16        17        19     9        0.000000       -0.196366         3    ;  uncertainty k = 0.525204
        14        16        17        19     9      180.000000        1.256392         4    ;  uncertainty k = 0.239377
        15        14        13        32     9        0.000000       -0.292576         1    ;  uncertainty k = 0.229076
        15        14        13        32     9      180.000000        8.728901         2    ;  uncertainty k = 0.342947
        15        14        13        32     9        0.000000        0.836645         3    ;  uncertainty k = 0.291580
        15        14        13        32     9      180.000000        1.027813         4    ;  uncertainty k = 0.201885
        15        14        16        17     9        0.000000       -0.084081         1    ;  uncertainty k = 0.246579
        15        14        16        17     9      180.000000       12.571783         2    ;  uncertainty k = 0.622503
        15        14        16        17     9        0.000000        1.580271         3    ;  uncertainty k = 0.300211
        15        14        16        17     9      180.000000        1.496893         4    ;  uncertainty k = 0.275368
        15        14        16        33     9        0.000000       -0.235152         1    ;  uncertainty k = 0.270124
        15        14        16        33     9      180.000000        8.558982         2    ;  uncertainty k = 0.295736
        15        14        16        33     9        0.000000        0.809460         3    ;  uncertainty k = 0.314206
        15        14        16        33     9      180.000000        0.978765         4    ;  uncertainty k = 0.218612
        16        14        13        32     9        0.000000        0.084601         1    ;  uncertainty k = 0.213740
        16        14        13        32     9      180.000000        5.883624         2    ;  uncertainty k = 0.684423
        16        14        13        32     9        0.000000        1.370202         3    ;  uncertainty k = 0.375339
        16        14        13        32     9      180.000000        1.558143         4    ;  uncertainty k = 0.172439
        16        17        19        34     9        0.000000        0.084602         1    ;  uncertainty k = 0.213740
        16        17        19        34     9      180.000000        5.883622         2    ;  uncertainty k = 0.684423
        16        17        19        34     9        0.000000        1.370202         3    ;  uncertainty k = 0.375339
        16        17        19        34     9      180.000000        1.558144         4    ;  uncertainty k = 0.172438
        18        17        16        33     9        0.000000       -0.235150         1    ;  uncertainty k = 0.270124
        18        17        16        33     9      180.000000        8.558983         2    ;  uncertainty k = 0.295736
        18        17        16        33     9        0.000000        0.809459         3    ;  uncertainty k = 0.314206
        18        17        16        33     9      180.000000        0.978765         4    ;  uncertainty k = 0.218612
        18        17        19        34     9        0.000000       -0.292575         1    ;  uncertainty k = 0.229075
        18        17        19        34     9      180.000000        8.728902         2    ;  uncertainty k = 0.342947
        18        17        19        34     9        0.000000        0.836645         3    ;  uncertainty k = 0.291580
        18        17        19        34     9      180.000000        1.027813         4    ;  uncertainty k = 0.201885
        19        12        13        32     9        0.000000        0.187463         1    ;  uncertainty k = 0.312469
        19        12        13        32     9      180.000000        6.012783         2    ;  uncertainty k = 0.790760
        19        12        13        32     9        0.000000        1.452631         3    ;  uncertainty k = 0.400769
        19        12        13        32     9      180.000000        1.585435         4    ;  uncertainty k = 0.171144
        19        17        16        33     9        0.000000        0.007886         1    ;  uncertainty k = 0.273453
        19        17        16        33     9      180.000000        5.748779         2    ;  uncertainty k = 0.734863
        19        17        16        33     9        0.000000        1.320562         3    ;  uncertainty k = 0.345125
        19        17        16        33     9      180.000000        1.469363         4    ;  uncertainty k = 0.139894
        20         7         8        30     9        0.000000       -0.153373         1    ;  uncertainty k = 0.594694
        20         7         8        30     9      180.000000        6.797896         2    ;  uncertainty k = 0.292174
        20         7         8        30     9        0.000000        0.851304         3    ;  uncertainty k = 0.210825
        20         7         8        30     9      180.000000        1.112112         4    ;  uncertainty k = 0.122066
        21        20        23        35     9        0.000000       11.304793         1    ;  uncertainty k = 0.291611
        21        20        23        35     9      180.000000        2.430962         2    ;  uncertainty k = 0.667398
        21        20        23        35     9        0.000000        0.998196         3    ;  uncertainty k = 0.163982
        21        20        23        35     9      180.000000       -0.474268         4    ;  uncertainty k = 0.090593
        21        20        23        36     9        0.000000       11.304793         1    ;  uncertainty k = 0.291611
        21        20        23        36     9      180.000000        2.430962         2    ;  uncertainty k = 0.667398
        21        20        23        36     9        0.000000        0.998196         3    ;  uncertainty k = 0.163982
        21        20        23        36     9      180.000000       -0.474268         4    ;  uncertainty k = 0.090593
        22        20        23        35     9        0.000000       11.304793         1    ;  uncertainty k = 0.291611
        22        20        23        35     9      180.000000        2.430962         2    ;  uncertainty k = 0.667398
        22        20        23        35     9        0.000000        0.998196         3    ;  uncertainty k = 0.163982
        22        20        23        35     9      180.000000       -0.474268         4    ;  uncertainty k = 0.090593
        22        20        23        36     9        0.000000       11.304793         1    ;  uncertainty k = 0.291611
        22        20        23        36     9      180.000000        2.430962         2    ;  uncertainty k = 0.667398
        22        20        23        36     9        0.000000        0.998196         3    ;  uncertainty k = 0.163982
        22        20        23        36     9      180.000000       -0.474268         4    ;  uncertainty k = 0.090593
        24         3         2        27     9        0.000000        0.285295         1    ;  uncertainty k = 0.312518
        24         3         2        27     9      180.000000       -0.571825         2    ;  uncertainty k = 0.320476
        24         3         2        27     9        0.000000        0.725217         3    ;  uncertainty k = 0.185310
        24         3         2        27     9      180.000000        0.076517         4    ;  uncertainty k = 0.139185
        24         3         4        28     9        0.000000        0.273367         1    ;  uncertainty k = 0.288473
        24         3         4        28     9      180.000000       -0.700448         2    ;  uncertainty k = 0.314492
        24         3         4        28     9        0.000000        0.866670         3    ;  uncertainty k = 0.217754
        24         3         4        28     9      180.000000        0.036836         4    ;  uncertainty k = 0.054095
        24         3         4        29     9        0.000000        0.273367         1    ;  uncertainty k = 0.288473
        24         3         4        29     9      180.000000       -0.700448         2    ;  uncertainty k = 0.314492
        24         3         4        29     9        0.000000        0.866670         3    ;  uncertainty k = 0.217754
        24         3         4        29     9      180.000000        0.036836         4    ;  uncertainty k = 0.054095
        25         3         2        27     9        0.000000        0.285295         1    ;  uncertainty k = 0.312518
        25         3         2        27     9      180.000000       -0.571825         2    ;  uncertainty k = 0.320476
        25         3         2        27     9        0.000000        0.725217         3    ;  uncertainty k = 0.185310
        25         3         2        27     9      180.000000        0.076517         4    ;  uncertainty k = 0.139185
        25         3         4        28     9        0.000000        0.273367         1    ;  uncertainty k = 0.288473
        25         3         4        28     9      180.000000       -0.700448         2    ;  uncertainty k = 0.314492
        25         3         4        28     9        0.000000        0.866670         3    ;  uncertainty k = 0.217754
        25         3         4        28     9      180.000000        0.036836         4    ;  uncertainty k = 0.054095
        25         3         4        29     9        0.000000        0.273367         1    ;  uncertainty k = 0.288473
        25         3         4        29     9      180.000000       -0.700448         2    ;  uncertainty k = 0.314492
        25         3         4        29     9        0.000000        0.866670         3    ;  uncertainty k = 0.217754
        25         3         4        29     9      180.000000        0.036836         4    ;  uncertainty k = 0.054095
        26         1         2        27     9        0.000000       11.884370         1    ;  uncertainty k = 0.695044
        26         1         2        27     9      180.000000       -0.803357         2    ;  uncertainty k = 0.319713
        26         1         2        27     9        0.000000        0.795568         3    ;  uncertainty k = 0.210217
        26         1         2        27     9      180.000000        0.187424         4    ;  uncertainty k = 0.128652
        30         8         9        31     9        0.000000       -0.215969         1    ;  uncertainty k = 0.469467
        30         8         9        31     9      180.000000        7.439174         2    ;  uncertainty k = 0.414210
        30         8         9        31     9        0.000000       -0.306057         3    ;  uncertainty k = 0.257987
        30         8         9        31     9      180.000000        0.278466         4    ;  uncertainty k = 0.100507

[ dihedrals ] ; impropers
;       ai        aj        ak        al funct           phase               k        pn
         5         4         6        10     4      180.000000        5.283826         2    ;  uncertainty k = 0.306933
         5         6        10         4     4      180.000000        5.283826         2    ;  uncertainty k = 0.306933
         5        10         4         6     4      180.000000        5.283826         2    ;  uncertainty k = 0.306933
         6         2         5         7     4      180.000000        6.109973         2    ;  uncertainty k = 0.202177
         6         5         7         2     4      180.000000        6.109973         2    ;  uncertainty k = 0.202177
         6         7         2         5     4      180.000000        6.109973         2    ;  uncertainty k = 0.202177
         7         6         8        20     4      180.000000        4.599372         2    ;  uncertainty k = 0.372855
         7         8        20         6     4      180.000000        4.599372         2    ;  uncertainty k = 0.372855
         7        20         6         8     4      180.000000        4.599372         2    ;  uncertainty k = 0.372855
         8         7         9        30     4      180.000000        5.057997         2    ;  uncertainty k = 0.156292
         8         9        30         7     4      180.000000        5.057997         2    ;  uncertainty k = 0.156292
         8        30         7         9     4      180.000000        5.057997         2    ;  uncertainty k = 0.156292
         9         8        10        31     4      180.000000        2.035585         2    ;  uncertainty k = 0.047847
         9        10        31         8     4      180.000000        2.035585         2    ;  uncertainty k = 0.047847
         9        31         8        10     4      180.000000        2.035585         2    ;  uncertainty k = 0.047847
        10         5         9        11     4      180.000000       17.493266         2    ;  uncertainty k = 0.102298
        10         9        11         5     4      180.000000       17.493266         2    ;  uncertainty k = 0.102298
        10        11         5         9     4      180.000000       17.493266         2    ;  uncertainty k = 0.102298
        12        11        13        19     4      180.000000       19.463604         2    ;  uncertainty k = 0.034027
        12        13        19        11     4      180.000000       19.463604         2    ;  uncertainty k = 0.034027
        12        19        11        13     4      180.000000       19.463604         2    ;  uncertainty k = 0.034027
        13        12        14        32     4      180.000000        1.406376         2    ;  uncertainty k = 0.424044
        13        14        32        12     4      180.000000        1.406376         2    ;  uncertainty k = 0.424044
        13        32        12        14     4      180.000000        1.406376         2    ;  uncertainty k = 0.424044
        14        13        15        16     4      180.000000       18.559984         2    ;  uncertainty k = 0.051312
        14        15        16        13     4      180.000000       18.559984         2    ;  uncertainty k = 0.051312
        14        16        13        15     4      180.000000       18.559984         2    ;  uncertainty k = 0.051312
        16        14        17        33     4      180.000000        1.388756         2    ;  uncertainty k = 0.630805
        16        17        33        14     4      180.000000        1.388756         2    ;  uncertainty k = 0.630805
        16        33        14        17     4      180.000000        1.388756         2    ;  uncertainty k = 0.630805
        17        16        18        19     4      180.000000       18.559980         2    ;  uncertainty k = 0.051312
        17        18        19        16     4      180.000000       18.559980         2    ;  uncertainty k = 0.051312
        17        19        16        18     4      180.000000       18.559980         2    ;  uncertainty k = 0.051312
        19        12        17        34     4      180.000000        1.406373         2    ;  uncertainty k = 0.424048
        19        17        34        12     4      180.000000        1.406373         2    ;  uncertainty k = 0.424048
        19        34        12        17     4      180.000000        1.406373         2    ;  uncertainty k = 0.424048
        23        20        35        36     4      180.000000        0.158670         2    ;  uncertainty k = 0.354797
        23        35        36        20     4      180.000000        0.158670         2    ;  uncertainty k = 0.354797
        23        36        20        35     4      180.000000        0.158670         2    ;  uncertainty k = 0.354797

[ pairs ]
;       ai        aj funct
         1         4     1
         1         5     1
         1         7     1
         1        24     1
         1        25     1
         2         8     1
         2        10     1
         2        20     1
         2        28     1
         2        29     1
         3         7     1
         3        10     1
         3        26     1
         4         7     1
         4         9     1
         4        11     1
         4        27     1
         5         8     1
         5        12     1
         5        20     1
         5        24     1
         5        25     1
         5        27     1
         5        31     1
         6         9     1
         6        11     1
         6        21     1
         6        22     1
         6        23     1
         6        24     1
         6        25     1
         6        26     1
         6        28     1
         6        29     1
         6        30     1
         7        10     1
         7        27     1
         7        31     1
         7        35     1
         7        36     1
         8        11     1
         8        21     1
         8        22     1
         8        23     1
         9        12     1
         9        20     1
        10        13     1
        10        19     1
        10        28     1
        10        29     1
        10        30     1
        11        14     1
        11        17     1
        11        31     1
        11        32     1
        11        34     1
        12        15     1
        12        16     1
        12        18     1
        13        17     1
        13        33     1
        13        34     1
        14        18     1
        14        19     1
        15        17     1
        15        32     1
        15        33     1
        16        32     1
        16        34     1
        18        33     1
        18        34     1
        19        32     1
        19        33     1
        20        30     1
        21        35     1
        21        36     1
        22        35     1
        22        36     1
        24        27     1
        24        28     1
        24        29     1
        25        27     1
        25        28     1
        25        29     1
        26        27     1
        30        31     1
