; ITP file created by ByteFF-joint-25, 2026-02-17 09:18:42.937650

[ atomtypes ]
;name           bonded.type        at.num        mass        charge   ptype           sigma         epsilon
 o0bf                                   8      0.0000       0.00000       A     3.24325e-01     3.88453e-01    ;  uncertainty sigma = 0.000019, epsilon = 0.000810
 c1bf                                   6      0.0000       0.00000       A     3.39711e-01     4.50893e-01    ;  uncertainty sigma = 0.000027, epsilon = 0.001551
 c2bf                                   6      0.0000       0.00000       A     3.39793e-01     4.49715e-01    ;  uncertainty sigma = 0.000027, epsilon = 0.002290
 c3bf                                   6      0.0000       0.00000       A     3.39776e-01     4.51203e-01    ;  uncertainty sigma = 0.000025, epsilon = 0.001947
 c4bf                                   6      0.0000       0.00000       A     3.31539e-01     4.13678e-01    ;  uncertainty sigma = 0.000011, epsilon = 0.001858
 c5bf                                   6      0.0000       0.00000       A     3.31561e-01     4.12651e-01    ;  uncertainty sigma = 0.000025, epsilon = 0.001143
 c6bf                                   6      0.0000       0.00000       A     3.31527e-01     4.12995e-01    ;  uncertainty sigma = 0.000030, epsilon = 0.001296
 c7bf                                   6      0.0000       0.00000       A     3.31515e-01     4.13375e-01    ;  uncertainty sigma = 0.000009, epsilon = 0.000608
 c8bf                                   6      0.0000       0.00000       A     3.31529e-01     4.13680e-01    ;  uncertainty sigma = 0.000010, epsilon = 0.000500
 c9bf                                   6      0.0000       0.00000       A     3.31531e-01     4.13283e-01    ;  uncertainty sigma = 0.000020, epsilon = 0.000929
 o10bf                                  8      0.0000       0.00000       A     3.15533e-01     3.01748e-01    ;  uncertainty sigma = 0.000029, epsilon = 0.001441
 c11bf                                  6      0.0000       0.00000       A     3.31495e-01     4.13941e-01    ;  uncertainty sigma = 0.000010, epsilon = 0.001010
 c12bf                                  6      0.0000       0.00000       A     3.31520e-01     4.13586e-01    ;  uncertainty sigma = 0.000002, epsilon = 0.000805
 c13bf                                  6      0.0000       0.00000       A     3.31497e-01     4.13352e-01    ;  uncertainty sigma = 0.000008, epsilon = 0.000492
 f14bf                                  9      0.0000       0.00000       A     3.03420e-01     3.47893e-01    ;  uncertainty sigma = 0.000010, epsilon = 0.000765
 c15bf                                  6      0.0000       0.00000       A     3.31510e-01     4.13401e-01    ;  uncertainty sigma = 0.000009, epsilon = 0.000546
 c16bf                                  6      0.0000       0.00000       A     3.31508e-01     4.13715e-01    ;  uncertainty sigma = 0.000016, epsilon = 0.000826
 c17bf                                  6      0.0000       0.00000       A     3.47927e-01     6.68046e-01    ;  uncertainty sigma = 0.000023, epsilon = 0.001608
 c18bf                                  6      0.0000       0.00000       A     3.31520e-01     4.13321e-01    ;  uncertainty sigma = 0.000008, epsilon = 0.000748
 s19bf                                 16      0.0000       0.00000       A     4.05857e-01     2.55880e-01    ;  uncertainty sigma = 0.000020, epsilon = 0.001911
 o20bf                                  8      0.0000       0.00000       A     3.04791e-01     6.12049e-01    ;  uncertainty sigma = 0.000024, epsilon = 0.000962
 o21bf                                  8      0.0000       0.00000       A     3.04791e-01     6.12049e-01    ;  uncertainty sigma = 0.000024, epsilon = 0.000962
 f22bf                                  9      0.0000       0.00000       A     3.03492e-01     3.47567e-01    ;  uncertainty sigma = 0.000037, epsilon = 0.001363
 n23bf                                  7      0.0000       0.00000       A     3.27375e-01     4.59084e-01    ;  uncertainty sigma = 0.000021, epsilon = 0.000492
 f24bf                                  9      0.0000       0.00000       A     3.03507e-01     3.48788e-01    ;  uncertainty sigma = 0.000067, epsilon = 0.002725
 c25bf                                  6      0.0000       0.00000       A     3.39782e-01     4.50649e-01    ;  uncertainty sigma = 0.000005, epsilon = 0.001022
 h26bf                                  1      0.0000       0.00000       A     5.38311e-02     1.93883e-02    ;  uncertainty sigma = 0.000101, epsilon = 0.000896
 h27bf                                  1      0.0000       0.00000       A     2.42240e-01     8.62388e-02    ;  uncertainty sigma = 0.000069, epsilon = 0.000727
 h28bf                                  1      0.0000       0.00000       A     2.42222e-01     8.61769e-02    ;  uncertainty sigma = 0.000069, epsilon = 0.001221
 h29bf                                  1      0.0000       0.00000       A     2.42230e-01     8.67797e-02    ;  uncertainty sigma = 0.000071, epsilon = 0.001501
 h30bf                                  1      0.0000       0.00000       A     2.62567e-01     6.72430e-02    ;  uncertainty sigma = 0.000020, epsilon = 0.000765
 h31bf                                  1      0.0000       0.00000       A     2.62556e-01     6.70855e-02    ;  uncertainty sigma = 0.000006, epsilon = 0.000381
 h32bf                                  1      0.0000       0.00000       A     2.62552e-01     6.72491e-02    ;  uncertainty sigma = 0.000007, epsilon = 0.000350
 h33bf                                  1      0.0000       0.00000       A     2.62545e-01     6.70249e-02    ;  uncertainty sigma = 0.000017, epsilon = 0.000507
 h34bf                                  1      0.0000       0.00000       A     2.62547e-01     6.71166e-02    ;  uncertainty sigma = 0.000014, epsilon = 0.000743
 h35bf                                  1      0.0000       0.00000       A     2.42169e-01     8.68377e-02    ;  uncertainty sigma = 0.000012, epsilon = 0.000624
 h36bf                                  1      0.0000       0.00000       A     2.42169e-01     8.68377e-02    ;  uncertainty sigma = 0.000012, epsilon = 0.000623
 h37bf                                  1      0.0000       0.00000       A     2.42169e-01     8.68378e-02    ;  uncertainty sigma = 0.000012, epsilon = 0.000623

[ moleculetype ]
;name             nrexcl
 MOL                   3

[ atoms ]
;       nr            type      resi   res      atom      cgnr      charge          mass ; qtot
         1            o0bf         1   UNL        o0         1    -0.57847       15.9990 ; qtot   -0.578
         2            c1bf         1   UNL        c1         2     0.17352       12.0110 ; qtot   -0.405
         3            c2bf         1   UNL        c2         3     0.12538       12.0110 ; qtot   -0.280
         4            c3bf         1   UNL        c3         4     0.21459       12.0110 ; qtot   -0.065
         5            c4bf         1   UNL        c4         5    -0.13901       12.0110 ; qtot   -0.204
         6            c5bf         1   UNL        c5         6     0.01934       12.0110 ; qtot   -0.185
         7            c6bf         1   UNL        c6         7    -0.22938       12.0110 ; qtot   -0.414
         8            c7bf         1   UNL        c7         8    -0.00671       12.0110 ; qtot   -0.421
         9            c8bf         1   UNL        c8         9    -0.18340       12.0110 ; qtot   -0.604
        10            c9bf         1   UNL        c9        10     0.18921       12.0110 ; qtot   -0.415
        11           o10bf         1   UNL       o10        11    -0.24473       15.9990 ; qtot   -0.660
        12           c11bf         1   UNL       c11        12     0.15076       12.0110 ; qtot   -0.509
        13           c12bf         1   UNL       c12        13    -0.18271       12.0110 ; qtot   -0.692
        14           c13bf         1   UNL       c13        14     0.15843       12.0110 ; qtot   -0.533
        15           f14bf         1   UNL       f14        15    -0.12713       18.9980 ; qtot   -0.660
        16           c15bf         1   UNL       c15        16    -0.15485       12.0110 ; qtot   -0.815
        17           c16bf         1   UNL       c16        17     0.03943       12.0110 ; qtot   -0.776
        18           c17bf         1   UNL       c17        18     0.22805       12.0110 ; qtot   -0.548
        19           c18bf         1   UNL       c18        19    -0.13883       12.0110 ; qtot   -0.687
        20           s19bf         1   UNL       s19        20     1.02046       32.0670 ; qtot    0.334
        21           o20bf         1   UNL       o20        21    -0.57914       15.9990 ; qtot   -0.245
        22           o21bf         1   UNL       o21        22    -0.57914       15.9990 ; qtot   -0.824
        23           f22bf         1   UNL       f22        23    -0.22888       18.9980 ; qtot   -1.053
        24           n23bf         1   UNL       n23        24    -0.34869       14.0070 ; qtot   -1.402
        25           f24bf         1   UNL       f24        25    -0.23011       18.9980 ; qtot   -1.632
        26           c25bf         1   UNL       c25        26    -0.18581       12.0110 ; qtot   -1.818
        27           h26bf         1   UNL       h26        27     0.41580        1.0080 ; qtot   -1.402
        28           h27bf         1   UNL       h27        28     0.08819        1.0080 ; qtot   -1.314
        29           h28bf         1   UNL       h28        29     0.08634        1.0080 ; qtot   -1.227
        30           h29bf         1   UNL       h29        30     0.09240        1.0080 ; qtot   -1.135
        31           h30bf         1   UNL       h30        31     0.16421        1.0080 ; qtot   -0.971
        32           h31bf         1   UNL       h31        32     0.16041        1.0080 ; qtot   -0.810
        33           h32bf         1   UNL       h32        33     0.16858        1.0080 ; qtot   -0.642
        34           h33bf         1   UNL       h33        34     0.16624        1.0080 ; qtot   -0.476
        35           h34bf         1   UNL       h34        35     0.16647        1.0080 ; qtot   -0.309
        36           h35bf         1   UNL       h35        36     0.10307        1.0080 ; qtot   -0.206
        37           h36bf         1   UNL       h36        37     0.10307        1.0080 ; qtot   -0.103
        38           h37bf         1   UNL       h37        38     0.10304        1.0080 ; qtot   -0.000

[ bonds ]
;       ai        aj funct               r               k
         1         2     1        0.142126   254944.164355    ;  uncertainty r = 0.000198, k = 5.784555
         1        27     1        0.097132   461875.805078    ;  uncertainty r = 0.000048, k = 2.293787
         2         3     1        0.154401   194024.662134    ;  uncertainty r = 0.000140, k = 16.024887
         2         6     1        0.151905   241535.164502    ;  uncertainty r = 0.000119, k = 25.798743
         2        28     1        0.109470   308703.967676    ;  uncertainty r = 0.000072, k = 2.127029
         3         4     1        0.154018   198598.039209    ;  uncertainty r = 0.000118, k = 14.500700
         3        23     1        0.139285   296942.187988    ;  uncertainty r = 0.000253, k = 15.193179
         3        29     1        0.109359   313142.981250    ;  uncertainty r = 0.000082, k = 7.136804
         4         5     1        0.150698   251811.246240    ;  uncertainty r = 0.000111, k = 22.343513
         4        25     1        0.140588   281662.186279    ;  uncertainty r = 0.000117, k = 12.177119
         4        30     1        0.109391   311588.435254    ;  uncertainty r = 0.000075, k = 2.447077
         5         6     1        0.139242   361621.454980    ;  uncertainty r = 0.000179, k = 21.972714
         5        10     1        0.138848   351695.078418    ;  uncertainty r = 0.000211, k = 6.358722
         6         7     1        0.139202   334486.003467    ;  uncertainty r = 0.000089, k = 13.056722
         7         8     1        0.139332   348197.464844    ;  uncertainty r = 0.000156, k = 4.245578
         7        20     1        0.179297   144503.240088    ;  uncertainty r = 0.000139, k = 16.086850
         8         9     1        0.139174   367868.649121    ;  uncertainty r = 0.000089, k = 4.074319
         8        31     1        0.108504   328712.497168    ;  uncertainty r = 0.000047, k = 1.273804
         9        10     1        0.139660   352257.507715    ;  uncertainty r = 0.000118, k = 8.169359
         9        32     1        0.108746   336075.994971    ;  uncertainty r = 0.000035, k = 0.888559
        10        11     1        0.137971   319350.082129    ;  uncertainty r = 0.000203, k = 13.214243
        11        12     1        0.137336   316423.325098    ;  uncertainty r = 0.000111, k = 8.017626
        12        13     1        0.139427   359163.303906    ;  uncertainty r = 0.000040, k = 4.028925
        12        19     1        0.139179   355512.646436    ;  uncertainty r = 0.000043, k = 0.656935
        13        14     1        0.138903   360755.951270    ;  uncertainty r = 0.000040, k = 3.414912
        13        33     1        0.108801   339525.062500    ;  uncertainty r = 0.000019, k = 1.519211
        14        15     1        0.134939   340193.470801    ;  uncertainty r = 0.000095, k = 3.973496
        14        16     1        0.138772   359379.322314    ;  uncertainty r = 0.000049, k = 1.285215
        16        17     1        0.140293   363423.557715    ;  uncertainty r = 0.000073, k = 1.983955
        16        34     1        0.108643   335847.029248    ;  uncertainty r = 0.000020, k = 0.933262
        17        18     1        0.143666   316064.886230    ;  uncertainty r = 0.000041, k = 3.494324
        17        19     1        0.140042   357603.165283    ;  uncertainty r = 0.000048, k = 4.155025
        18        24     1        0.116625  1127949.809766    ;  uncertainty r = 0.000026, k = 2.900562
        19        35     1        0.108681   335495.357715    ;  uncertainty r = 0.000025, k = 1.572342
        20        21     1        0.147580   512419.056250    ;  uncertainty r = 0.000065, k = 2.863474
        20        22     1        0.147580   512419.056250    ;  uncertainty r = 0.000065, k = 2.863474
        20        26     1        0.181275   175793.094092    ;  uncertainty r = 0.000034, k = 12.187133
        26        36     1        0.109296   321460.851904    ;  uncertainty r = 0.000032, k = 1.852504
        26        37     1        0.109296   321460.851904    ;  uncertainty r = 0.000032, k = 1.852504
        26        38     1        0.109296   321460.851904    ;  uncertainty r = 0.000032, k = 1.852504

[ angles ]
;       ai        aj        ak funct           theta             cth
         1         2         3     1      109.695030      658.853144    ;  uncertainty theta = 0.004849, k = 0.170951
         1         2         6     1      112.014420      661.615940    ;  uncertainty theta = 0.005681, k = 0.181963
         1         2        28     1      107.978249      442.584089    ;  uncertainty theta = 0.006559, k = 0.114388
         2         1        27     1      107.365379      458.221866    ;  uncertainty theta = 0.002354, k = 0.087576
         2         3         4     1      108.200584      683.791792    ;  uncertainty theta = 0.003614, k = 0.145860
         2         3        23     1      109.598549      606.208713    ;  uncertainty theta = 0.004667, k = 0.106650
         2         3        29     1      109.843491      373.611294    ;  uncertainty theta = 0.002696, k = 0.101663
         2         6         5     1      115.255630      509.410236    ;  uncertainty theta = 0.005639, k = 0.252261
         2         6         7     1      125.209946      363.562633    ;  uncertainty theta = 0.003354, k = 0.119171
         3         2         6     1      104.962646      712.178715    ;  uncertainty theta = 0.003454, k = 0.269793
         3         2        28     1      107.688187      389.536012    ;  uncertainty theta = 0.002412, k = 0.130050
         3         4         5     1      105.401718      693.437796    ;  uncertainty theta = 0.002594, k = 0.268205
         3         4        25     1      109.441872      601.031894    ;  uncertainty theta = 0.003281, k = 0.063132
         3         4        30     1      109.439964      382.999916    ;  uncertainty theta = 0.002908, k = 0.160347
         4         3        23     1      109.196411      601.069369    ;  uncertainty theta = 0.002729, k = 0.092926
         4         3        29     1      109.531815      377.687463    ;  uncertainty theta = 0.002560, k = 0.094074
         4         5         6     1      114.847389      522.680882    ;  uncertainty theta = 0.007606, k = 0.174378
         4         5        10     1      125.052246      363.481999    ;  uncertainty theta = 0.003761, k = 0.238585
         5         4        25     1      111.532616      659.374484    ;  uncertainty theta = 0.003229, k = 0.374890
         5         4        30     1      111.884361      373.752131    ;  uncertainty theta = 0.001392, k = 0.135710
         5         6         7     1      121.201210      427.728930    ;  uncertainty theta = 0.006220, k = 0.254941
         5        10         9     1      120.243713      384.767435    ;  uncertainty theta = 0.004567, k = 0.217198
         5        10        11     1      117.608192      416.787427    ;  uncertainty theta = 0.005806, k = 0.272297
         6         2        28     1      109.247597      381.157542    ;  uncertainty theta = 0.003759, k = 0.191232
         6         5        10     1      120.131042      420.334883    ;  uncertainty theta = 0.004107, k = 0.206739
         6         7         8     1      122.249489      449.352668    ;  uncertainty theta = 0.006282, k = 0.127861
         6         7        20     1      117.478012      339.150561    ;  uncertainty theta = 0.007658, k = 0.215186
         7         8         9     1      121.662682      495.157464    ;  uncertainty theta = 0.005936, k = 0.057461
         7         8        31     1      118.761269      260.689883    ;  uncertainty theta = 0.002677, k = 0.120778
         7        20        21     1      113.000320      608.311247    ;  uncertainty theta = 0.003008, k = 0.247122
         7        20        22     1      113.000320      608.311247    ;  uncertainty theta = 0.003008, k = 0.247122
         7        20        26     1      104.772926      607.647090    ;  uncertainty theta = 0.001753, k = 0.039731
         8         7        20     1      117.059280      361.101175    ;  uncertainty theta = 0.006253, k = 0.158507
         8         9        10     1      120.049576      513.802204    ;  uncertainty theta = 0.001738, k = 0.074418
         8         9        32     1      120.302528      278.186266    ;  uncertainty theta = 0.001324, k = 0.049760
         9         8        31     1      120.371689      281.669401    ;  uncertainty theta = 0.002484, k = 0.066329
         9        10        11     1      120.817078      434.222697    ;  uncertainty theta = 0.004703, k = 0.190177
        10         9        32     1      120.127060      274.950970    ;  uncertainty theta = 0.002321, k = 0.058124
        10        11        12     1      112.614090      472.042422    ;  uncertainty theta = 0.002780, k = 0.062534
        11        12        13     1      118.844681      418.953804    ;  uncertainty theta = 0.002951, k = 0.060456
        11        12        19     1      119.104492      404.496640    ;  uncertainty theta = 0.003920, k = 0.053088
        12        13        14     1      117.038597      502.569227    ;  uncertainty theta = 0.003445, k = 0.110867
        12        13        33     1      121.702477      272.440034    ;  uncertainty theta = 0.003455, k = 0.132527
        12        19        17     1      118.761208      522.894787    ;  uncertainty theta = 0.001489, k = 0.068180
        12        19        35     1      120.905983      280.332437    ;  uncertainty theta = 0.002004, k = 0.062093
        13        12        19     1      122.428162      385.560203    ;  uncertainty theta = 0.005403, k = 0.175952
        13        14        15     1      118.267052      494.604714    ;  uncertainty theta = 0.001988, k = 0.058359
        13        14        16     1      123.726730      369.147375    ;  uncertainty theta = 0.006010, k = 0.127235
        14        13        33     1      121.505081      285.104493    ;  uncertainty theta = 0.003243, k = 0.069272
        14        16        17     1      117.400681      493.697380    ;  uncertainty theta = 0.001506, k = 0.173040
        14        16        34     1      121.339279      286.173157    ;  uncertainty theta = 0.003120, k = 0.038569
        15        14        16     1      118.689796      499.274046    ;  uncertainty theta = 0.003051, k = 0.052524
        16        17        18     1      119.117836      375.204905    ;  uncertainty theta = 0.002733, k = 0.097877
        16        17        19     1      122.566833      457.580470    ;  uncertainty theta = 0.002293, k = 0.135282
        17        16        34     1      121.185242      278.472122    ;  uncertainty theta = 0.003138, k = 0.095958
        17        18        24     1      180.000000      233.555922    ;  uncertainty theta = 0.000000, k = 0.675784
        17        19        35     1      120.586197      284.638441    ;  uncertainty theta = 0.004219, k = 0.089604
        18        17        19     1      118.919228      375.151182    ;  uncertainty theta = 0.002637, k = 0.097444
        20        26        36     1      107.091141      365.748673    ;  uncertainty theta = 0.000911, k = 0.032818
        20        26        37     1      107.091141      365.748673    ;  uncertainty theta = 0.000911, k = 0.032818
        20        26        38     1      107.091141      365.748673    ;  uncertainty theta = 0.000911, k = 0.032818
        21        20        22     1      123.749496      835.305888    ;  uncertainty theta = 0.001537, k = 0.034574
        21        20        26     1      112.725998      740.054959    ;  uncertainty theta = 0.002021, k = 0.038936
        22        20        26     1      112.725998      740.054959    ;  uncertainty theta = 0.002021, k = 0.038936
        23         3        29     1      108.321190      478.752681    ;  uncertainty theta = 0.003868, k = 0.181503
        25         4        30     1      107.538902      448.846172    ;  uncertainty theta = 0.002827, k = 0.119337
        36        26        37     1      108.798363      296.170520    ;  uncertainty theta = 0.002208, k = 0.021202
        36        26        38     1      108.798363      296.170520    ;  uncertainty theta = 0.002208, k = 0.021202
        37        26        38     1      108.798363      296.170520    ;  uncertainty theta = 0.002208, k = 0.021202

[ dihedrals ] ; propers for gromacs 4.5 or higher, use funct 9
;       ai        aj        ak        al funct           phase               k        pn
         1         2         3         4     9        0.000000       -2.538442         1    ;  uncertainty k = 0.543918
         1         2         3         4     9      180.000000        1.220344         2    ;  uncertainty k = 1.141394
         1         2         3         4     9        0.000000        0.737643         3    ;  uncertainty k = 0.276740
         1         2         3         4     9      180.000000        0.059593         4    ;  uncertainty k = 0.220127
         1         2         3        23     9        0.000000       -1.120481         1    ;  uncertainty k = 0.778478
         1         2         3        23     9      180.000000       -0.650680         2    ;  uncertainty k = 0.467007
         1         2         3        23     9        0.000000        1.648749         3    ;  uncertainty k = 0.593214
         1         2         3        23     9      180.000000        0.076008         4    ;  uncertainty k = 0.137321
         1         2         3        29     9        0.000000       -0.608503         1    ;  uncertainty k = 0.633734
         1         2         3        29     9      180.000000        0.788100         2    ;  uncertainty k = 0.492319
         1         2         3        29     9        0.000000        0.975949         3    ;  uncertainty k = 0.245500
         1         2         3        29     9      180.000000        0.100330         4    ;  uncertainty k = 0.076234
         1         2         6         5     9        0.000000       -3.350082         1    ;  uncertainty k = 1.127219
         1         2         6         5     9      180.000000        4.845334         2    ;  uncertainty k = 0.948611
         1         2         6         5     9        0.000000        0.846869         3    ;  uncertainty k = 0.526325
         1         2         6         5     9      180.000000        0.615679         4    ;  uncertainty k = 0.146896
         1         2         6         7     9        0.000000       -1.341502         1    ;  uncertainty k = 1.283361
         1         2         6         7     9      180.000000        3.438384         2    ;  uncertainty k = 0.180556
         1         2         6         7     9        0.000000       -0.056934         3    ;  uncertainty k = 0.214160
         1         2         6         7     9      180.000000        0.485972         4    ;  uncertainty k = 0.218121
         2         3         4         5     9        0.000000       -0.034968         1    ;  uncertainty k = 1.535344
         2         3         4         5     9      180.000000        2.133569         2    ;  uncertainty k = 0.761136
         2         3         4         5     9        0.000000       -0.311971         3    ;  uncertainty k = 0.297639
         2         3         4         5     9      180.000000       -0.362852         4    ;  uncertainty k = 0.156186
         2         3         4        25     9        0.000000       -0.882764         1    ;  uncertainty k = 0.962120
         2         3         4        25     9      180.000000        0.557163         2    ;  uncertainty k = 0.489327
         2         3         4        25     9        0.000000        0.491156         3    ;  uncertainty k = 0.146931
         2         3         4        25     9      180.000000        0.162027         4    ;  uncertainty k = 0.248080
         2         3         4        30     9        0.000000       -0.293699         1    ;  uncertainty k = 0.249338
         2         3         4        30     9      180.000000        0.152844         2    ;  uncertainty k = 0.149036
         2         3         4        30     9        0.000000       -0.091065         3    ;  uncertainty k = 0.341364
         2         3         4        30     9      180.000000       -0.132685         4    ;  uncertainty k = 0.147962
         2         6         5         4     9        0.000000        0.979972         1    ;  uncertainty k = 0.849486
         2         6         5         4     9      180.000000       11.914051         2    ;  uncertainty k = 0.877700
         2         6         5         4     9        0.000000       -0.498578         3    ;  uncertainty k = 1.066451
         2         6         5         4     9      180.000000        1.334865         4    ;  uncertainty k = 0.353582
         2         6         5        10     9        0.000000        0.554598         1    ;  uncertainty k = 0.442493
         2         6         5        10     9      180.000000        8.230321         2    ;  uncertainty k = 0.316226
         2         6         5        10     9        0.000000        0.785267         3    ;  uncertainty k = 0.294777
         2         6         5        10     9      180.000000        1.277016         4    ;  uncertainty k = 0.157649
         2         6         7         8     9        0.000000        0.285454         1    ;  uncertainty k = 0.487553
         2         6         7         8     9      180.000000        6.503054         2    ;  uncertainty k = 0.356200
         2         6         7         8     9        0.000000        1.215722         3    ;  uncertainty k = 0.223468
         2         6         7         8     9      180.000000        1.620723         4    ;  uncertainty k = 0.112539
         2         6         7        20     9        0.000000       -0.146195         1    ;  uncertainty k = 0.859936
         2         6         7        20     9      180.000000        6.809550         2    ;  uncertainty k = 0.503833
         2         6         7        20     9        0.000000        1.003884         3    ;  uncertainty k = 0.220908
         2         6         7        20     9      180.000000        1.207816         4    ;  uncertainty k = 0.177342
         3         2         1        27     9        0.000000       13.565038         1    ;  uncertainty k = 0.366878
         3         2         1        27     9      180.000000       -3.580284         2    ;  uncertainty k = 0.425701
         3         2         1        27     9        0.000000        1.135102         3    ;  uncertainty k = 0.127816
         3         2         1        27     9      180.000000        0.184934         4    ;  uncertainty k = 0.090161
         3         2         6         5     9        0.000000       -1.632827         1    ;  uncertainty k = 1.332978
         3         2         6         5     9      180.000000        9.225420         2    ;  uncertainty k = 1.186961
         3         2         6         5     9        0.000000       -1.100432         3    ;  uncertainty k = 0.304450
         3         2         6         5     9      180.000000        0.723751         4    ;  uncertainty k = 0.313362
         3         2         6         7     9        0.000000       -1.430204         1    ;  uncertainty k = 1.468965
         3         2         6         7     9      180.000000        3.420008         2    ;  uncertainty k = 0.451107
         3         2         6         7     9        0.000000        0.323250         3    ;  uncertainty k = 0.482804
         3         2         6         7     9      180.000000        0.624035         4    ;  uncertainty k = 0.196348
         3         4         5         6     9        0.000000       -2.137345         1    ;  uncertainty k = 1.411545
         3         4         5         6     9      180.000000        9.548333         2    ;  uncertainty k = 0.730526
         3         4         5         6     9        0.000000       -1.572757         3    ;  uncertainty k = 0.154903
         3         4         5         6     9      180.000000        0.750722         4    ;  uncertainty k = 0.222416
         3         4         5        10     9        0.000000       -0.993799         1    ;  uncertainty k = 1.556299
         3         4         5        10     9      180.000000        3.108872         2    ;  uncertainty k = 0.725827
         3         4         5        10     9        0.000000        0.304612         3    ;  uncertainty k = 0.267986
         3         4         5        10     9      180.000000        0.679667         4    ;  uncertainty k = 0.309546
         4         3         2         6     9        0.000000        0.167010         1    ;  uncertainty k = 0.690450
         4         3         2         6     9      180.000000        1.640611         2    ;  uncertainty k = 0.256015
         4         3         2         6     9        0.000000       -0.150210         3    ;  uncertainty k = 0.189048
         4         3         2         6     9      180.000000       -0.288892         4    ;  uncertainty k = 0.283737
         4         3         2        28     9        0.000000       -0.376347         1    ;  uncertainty k = 0.421296
         4         3         2        28     9      180.000000        0.161333         2    ;  uncertainty k = 0.359683
         4         3         2        28     9        0.000000        0.044517         3    ;  uncertainty k = 0.318367
         4         3         2        28     9      180.000000       -0.096986         4    ;  uncertainty k = 0.152412
         4         5         6         7     9        0.000000        0.241035         1    ;  uncertainty k = 0.438628
         4         5         6         7     9      180.000000        8.832496         2    ;  uncertainty k = 0.408927
         4         5         6         7     9        0.000000        0.702163         3    ;  uncertainty k = 0.442458
         4         5         6         7     9      180.000000        1.259756         4    ;  uncertainty k = 0.203332
         4         5        10         9     9        0.000000        0.322448         1    ;  uncertainty k = 0.241855
         4         5        10         9     9      180.000000        6.116325         2    ;  uncertainty k = 0.326558
         4         5        10         9     9        0.000000        1.428979         3    ;  uncertainty k = 0.285088
         4         5        10         9     9      180.000000        1.721508         4    ;  uncertainty k = 0.172585
         4         5        10        11     9        0.000000       -0.007882         1    ;  uncertainty k = 0.410288
         4         5        10        11     9      180.000000        8.470673         2    ;  uncertainty k = 0.305435
         4         5        10        11     9        0.000000        1.052386         3    ;  uncertainty k = 0.239292
         4         5        10        11     9      180.000000        1.339029         4    ;  uncertainty k = 0.111751
         5         4         3        23     9        0.000000       -0.928332         1    ;  uncertainty k = 1.657898
         5         4         3        23     9      180.000000        0.393277         2    ;  uncertainty k = 0.814607
         5         4         3        23     9        0.000000        1.106115         3    ;  uncertainty k = 0.435034
         5         4         3        23     9      180.000000        0.298449         4    ;  uncertainty k = 0.167089
         5         4         3        29     9        0.000000       -0.848554         1    ;  uncertainty k = 0.773472
         5         4         3        29     9      180.000000        0.350523         2    ;  uncertainty k = 0.563846
         5         4         3        29     9        0.000000        0.378799         3    ;  uncertainty k = 0.183132
         5         4         3        29     9      180.000000       -0.060835         4    ;  uncertainty k = 0.087377
         5         6         2        28     9        0.000000       -0.324294         1    ;  uncertainty k = 0.268822
         5         6         2        28     9      180.000000        3.195328         2    ;  uncertainty k = 0.579106
         5         6         2        28     9        0.000000        0.611743         3    ;  uncertainty k = 0.148662
         5         6         2        28     9      180.000000        0.241857         4    ;  uncertainty k = 0.130777
         5         6         7         8     9        0.000000       -0.323344         1    ;  uncertainty k = 0.401879
         5         6         7         8     9      180.000000        9.784653         2    ;  uncertainty k = 0.518070
         5         6         7         8     9        0.000000       -0.580474         3    ;  uncertainty k = 0.311899
         5         6         7         8     9      180.000000        0.902073         4    ;  uncertainty k = 0.225077
         5         6         7        20     9        0.000000        0.551657         1    ;  uncertainty k = 1.001080
         5         6         7        20     9      180.000000        7.775281         2    ;  uncertainty k = 0.735390
         5         6         7        20     9        0.000000        1.572106         3    ;  uncertainty k = 0.614018
         5         6         7        20     9      180.000000        1.683876         4    ;  uncertainty k = 0.182261
         5        10         9         8     9        0.000000        0.279574         1    ;  uncertainty k = 0.375235
         5        10         9         8     9      180.000000        8.831698         2    ;  uncertainty k = 0.575464
         5        10         9         8     9        0.000000        0.260123         3    ;  uncertainty k = 0.446588
         5        10         9         8     9      180.000000        1.337884         4    ;  uncertainty k = 0.331536
         5        10         9        32     9        0.000000        0.152345         1    ;  uncertainty k = 0.409033
         5        10         9        32     9      180.000000        6.886201         2    ;  uncertainty k = 0.565313
         5        10         9        32     9        0.000000        1.330656         3    ;  uncertainty k = 0.530933
         5        10         9        32     9      180.000000        1.609124         4    ;  uncertainty k = 0.158504
         5        10        11        12     9        0.000000        3.909173         1    ;  uncertainty k = 0.659265
         5        10        11        12     9      180.000000        5.443124         2    ;  uncertainty k = 0.528527
         5        10        11        12     9        0.000000        0.520024         3    ;  uncertainty k = 0.123030
         5        10        11        12     9      180.000000        0.182719         4    ;  uncertainty k = 0.031880
         6         2         1        27     9        0.000000       14.607963         1    ;  uncertainty k = 0.473733
         6         2         1        27     9      180.000000       -4.129204         2    ;  uncertainty k = 0.686758
         6         2         1        27     9        0.000000        1.015702         3    ;  uncertainty k = 0.158476
         6         2         1        27     9      180.000000        0.050919         4    ;  uncertainty k = 0.046880
         6         2         3        23     9        0.000000       -0.468455         1    ;  uncertainty k = 1.402728
         6         2         3        23     9      180.000000       -0.011999         2    ;  uncertainty k = 0.658889
         6         2         3        23     9        0.000000        1.086819         3    ;  uncertainty k = 0.340668
         6         2         3        23     9      180.000000        0.296156         4    ;  uncertainty k = 0.101060
         6         2         3        29     9        0.000000       -0.852834         1    ;  uncertainty k = 0.687214
         6         2         3        29     9      180.000000        0.301181         2    ;  uncertainty k = 0.553031
         6         2         3        29     9        0.000000        0.433779         3    ;  uncertainty k = 0.202316
         6         2         3        29     9      180.000000       -0.089687         4    ;  uncertainty k = 0.063112
         6         5         4        25     9        0.000000       -0.987861         1    ;  uncertainty k = 0.889190
         6         5         4        25     9      180.000000        3.792799         2    ;  uncertainty k = 0.557032
         6         5         4        25     9        0.000000        0.522016         3    ;  uncertainty k = 0.512132
         6         5         4        25     9      180.000000        0.622617         4    ;  uncertainty k = 0.115804
         6         5         4        30     9        0.000000       -0.033430         1    ;  uncertainty k = 0.535046
         6         5         4        30     9      180.000000        2.611247         2    ;  uncertainty k = 0.427587
         6         5         4        30     9        0.000000        0.388155         3    ;  uncertainty k = 0.186456
         6         5         4        30     9      180.000000        0.182393         4    ;  uncertainty k = 0.182643
         6         5        10         9     9        0.000000       -0.211361         1    ;  uncertainty k = 0.206566
         6         5        10         9     9      180.000000        8.024351         2    ;  uncertainty k = 0.410242
         6         5        10         9     9        0.000000       -0.415435         3    ;  uncertainty k = 0.438305
         6         5        10         9     9      180.000000        1.104414         4    ;  uncertainty k = 0.280662
         6         5        10        11     9        0.000000       -0.020553         1    ;  uncertainty k = 0.232387
         6         5        10        11     9      180.000000        9.413602         2    ;  uncertainty k = 0.335607
         6         5        10        11     9        0.000000        1.364183         3    ;  uncertainty k = 0.336580
         6         5        10        11     9      180.000000        1.535054         4    ;  uncertainty k = 0.201568
         6         7         8         9     9        0.000000       -0.225782         1    ;  uncertainty k = 0.469630
         6         7         8         9     9      180.000000       10.119086         2    ;  uncertainty k = 0.556566
         6         7         8         9     9        0.000000       -0.255468         3    ;  uncertainty k = 0.382555
         6         7         8         9     9      180.000000        1.076184         4    ;  uncertainty k = 0.386258
         6         7         8        31     9        0.000000        0.025981         1    ;  uncertainty k = 0.420064
         6         7         8        31     9      180.000000        7.255339         2    ;  uncertainty k = 0.513592
         6         7         8        31     9        0.000000        1.273388         3    ;  uncertainty k = 0.435501
         6         7         8        31     9      180.000000        1.639512         4    ;  uncertainty k = 0.118673
         6         7        20        21     9        0.000000       -1.583825         1    ;  uncertainty k = 1.751413
         6         7        20        21     9      180.000000        0.593531         2    ;  uncertainty k = 0.240986
         6         7        20        21     9        0.000000        0.459129         3    ;  uncertainty k = 0.107806
         6         7        20        21     9      180.000000        0.004888         4    ;  uncertainty k = 0.147842
         6         7        20        22     9        0.000000       -1.583825         1    ;  uncertainty k = 1.751413
         6         7        20        22     9      180.000000        0.593531         2    ;  uncertainty k = 0.240986
         6         7        20        22     9        0.000000        0.459129         3    ;  uncertainty k = 0.107806
         6         7        20        22     9      180.000000        0.004888         4    ;  uncertainty k = 0.147842
         6         7        20        26     9        0.000000        1.458266         1    ;  uncertainty k = 1.574858
         6         7        20        26     9      180.000000       -0.049582         2    ;  uncertainty k = 0.314488
         6         7        20        26     9        0.000000        0.464174         3    ;  uncertainty k = 0.514207
         6         7        20        26     9      180.000000        0.335541         4    ;  uncertainty k = 0.151792
         7         6         2        28     9        0.000000        1.716577         1    ;  uncertainty k = 0.536396
         7         6         2        28     9      180.000000        2.153088         2    ;  uncertainty k = 0.621076
         7         6         2        28     9        0.000000       -0.104501         3    ;  uncertainty k = 0.083114
         7         6         2        28     9      180.000000        0.191916         4    ;  uncertainty k = 0.214547
         7         6         5        10     9        0.000000       -0.273144         1    ;  uncertainty k = 0.419517
         7         6         5        10     9      180.000000        8.580559         2    ;  uncertainty k = 0.513543
         7         6         5        10     9        0.000000        0.077030         3    ;  uncertainty k = 0.339371
         7         6         5        10     9      180.000000        1.043851         4    ;  uncertainty k = 0.349286
         7         8         9        10     9        0.000000        0.153257         1    ;  uncertainty k = 0.322629
         7         8         9        10     9      180.000000       12.105938         2    ;  uncertainty k = 0.407607
         7         8         9        10     9        0.000000       -0.944032         3    ;  uncertainty k = 0.710485
         7         8         9        10     9      180.000000        0.883591         4    ;  uncertainty k = 0.376276
         7         8         9        32     9        0.000000       -0.041138         1    ;  uncertainty k = 0.575677
         7         8         9        32     9      180.000000        8.113106         2    ;  uncertainty k = 0.231513
         7         8         9        32     9        0.000000        1.204700         3    ;  uncertainty k = 0.191741
         7         8         9        32     9      180.000000        1.707811         4    ;  uncertainty k = 0.077872
         7        20        26        36     9        0.000000        2.471082         1    ;  uncertainty k = 1.018638
         7        20        26        36     9      180.000000       -2.843578         2    ;  uncertainty k = 0.678834
         7        20        26        36     9        0.000000        0.219049         3    ;  uncertainty k = 0.047788
         7        20        26        36     9      180.000000       -0.011896         4    ;  uncertainty k = 0.120203
         7        20        26        37     9        0.000000        2.471082         1    ;  uncertainty k = 1.018638
         7        20        26        37     9      180.000000       -2.843578         2    ;  uncertainty k = 0.678834
         7        20        26        37     9        0.000000        0.219049         3    ;  uncertainty k = 0.047788
         7        20        26        37     9      180.000000       -0.011896         4    ;  uncertainty k = 0.120203
         7        20        26        38     9        0.000000        2.471082         1    ;  uncertainty k = 1.018638
         7        20        26        38     9      180.000000       -2.843578         2    ;  uncertainty k = 0.678834
         7        20        26        38     9        0.000000        0.219049         3    ;  uncertainty k = 0.047788
         7        20        26        38     9      180.000000       -0.011896         4    ;  uncertainty k = 0.120203
         8         7        20        21     9        0.000000       -1.267033         1    ;  uncertainty k = 0.736200
         8         7        20        21     9      180.000000        0.876282         2    ;  uncertainty k = 0.742640
         8         7        20        21     9        0.000000        0.280798         3    ;  uncertainty k = 0.259893
         8         7        20        21     9      180.000000       -0.069739         4    ;  uncertainty k = 0.167429
         8         7        20        22     9        0.000000       -1.267033         1    ;  uncertainty k = 0.736200
         8         7        20        22     9      180.000000        0.876282         2    ;  uncertainty k = 0.742640
         8         7        20        22     9        0.000000        0.280798         3    ;  uncertainty k = 0.259893
         8         7        20        22     9      180.000000       -0.069739         4    ;  uncertainty k = 0.167429
         8         7        20        26     9        0.000000        1.105938         1    ;  uncertainty k = 1.160286
         8         7        20        26     9      180.000000        0.166032         2    ;  uncertainty k = 0.530674
         8         7        20        26     9        0.000000        0.092971         3    ;  uncertainty k = 0.407697
         8         7        20        26     9      180.000000        0.437929         4    ;  uncertainty k = 0.219484
         8         9        10        11     9        0.000000       -0.033578         1    ;  uncertainty k = 0.253347
         8         9        10        11     9      180.000000       10.896630         2    ;  uncertainty k = 0.400184
         8         9        10        11     9        0.000000        1.401914         3    ;  uncertainty k = 0.283529
         8         9        10        11     9      180.000000        1.733619         4    ;  uncertainty k = 0.212916
         9         8         7        20     9        0.000000        0.425299         1    ;  uncertainty k = 0.343655
         9         8         7        20     9      180.000000        8.846829         2    ;  uncertainty k = 0.424868
         9         8         7        20     9        0.000000        1.413662         3    ;  uncertainty k = 0.337888
         9         8         7        20     9      180.000000        1.829276         4    ;  uncertainty k = 0.100743
         9        10        11        12     9        0.000000        5.423199         1    ;  uncertainty k = 0.365393
         9        10        11        12     9      180.000000        5.781577         2    ;  uncertainty k = 0.254157
         9        10        11        12     9        0.000000        0.387705         3    ;  uncertainty k = 0.109613
         9        10        11        12     9      180.000000        0.201592         4    ;  uncertainty k = 0.083249
        10         5         4        25     9        0.000000       -0.401402         1    ;  uncertainty k = 1.084119
        10         5         4        25     9      180.000000        2.302488         2    ;  uncertainty k = 0.943923
        10         5         4        25     9        0.000000        0.452359         3    ;  uncertainty k = 0.473408
        10         5         4        25     9      180.000000        0.535329         4    ;  uncertainty k = 0.163041
        10         5         4        30     9        0.000000        1.200082         1    ;  uncertainty k = 0.980828
        10         5         4        30     9      180.000000        2.013551         2    ;  uncertainty k = 0.824615
        10         5         4        30     9        0.000000        0.199485         3    ;  uncertainty k = 0.202316
        10         5         4        30     9      180.000000        0.268733         4    ;  uncertainty k = 0.179252
        10         9         8        31     9        0.000000       -0.150009         1    ;  uncertainty k = 0.290277
        10         9         8        31     9      180.000000        7.675044         2    ;  uncertainty k = 0.132467
        10         9         8        31     9        0.000000        1.063182         3    ;  uncertainty k = 0.205223
        10         9         8        31     9      180.000000        1.722223         4    ;  uncertainty k = 0.087607
        10        11        12        13     9        0.000000        4.042320         1    ;  uncertainty k = 0.253332
        10        11        12        13     9      180.000000        5.266696         2    ;  uncertainty k = 0.322713
        10        11        12        13     9        0.000000        0.421821         3    ;  uncertainty k = 0.136164
        10        11        12        13     9      180.000000        0.170470         4    ;  uncertainty k = 0.112008
        10        11        12        19     9        0.000000        4.066744         1    ;  uncertainty k = 0.203386
        10        11        12        19     9      180.000000        5.548534         2    ;  uncertainty k = 0.310144
        10        11        12        19     9        0.000000        0.397374         3    ;  uncertainty k = 0.139336
        10        11        12        19     9      180.000000        0.153297         4    ;  uncertainty k = 0.126289
        11        10         9        32     9        0.000000       -0.042763         1    ;  uncertainty k = 0.118951
        11        10         9        32     9      180.000000        9.073833         2    ;  uncertainty k = 0.445328
        11        10         9        32     9        0.000000        0.809350         3    ;  uncertainty k = 0.239502
        11        10         9        32     9      180.000000        1.149708         4    ;  uncertainty k = 0.171299
        11        12        13        14     9        0.000000        0.100184         1    ;  uncertainty k = 0.291842
        11        12        13        14     9      180.000000       10.816374         2    ;  uncertainty k = 0.240460
        11        12        13        14     9        0.000000        1.300563         3    ;  uncertainty k = 0.162012
        11        12        13        14     9      180.000000        1.601831         4    ;  uncertainty k = 0.116723
        11        12        13        33     9        0.000000       -0.098793         1    ;  uncertainty k = 0.096880
        11        12        13        33     9      180.000000        8.366214         2    ;  uncertainty k = 0.291500
        11        12        13        33     9        0.000000        0.819579         3    ;  uncertainty k = 0.210155
        11        12        13        33     9      180.000000        1.084623         4    ;  uncertainty k = 0.086344
        11        12        19        17     9        0.000000       -0.049087         1    ;  uncertainty k = 0.265910
        11        12        19        17     9      180.000000       11.315663         2    ;  uncertainty k = 0.446747
        11        12        19        17     9        0.000000        1.192561         3    ;  uncertainty k = 0.067310
        11        12        19        17     9      180.000000        1.631086         4    ;  uncertainty k = 0.135216
        11        12        19        35     9        0.000000        0.117590         1    ;  uncertainty k = 0.182467
        11        12        19        35     9      180.000000        8.506953         2    ;  uncertainty k = 0.321953
        11        12        19        35     9        0.000000        0.839576         3    ;  uncertainty k = 0.301195
        11        12        19        35     9      180.000000        1.142539         4    ;  uncertainty k = 0.151488
        12        13        14        15     9        0.000000        0.029267         1    ;  uncertainty k = 0.076351
        12        13        14        15     9      180.000000       12.681220         2    ;  uncertainty k = 0.591249
        12        13        14        15     9        0.000000        1.486062         3    ;  uncertainty k = 0.376399
        12        13        14        15     9      180.000000        1.475435         4    ;  uncertainty k = 0.279101
        12        13        14        16     9        0.000000       -0.041312         1    ;  uncertainty k = 0.166168
        12        13        14        16     9      180.000000        8.711743         2    ;  uncertainty k = 0.535595
        12        13        14        16     9        0.000000        0.058226         3    ;  uncertainty k = 0.483440
        12        13        14        16     9      180.000000        1.296510         4    ;  uncertainty k = 0.287570
        12        19        17        16     9        0.000000       -0.126135         1    ;  uncertainty k = 0.335758
        12        19        17        16     9      180.000000       11.543728         2    ;  uncertainty k = 0.211528
        12        19        17        16     9        0.000000       -0.409273         3    ;  uncertainty k = 0.525587
        12        19        17        16     9      180.000000        1.114605         4    ;  uncertainty k = 0.265123
        12        19        17        18     9        0.000000        0.008933         1    ;  uncertainty k = 0.224406
        12        19        17        18     9      180.000000       10.110912         2    ;  uncertainty k = 0.333390
        12        19        17        18     9        0.000000        1.306913         3    ;  uncertainty k = 0.264685
        12        19        17        18     9      180.000000        1.637563         4    ;  uncertainty k = 0.199965
        13        12        19        17     9        0.000000       -0.051322         1    ;  uncertainty k = 0.175220
        13        12        19        17     9      180.000000        9.609478         2    ;  uncertainty k = 0.403633
        13        12        19        17     9        0.000000        0.176055         3    ;  uncertainty k = 0.389800
        13        12        19        17     9      180.000000        1.259071         4    ;  uncertainty k = 0.358591
        13        12        19        35     9        0.000000        0.319861         1    ;  uncertainty k = 0.231991
        13        12        19        35     9      180.000000        6.318270         2    ;  uncertainty k = 0.750341
        13        12        19        35     9        0.000000        1.465273         3    ;  uncertainty k = 0.273057
        13        12        19        35     9      180.000000        1.603175         4    ;  uncertainty k = 0.165843
        13        14        16        17     9        0.000000       -0.019167         1    ;  uncertainty k = 0.236218
        13        14        16        17     9      180.000000        9.329732         2    ;  uncertainty k = 0.304985
        13        14        16        17     9        0.000000        0.099008         3    ;  uncertainty k = 0.304607
        13        14        16        17     9      180.000000        1.274852         4    ;  uncertainty k = 0.274241
        13        14        16        34     9        0.000000       -0.000593         1    ;  uncertainty k = 0.199602
        13        14        16        34     9      180.000000        5.887325         2    ;  uncertainty k = 0.750109
        13        14        16        34     9        0.000000        1.321078         3    ;  uncertainty k = 0.278410
        13        14        16        34     9      180.000000        1.516102         4    ;  uncertainty k = 0.088176
        14        13        12        19     9        0.000000        0.083575         1    ;  uncertainty k = 0.184356
        14        13        12        19     9      180.000000        9.069038         2    ;  uncertainty k = 0.673942
        14        13        12        19     9        0.000000        0.004877         3    ;  uncertainty k = 0.505260
        14        13        12        19     9      180.000000        1.219759         4    ;  uncertainty k = 0.386904
        14        16        17        18     9        0.000000        0.042737         1    ;  uncertainty k = 0.291483
        14        16        17        18     9      180.000000        9.815526         2    ;  uncertainty k = 0.311825
        14        16        17        18     9        0.000000        1.325513         3    ;  uncertainty k = 0.249458
        14        16        17        18     9      180.000000        1.659796         4    ;  uncertainty k = 0.165102
        14        16        17        19     9        0.000000       -0.093634         1    ;  uncertainty k = 0.287446
        14        16        17        19     9      180.000000       11.524169         2    ;  uncertainty k = 0.474663
        14        16        17        19     9        0.000000       -0.540684         3    ;  uncertainty k = 0.386751
        14        16        17        19     9      180.000000        1.065656         4    ;  uncertainty k = 0.270989
        15        14        13        33     9        0.000000       -0.266165         1    ;  uncertainty k = 0.229666
        15        14        13        33     9      180.000000        8.750384         2    ;  uncertainty k = 0.391886
        15        14        13        33     9        0.000000        0.839204         3    ;  uncertainty k = 0.231015
        15        14        13        33     9      180.000000        1.056841         4    ;  uncertainty k = 0.208951
        15        14        16        17     9        0.000000       -0.039623         1    ;  uncertainty k = 0.207167
        15        14        16        17     9      180.000000       13.467148         2    ;  uncertainty k = 0.458195
        15        14        16        17     9        0.000000        1.330325         3    ;  uncertainty k = 0.272641
        15        14        16        17     9      180.000000        1.408183         4    ;  uncertainty k = 0.220523
        15        14        16        34     9        0.000000       -0.317019         1    ;  uncertainty k = 0.306342
        15        14        16        34     9      180.000000        8.994255         2    ;  uncertainty k = 0.352455
        15        14        16        34     9        0.000000        0.799840         3    ;  uncertainty k = 0.209801
        15        14        16        34     9      180.000000        1.001169         4    ;  uncertainty k = 0.172439
        16        14        13        33     9        0.000000        0.117728         1    ;  uncertainty k = 0.152876
        16        14        13        33     9      180.000000        5.739162         2    ;  uncertainty k = 0.725581
        16        14        13        33     9        0.000000        1.354805         3    ;  uncertainty k = 0.319905
        16        14        13        33     9      180.000000        1.531360         4    ;  uncertainty k = 0.102992
        16        17        18        24     9        0.000000        0.000000         1    ;  uncertainty k = 0.000000
        16        17        18        24     9      180.000000        0.000000         2    ;  uncertainty k = 0.000000
        16        17        18        24     9        0.000000        0.000000         3    ;  uncertainty k = 0.000000
        16        17        18        24     9      180.000000        0.000000         4    ;  uncertainty k = 0.000000
        16        17        19        35     9        0.000000        0.266901         1    ;  uncertainty k = 0.392933
        16        17        19        35     9      180.000000        6.702181         2    ;  uncertainty k = 0.686766
        16        17        19        35     9        0.000000        1.492380         3    ;  uncertainty k = 0.274536
        16        17        19        35     9      180.000000        1.680830         4    ;  uncertainty k = 0.134103
        18        17        16        34     9        0.000000       -0.401280         1    ;  uncertainty k = 0.467937
        18        17        16        34     9      180.000000        7.099068         2    ;  uncertainty k = 0.224071
        18        17        16        34     9        0.000000        0.520905         3    ;  uncertainty k = 0.112594
        18        17        16        34     9      180.000000        0.955860         4    ;  uncertainty k = 0.230500
        18        17        19        35     9        0.000000       -0.303371         1    ;  uncertainty k = 0.311612
        18        17        19        35     9      180.000000        7.433399         2    ;  uncertainty k = 0.295932
        18        17        19        35     9        0.000000        0.543142         3    ;  uncertainty k = 0.139134
        18        17        19        35     9      180.000000        0.967541         4    ;  uncertainty k = 0.213771
        19        12        13        33     9        0.000000        0.238077         1    ;  uncertainty k = 0.231773
        19        12        13        33     9      180.000000        5.993858         2    ;  uncertainty k = 0.765201
        19        12        13        33     9        0.000000        1.476771         3    ;  uncertainty k = 0.368309
        19        12        13        33     9      180.000000        1.569369         4    ;  uncertainty k = 0.131184
        19        17        16        34     9        0.000000        0.157284         1    ;  uncertainty k = 0.536677
        19        17        16        34     9      180.000000        6.651379         2    ;  uncertainty k = 0.604357
        19        17        16        34     9        0.000000        1.457227         3    ;  uncertainty k = 0.366961
        19        17        16        34     9      180.000000        1.599688         4    ;  uncertainty k = 0.107457
        19        17        18        24     9        0.000000        0.000000         1    ;  uncertainty k = 0.000000
        19        17        18        24     9      180.000000        0.000000         2    ;  uncertainty k = 0.000000
        19        17        18        24     9        0.000000        0.000000         3    ;  uncertainty k = 0.000000
        19        17        18        24     9      180.000000        0.000000         4    ;  uncertainty k = 0.000000
        20         7         8        31     9        0.000000       -0.412493         1    ;  uncertainty k = 0.441400
        20         7         8        31     9      180.000000        6.743666         2    ;  uncertainty k = 0.505377
        20         7         8        31     9        0.000000        0.711712         3    ;  uncertainty k = 0.240933
        20         7         8        31     9      180.000000        1.142241         4    ;  uncertainty k = 0.216920
        21        20        26        36     9        0.000000       -0.093839         1    ;  uncertainty k = 0.688226
        21        20        26        36     9      180.000000       -0.300703         2    ;  uncertainty k = 0.369926
        21        20        26        36     9        0.000000        0.802296         3    ;  uncertainty k = 0.041185
        21        20        26        36     9      180.000000        0.029328         4    ;  uncertainty k = 0.091442
        21        20        26        37     9        0.000000       -0.093839         1    ;  uncertainty k = 0.688226
        21        20        26        37     9      180.000000       -0.300703         2    ;  uncertainty k = 0.369926
        21        20        26        37     9        0.000000        0.802296         3    ;  uncertainty k = 0.041185
        21        20        26        37     9      180.000000        0.029328         4    ;  uncertainty k = 0.091442
        21        20        26        38     9        0.000000       -0.093839         1    ;  uncertainty k = 0.688226
        21        20        26        38     9      180.000000       -0.300703         2    ;  uncertainty k = 0.369926
        21        20        26        38     9        0.000000        0.802296         3    ;  uncertainty k = 0.041185
        21        20        26        38     9      180.000000        0.029328         4    ;  uncertainty k = 0.091442
        22        20        26        36     9        0.000000       -0.093839         1    ;  uncertainty k = 0.688226
        22        20        26        36     9      180.000000       -0.300703         2    ;  uncertainty k = 0.369926
        22        20        26        36     9        0.000000        0.802296         3    ;  uncertainty k = 0.041185
        22        20        26        36     9      180.000000        0.029328         4    ;  uncertainty k = 0.091442
        22        20        26        37     9        0.000000       -0.093839         1    ;  uncertainty k = 0.688226
        22        20        26        37     9      180.000000       -0.300703         2    ;  uncertainty k = 0.369926
        22        20        26        37     9        0.000000        0.802296         3    ;  uncertainty k = 0.041185
        22        20        26        37     9      180.000000        0.029328         4    ;  uncertainty k = 0.091442
        22        20        26        38     9        0.000000       -0.093839         1    ;  uncertainty k = 0.688226
        22        20        26        38     9      180.000000       -0.300703         2    ;  uncertainty k = 0.369926
        22        20        26        38     9        0.000000        0.802296         3    ;  uncertainty k = 0.041185
        22        20        26        38     9      180.000000        0.029328         4    ;  uncertainty k = 0.091442
        23         3         2        28     9        0.000000        0.770234         1    ;  uncertainty k = 0.180113
        23         3         2        28     9      180.000000       -0.767045         2    ;  uncertainty k = 0.276529
        23         3         2        28     9        0.000000        1.067672         3    ;  uncertainty k = 0.335821
        23         3         2        28     9      180.000000        0.096198         4    ;  uncertainty k = 0.097487
        23         3         4        25     9        0.000000        0.175738         1    ;  uncertainty k = 0.561141
        23         3         4        25     9      180.000000       -1.667369         2    ;  uncertainty k = 0.947387
        23         3         4        25     9        0.000000        1.697105         3    ;  uncertainty k = 0.292158
        23         3         4        25     9      180.000000        0.081924         4    ;  uncertainty k = 0.160469
        23         3         4        30     9        0.000000        0.657369         1    ;  uncertainty k = 0.374668
        23         3         4        30     9      180.000000       -0.404967         2    ;  uncertainty k = 0.166764
        23         3         4        30     9        0.000000        1.011210         3    ;  uncertainty k = 0.339564
        23         3         4        30     9      180.000000        0.038254         4    ;  uncertainty k = 0.106386
        25         4         3        29     9        0.000000        0.503578         1    ;  uncertainty k = 0.318886
        25         4         3        29     9      180.000000       -0.277879         2    ;  uncertainty k = 0.393931
        25         4         3        29     9        0.000000        0.847384         3    ;  uncertainty k = 0.157183
        25         4         3        29     9      180.000000        0.014596         4    ;  uncertainty k = 0.057577
        27         1         2        28     9        0.000000       11.952590         1    ;  uncertainty k = 0.579332
        27         1         2        28     9      180.000000       -0.972504         2    ;  uncertainty k = 0.339341
        27         1         2        28     9        0.000000        0.871625         3    ;  uncertainty k = 0.136715
        27         1         2        28     9      180.000000        0.174801         4    ;  uncertainty k = 0.115950
        28         2         3        29     9        0.000000        0.116406         1    ;  uncertainty k = 0.339913
        28         2         3        29     9      180.000000       -0.803272         2    ;  uncertainty k = 0.235940
        28         2         3        29     9        0.000000        0.643605         3    ;  uncertainty k = 0.176335
        28         2         3        29     9      180.000000        0.109077         4    ;  uncertainty k = 0.095518
        29         3         4        30     9        0.000000        0.048112         1    ;  uncertainty k = 0.405143
        29         3         4        30     9      180.000000       -0.687751         2    ;  uncertainty k = 0.160744
        29         3         4        30     9        0.000000        0.602466         3    ;  uncertainty k = 0.144285
        29         3         4        30     9      180.000000        0.120363         4    ;  uncertainty k = 0.087444
        31         8         9        32     9        0.000000       -0.141045         1    ;  uncertainty k = 0.519275
        31         8         9        32     9      180.000000        7.535080         2    ;  uncertainty k = 0.428807
        31         8         9        32     9        0.000000       -0.307025         3    ;  uncertainty k = 0.278456
        31         8         9        32     9      180.000000        0.258802         4    ;  uncertainty k = 0.100884

[ dihedrals ] ; impropers
;       ai        aj        ak        al funct           phase               k        pn
         5         4         6        10     4      180.000000        3.133778         2    ;  uncertainty k = 0.436902
         5         6        10         4     4      180.000000        3.133778         2    ;  uncertainty k = 0.436902
         5        10         4         6     4      180.000000        3.133778         2    ;  uncertainty k = 0.436902
         6         2         5         7     4      180.000000        6.638018         2    ;  uncertainty k = 0.156765
         6         5         7         2     4      180.000000        6.638018         2    ;  uncertainty k = 0.156765
         6         7         2         5     4      180.000000        6.638018         2    ;  uncertainty k = 0.156765
         7         6         8        20     4      180.000000        4.742661         2    ;  uncertainty k = 0.300130
         7         8        20         6     4      180.000000        4.742661         2    ;  uncertainty k = 0.300130
         7        20         6         8     4      180.000000        4.742661         2    ;  uncertainty k = 0.300130
         8         7         9        31     4      180.000000        4.976634         2    ;  uncertainty k = 0.043410
         8         9        31         7     4      180.000000        4.976634         2    ;  uncertainty k = 0.043410
         8        31         7         9     4      180.000000        4.976634         2    ;  uncertainty k = 0.043410
         9         8        10        32     4      180.000000        1.841103         2    ;  uncertainty k = 0.089104
         9        10        32         8     4      180.000000        1.841103         2    ;  uncertainty k = 0.089104
         9        32         8        10     4      180.000000        1.841103         2    ;  uncertainty k = 0.089104
        10         5         9        11     4      180.000000       18.670415         2    ;  uncertainty k = 0.088246
        10         9        11         5     4      180.000000       18.670415         2    ;  uncertainty k = 0.088246
        10        11         5         9     4      180.000000       18.670415         2    ;  uncertainty k = 0.088246
        12        11        13        19     4      180.000000       19.072638         2    ;  uncertainty k = 0.034727
        12        13        19        11     4      180.000000       19.072638         2    ;  uncertainty k = 0.034727
        12        19        11        13     4      180.000000       19.072638         2    ;  uncertainty k = 0.034727
        13        12        14        33     4      180.000000        1.848818         2    ;  uncertainty k = 0.255047
        13        14        33        12     4      180.000000        1.848818         2    ;  uncertainty k = 0.255047
        13        33        12        14     4      180.000000        1.848818         2    ;  uncertainty k = 0.255047
        14        13        15        16     4      180.000000       17.880537         2    ;  uncertainty k = 0.047509
        14        15        16        13     4      180.000000       17.880537         2    ;  uncertainty k = 0.047509
        14        16        13        15     4      180.000000       17.880537         2    ;  uncertainty k = 0.047509
        16        14        17        34     4      180.000000        2.461655         2    ;  uncertainty k = 0.340230
        16        17        34        14     4      180.000000        2.461655         2    ;  uncertainty k = 0.340230
        16        34        14        17     4      180.000000        2.461655         2    ;  uncertainty k = 0.340230
        17        16        18        19     4      180.000000       11.727372         2    ;  uncertainty k = 0.187314
        17        18        19        16     4      180.000000       11.727372         2    ;  uncertainty k = 0.187314
        17        19        16        18     4      180.000000       11.727372         2    ;  uncertainty k = 0.187314
        19        12        17        35     4      180.000000        2.852757         2    ;  uncertainty k = 0.269075
        19        17        35        12     4      180.000000        2.852757         2    ;  uncertainty k = 0.269075
        19        35        12        17     4      180.000000        2.852757         2    ;  uncertainty k = 0.269075

[ pairs ]
;       ai        aj funct
         1         4     1
         1         5     1
         1         7     1
         1        23     1
         1        29     1
         2         8     1
         2        10     1
         2        20     1
         2        25     1
         2        30     1
         3         7     1
         3        10     1
         3        27     1
         4         7     1
         4         9     1
         4        11     1
         4        28     1
         5         8     1
         5        12     1
         5        20     1
         5        23     1
         5        28     1
         5        29     1
         5        32     1
         6         9     1
         6        11     1
         6        21     1
         6        22     1
         6        23     1
         6        25     1
         6        26     1
         6        27     1
         6        29     1
         6        30     1
         6        31     1
         7        10     1
         7        28     1
         7        32     1
         7        36     1
         7        37     1
         7        38     1
         8        11     1
         8        21     1
         8        22     1
         8        26     1
         9        12     1
         9        20     1
        10        13     1
        10        19     1
        10        25     1
        10        30     1
        10        31     1
        11        14     1
        11        17     1
        11        32     1
        11        33     1
        11        35     1
        12        15     1
        12        16     1
        12        18     1
        13        17     1
        13        34     1
        13        35     1
        14        18     1
        14        19     1
        15        17     1
        15        33     1
        15        34     1
        16        24     1
        16        33     1
        16        35     1
        18        34     1
        18        35     1
        19        24     1
        19        33     1
        19        34     1
        20        31     1
        21        36     1
        21        37     1
        21        38     1
        22        36     1
        22        37     1
        22        38     1
        23        25     1
        23        28     1
        23        30     1
        25        29     1
        27        28     1
        28        29     1
        29        30     1
        31        32     1
