; ITP file created by ByteFF-joint-25, 2026-02-17 09:18:17.157805

[ atomtypes ]
;name           bonded.type        at.num        mass        charge   ptype           sigma         epsilon
 c0bf                                   6      0.0000       0.00000       A     3.39768e-01     4.50824e-01    ;  uncertainty sigma = 0.000009, epsilon = 0.000811
 c1bf                                   6      0.0000       0.00000       A     3.31471e-01     4.12188e-01    ;  uncertainty sigma = 0.000026, epsilon = 0.001655
 c2bf                                   6      0.0000       0.00000       A     3.31512e-01     4.12875e-01    ;  uncertainty sigma = 0.000027, epsilon = 0.001230
 c3bf                                   6      0.0000       0.00000       A     3.31568e-01     4.13140e-01    ;  uncertainty sigma = 0.000031, epsilon = 0.001342
 c4bf                                   6      0.0000       0.00000       A     3.31490e-01     4.13130e-01    ;  uncertainty sigma = 0.000019, epsilon = 0.000325
 c5bf                                   6      0.0000       0.00000       A     3.31511e-01     4.13448e-01    ;  uncertainty sigma = 0.000008, epsilon = 0.000571
 c6bf                                   6      0.0000       0.00000       A     3.31531e-01     4.13312e-01    ;  uncertainty sigma = 0.000006, epsilon = 0.001069
 o7bf                                   8      0.0000       0.00000       A     3.15606e-01     3.04155e-01    ;  uncertainty sigma = 0.000035, epsilon = 0.002595
 c8bf                                   6      0.0000       0.00000       A     3.31505e-01     4.13943e-01    ;  uncertainty sigma = 0.000013, epsilon = 0.000890
 c9bf                                   6      0.0000       0.00000       A     3.31513e-01     4.13418e-01    ;  uncertainty sigma = 0.000002, epsilon = 0.000609
 c10bf                                  6      0.0000       0.00000       A     3.31516e-01     4.13426e-01    ;  uncertainty sigma = 0.000004, epsilon = 0.000649
 c11bf                                  6      0.0000       0.00000       A     3.31513e-01     4.13184e-01    ;  uncertainty sigma = 0.000005, epsilon = 0.000545
 c12bf                                  6      0.0000       0.00000       A     3.31524e-01     4.13681e-01    ;  uncertainty sigma = 0.000014, epsilon = 0.000863
 c13bf                                  6      0.0000       0.00000       A     3.47930e-01     6.67891e-01    ;  uncertainty sigma = 0.000025, epsilon = 0.001371
 c14bf                                  6      0.0000       0.00000       A     3.31525e-01     4.13354e-01    ;  uncertainty sigma = 0.000009, epsilon = 0.000772
 s15bf                                 16      0.0000       0.00000       A     4.05747e-01     2.58064e-01    ;  uncertainty sigma = 0.000032, epsilon = 0.004204
 o16bf                                  8      0.0000       0.00000       A     3.04764e-01     6.10830e-01    ;  uncertainty sigma = 0.000053, epsilon = 0.001928
 o17bf                                  8      0.0000       0.00000       A     3.04764e-01     6.10830e-01    ;  uncertainty sigma = 0.000053, epsilon = 0.001928
 c18bf                                  6      0.0000       0.00000       A     3.39873e-01     4.51128e-01    ;  uncertainty sigma = 0.000050, epsilon = 0.003751
 f19bf                                  9      0.0000       0.00000       A     3.03560e-01     3.47317e-01    ;  uncertainty sigma = 0.000038, epsilon = 0.002442
 f20bf                                  9      0.0000       0.00000       A     3.03560e-01     3.47317e-01    ;  uncertainty sigma = 0.000038, epsilon = 0.002442
 c21bf                                  6      0.0000       0.00000       A     3.47902e-01     6.67660e-01    ;  uncertainty sigma = 0.000037, epsilon = 0.000793
 n22bf                                  7      0.0000       0.00000       A     3.27347e-01     4.59585e-01    ;  uncertainty sigma = 0.000024, epsilon = 0.000990
 n23bf                                  7      0.0000       0.00000       A     3.27375e-01     4.59084e-01    ;  uncertainty sigma = 0.000021, epsilon = 0.000492
 h24bf                                  1      0.0000       0.00000       A     2.60028e-01     8.67402e-02    ;  uncertainty sigma = 0.000006, epsilon = 0.000502
 h25bf                                  1      0.0000       0.00000       A     2.60028e-01     8.67402e-02    ;  uncertainty sigma = 0.000006, epsilon = 0.000502
 h26bf                                  1      0.0000       0.00000       A     2.60028e-01     8.67402e-02    ;  uncertainty sigma = 0.000006, epsilon = 0.000502
 h27bf                                  1      0.0000       0.00000       A     2.62576e-01     6.73275e-02    ;  uncertainty sigma = 0.000017, epsilon = 0.000654
 h28bf                                  1      0.0000       0.00000       A     2.62556e-01     6.70922e-02    ;  uncertainty sigma = 0.000006, epsilon = 0.000392
 h29bf                                  1      0.0000       0.00000       A     2.62561e-01     6.71299e-02    ;  uncertainty sigma = 0.000006, epsilon = 0.000455
 h30bf                                  1      0.0000       0.00000       A     2.62568e-01     6.69720e-02    ;  uncertainty sigma = 0.000010, epsilon = 0.000464
 h31bf                                  1      0.0000       0.00000       A     2.62572e-01     6.69858e-02    ;  uncertainty sigma = 0.000015, epsilon = 0.000486
 h32bf                                  1      0.0000       0.00000       A     2.62547e-01     6.71166e-02    ;  uncertainty sigma = 0.000014, epsilon = 0.000743
 h33bf                                  1      0.0000       0.00000       A     2.06482e-01     8.67289e-02    ;  uncertainty sigma = 0.000273, epsilon = 0.002988

[ moleculetype ]
;name             nrexcl
 MOL                   3

[ atoms ]
;       nr            type      resi   res      atom      cgnr      charge          mass ; qtot
         1            c0bf         1   UNL        c0         1    -0.07757       12.0110 ; qtot   -0.078
         2            c1bf         1   UNL        c1         2    -0.05818       12.0110 ; qtot   -0.136
         3            c2bf         1   UNL        c2         3     0.10744       12.0110 ; qtot   -0.028
         4            c3bf         1   UNL        c3         4    -0.26012       12.0110 ; qtot   -0.288
         5            c4bf         1   UNL        c4         5     0.01017       12.0110 ; qtot   -0.278
         6            c5bf         1   UNL        c5         6    -0.18167       12.0110 ; qtot   -0.460
         7            c6bf         1   UNL        c6         7     0.20058       12.0110 ; qtot   -0.259
         8            o7bf         1   UNL        o7         8    -0.23929       15.9990 ; qtot   -0.499
         9            c8bf         1   UNL        c8         9     0.11775       12.0110 ; qtot   -0.381
        10            c9bf         1   UNL        c9        10    -0.13817       12.0110 ; qtot   -0.519
        11           c10bf         1   UNL       c10        11    -0.10732       12.0110 ; qtot   -0.626
        12           c11bf         1   UNL       c11        12    -0.11133       12.0110 ; qtot   -0.738
        13           c12bf         1   UNL       c12        13     0.01049       12.0110 ; qtot   -0.727
        14           c13bf         1   UNL       c13        14     0.23126       12.0110 ; qtot   -0.496
        15           c14bf         1   UNL       c14        15    -0.12770       12.0110 ; qtot   -0.624
        16           s15bf         1   UNL       s15        16     0.95677       32.0670 ; qtot    0.333
        17           o16bf         1   UNL       o16        17    -0.54517       15.9990 ; qtot   -0.212
        18           o17bf         1   UNL       o17        18    -0.54517       15.9990 ; qtot   -0.757
        19           c18bf         1   UNL       c18        19     0.39315       12.0110 ; qtot   -0.364
        20           f19bf         1   UNL       f19        20    -0.20938       18.9980 ; qtot   -0.573
        21           f20bf         1   UNL       f20        21    -0.20938       18.9980 ; qtot   -0.783
        22           c21bf         1   UNL       c21        22     0.24145       12.0110 ; qtot   -0.541
        23           n22bf         1   UNL       n22        23    -0.35842       14.0070 ; qtot   -0.900
        24           n23bf         1   UNL       n23        24    -0.35734       14.0070 ; qtot   -1.257
        25           h24bf         1   UNL       h24        25     0.07431        1.0080 ; qtot   -1.183
        26           h25bf         1   UNL       h25        26     0.07431        1.0080 ; qtot   -1.109
        27           h26bf         1   UNL       h26        27     0.07431        1.0080 ; qtot   -1.034
        28           h27bf         1   UNL       h27        28     0.16500        1.0080 ; qtot   -0.869
        29           h28bf         1   UNL       h28        29     0.16570        1.0080 ; qtot   -0.704
        30           h29bf         1   UNL       h29        30     0.14798        1.0080 ; qtot   -0.556
        31           h30bf         1   UNL       h30        31     0.14806        1.0080 ; qtot   -0.407
        32           h31bf         1   UNL       h31        32     0.14797        1.0080 ; qtot   -0.260
        33           h32bf         1   UNL       h32        33     0.16112        1.0080 ; qtot   -0.098
        34           h33bf         1   UNL       h33        34     0.09839        1.0080 ; qtot    0.000

[ bonds ]
;       ai        aj funct               r               k
         1         3     1        0.150563   227745.891553    ;  uncertainty r = 0.000056, k = 12.375427
         1        25     1        0.109300   310407.650391    ;  uncertainty r = 0.000037, k = 2.522932
         1        26     1        0.109300   310407.650391    ;  uncertainty r = 0.000037, k = 2.522932
         1        27     1        0.109300   310407.624854    ;  uncertainty r = 0.000037, k = 2.522949
         2         3     1        0.140556   332673.762500    ;  uncertainty r = 0.000210, k = 10.577177
         2         7     1        0.140659   328762.600977    ;  uncertainty r = 0.000153, k = 9.729569
         2        22     1        0.143393   320355.197217    ;  uncertainty r = 0.000046, k = 11.241406
         3         4     1        0.140045   324992.480908    ;  uncertainty r = 0.000068, k = 13.975135
         4         5     1        0.139453   342039.063232    ;  uncertainty r = 0.000082, k = 2.902496
         4        16     1        0.179124   131847.086987    ;  uncertainty r = 0.000153, k = 9.720364
         5         6     1        0.138578   368393.385645    ;  uncertainty r = 0.000071, k = 2.877267
         5        28     1        0.108427   328333.832910    ;  uncertainty r = 0.000021, k = 1.691794
         6         7     1        0.139126   356605.430420    ;  uncertainty r = 0.000050, k = 4.540866
         6        29     1        0.108732   335614.156348    ;  uncertainty r = 0.000043, k = 1.392607
         7         8     1        0.137246   318545.407812    ;  uncertainty r = 0.000109, k = 16.130898
         8         9     1        0.138274   316063.200781    ;  uncertainty r = 0.000144, k = 8.137251
         9        10     1        0.139499   353117.750781    ;  uncertainty r = 0.000037, k = 4.083639
         9        15     1        0.139175   357049.929346    ;  uncertainty r = 0.000040, k = 1.599804
        10        11     1        0.139313   371545.405518    ;  uncertainty r = 0.000033, k = 3.108118
        10        30     1        0.108821   336750.966309    ;  uncertainty r = 0.000014, k = 0.848524
        11        12     1        0.139278   368932.448486    ;  uncertainty r = 0.000020, k = 0.836271
        11        31     1        0.108721   333155.239160    ;  uncertainty r = 0.000014, k = 1.465200
        12        13     1        0.140423   358778.561816    ;  uncertainty r = 0.000038, k = 1.566171
        12        32     1        0.108659   333065.450684    ;  uncertainty r = 0.000011, k = 0.708102
        13        14     1        0.143697   315283.399609    ;  uncertainty r = 0.000023, k = 4.512226
        13        15     1        0.140111   358748.300342    ;  uncertainty r = 0.000040, k = 2.814738
        14        24     1        0.116658  1127258.060547    ;  uncertainty r = 0.000026, k = 3.049491
        15        33     1        0.108709   335347.651074    ;  uncertainty r = 0.000022, k = 1.775084
        16        17     1        0.147055   488743.193555    ;  uncertainty r = 0.000104, k = 7.750313
        16        18     1        0.147055   488743.193555    ;  uncertainty r = 0.000104, k = 7.750313
        16        19     1        0.186445   143967.062939    ;  uncertainty r = 0.000137, k = 20.015666
        19        20     1        0.134900   311469.508936    ;  uncertainty r = 0.000150, k = 4.024953
        19        21     1        0.134900   311469.534473    ;  uncertainty r = 0.000150, k = 4.024942
        19        34     1        0.109689   322360.243359    ;  uncertainty r = 0.000138, k = 6.933348
        22        23     1        0.116644  1122936.262305    ;  uncertainty r = 0.000040, k = 2.944390

[ angles ]
;       ai        aj        ak funct           theta             cth
         1         3         2     1      117.328590      399.253648    ;  uncertainty theta = 0.004685, k = 0.449222
         1         3         4     1      119.258018      390.706346    ;  uncertainty theta = 0.005370, k = 0.273892
         2         3         4     1      122.126755      435.158792    ;  uncertainty theta = 0.005834, k = 0.116374
         2         7         6     1      122.451500      383.193264    ;  uncertainty theta = 0.005127, k = 0.161543
         2         7         8     1      115.528091      425.106747    ;  uncertainty theta = 0.006294, k = 0.093155
         2        22        23     1      180.000000      224.427810    ;  uncertainty theta = 0.000000, k = 0.634360
         3         1        25     1      108.869339      396.092377    ;  uncertainty theta = 0.001419, k = 0.063266
         3         1        26     1      108.869339      396.092377    ;  uncertainty theta = 0.001419, k = 0.063266
         3         1        27     1      108.869339      396.092377    ;  uncertainty theta = 0.001419, k = 0.063266
         3         2         7     1      125.045700      447.284067    ;  uncertainty theta = 0.009751, k = 0.185429
         3         2        22     1      115.642136      366.294816    ;  uncertainty theta = 0.004813, k = 0.251095
         3         4         5     1      126.019981      446.756055    ;  uncertainty theta = 0.008991, k = 0.069688
         3         4        16     1      114.599892      351.888854    ;  uncertainty theta = 0.007828, k = 0.263990
         4         5         6     1      121.041382      490.511881    ;  uncertainty theta = 0.003866, k = 0.106245
         4         5        28     1      118.253769      259.151560    ;  uncertainty theta = 0.001089, k = 0.111547
         4        16        17     1      114.869827      619.309505    ;  uncertainty theta = 0.006217, k = 0.130615
         4        16        18     1      114.869827      619.309505    ;  uncertainty theta = 0.006217, k = 0.130615
         4        16        19     1      103.525223      517.007302    ;  uncertainty theta = 0.008479, k = 0.272932
         5         4        16     1      113.792068      365.194135    ;  uncertainty theta = 0.010350, k = 0.269350
         5         6         7     1      118.666489      512.356803    ;  uncertainty theta = 0.002951, k = 0.064849
         5         6        29     1      120.715965      277.814478    ;  uncertainty theta = 0.002084, k = 0.046957
         6         5        28     1      120.187119      280.352579    ;  uncertainty theta = 0.002609, k = 0.071796
         6         7         8     1      120.564743      423.949054    ;  uncertainty theta = 0.005570, k = 0.048675
         7         2        22     1      117.692787      392.699038    ;  uncertainty theta = 0.004138, k = 0.239061
         7         6        29     1      119.997925      274.344719    ;  uncertainty theta = 0.002103, k = 0.054809
         7         8         9     1      112.540611      456.467339    ;  uncertainty theta = 0.001397, k = 0.108038
         8         9        10     1      119.255875      411.307579    ;  uncertainty theta = 0.004386, k = 0.077023
         8         9        15     1      118.483292      403.443234    ;  uncertainty theta = 0.005075, k = 0.063757
         9        10        11     1      118.253662      532.462010    ;  uncertainty theta = 0.002131, k = 0.041387
         9        10        30     1      120.340332      274.445271    ;  uncertainty theta = 0.001730, k = 0.083251
         9        15        13     1      119.172813      520.997029    ;  uncertainty theta = 0.002283, k = 0.059230
         9        15        33     1      120.890213      278.023435    ;  uncertainty theta = 0.002317, k = 0.057957
        10         9        15     1      121.709839      382.927359    ;  uncertainty theta = 0.004958, k = 0.142627
        10        11        12     1      120.667091      517.015825    ;  uncertainty theta = 0.001814, k = 0.041678
        10        11        31     1      119.824585      285.456298    ;  uncertainty theta = 0.001823, k = 0.050606
        11        10        30     1      121.141846      290.387387    ;  uncertainty theta = 0.001787, k = 0.030043
        11        12        13     1      119.004944      525.277399    ;  uncertainty theta = 0.001496, k = 0.073458
        11        12        32     1      120.895203      285.103503    ;  uncertainty theta = 0.001801, k = 0.048958
        12        11        31     1      119.998390      283.188316    ;  uncertainty theta = 0.001403, k = 0.015503
        12        13        14     1      119.702896      376.155460    ;  uncertainty theta = 0.001410, k = 0.090793
        12        13        15     1      121.762619      456.783999    ;  uncertainty theta = 0.001530, k = 0.136154
        13        12        32     1      119.471947      282.614178    ;  uncertainty theta = 0.002513, k = 0.057133
        13        14        24     1      180.000000      235.218181    ;  uncertainty theta = 0.000000, k = 0.683578
        13        15        33     1      120.504135      283.709145    ;  uncertainty theta = 0.004452, k = 0.073712
        14        13        15     1      118.787682      371.925462    ;  uncertainty theta = 0.002926, k = 0.116782
        16        19        20     1      106.165054      513.588362    ;  uncertainty theta = 0.002144, k = 0.189378
        16        19        21     1      106.165054      513.588362    ;  uncertainty theta = 0.002144, k = 0.189378
        16        19        34     1      112.292374      378.481795    ;  uncertainty theta = 0.009920, k = 0.239369
        17        16        18     1      124.893799      861.192664    ;  uncertainty theta = 0.002583, k = 0.072264
        17        16        19     1      107.430016      524.555816    ;  uncertainty theta = 0.005187, k = 0.168070
        18        16        19     1      107.430016      524.555816    ;  uncertainty theta = 0.005187, k = 0.168070
        20        19        21     1      109.477539      835.740018    ;  uncertainty theta = 0.003850, k = 0.102696
        20        19        34     1      112.516335      472.158744    ;  uncertainty theta = 0.004961, k = 0.117406
        21        19        34     1      112.516335      472.158744    ;  uncertainty theta = 0.004961, k = 0.117406
        25         1        26     1      106.774216      317.750144    ;  uncertainty theta = 0.001219, k = 0.041675
        25         1        27     1      106.774216      317.750144    ;  uncertainty theta = 0.001219, k = 0.041674
        26         1        27     1      106.774216      317.750144    ;  uncertainty theta = 0.001219, k = 0.041674

[ dihedrals ] ; propers for gromacs 4.5 or higher, use funct 9
;       ai        aj        ak        al funct           phase               k        pn
         1         3         2         7     9        0.000000       -0.201963         1    ;  uncertainty k = 0.505348
         1         3         2         7     9      180.000000        8.548361         2    ;  uncertainty k = 0.369172
         1         3         2         7     9        0.000000        1.243393         3    ;  uncertainty k = 0.224550
         1         3         2         7     9      180.000000        1.594942         4    ;  uncertainty k = 0.225658
         1         3         2        22     9        0.000000       -0.395916         1    ;  uncertainty k = 0.270010
         1         3         2        22     9      180.000000       11.358470         2    ;  uncertainty k = 0.528183
         1         3         2        22     9        0.000000        0.752502         3    ;  uncertainty k = 0.394156
         1         3         2        22     9      180.000000        1.163084         4    ;  uncertainty k = 0.196324
         1         3         4         5     9        0.000000       -0.104964         1    ;  uncertainty k = 0.266663
         1         3         4         5     9      180.000000        8.456692         2    ;  uncertainty k = 0.272374
         1         3         4         5     9        0.000000        1.164118         3    ;  uncertainty k = 0.271532
         1         3         4         5     9      180.000000        1.503296         4    ;  uncertainty k = 0.174308
         1         3         4        16     9        0.000000       -0.615824         1    ;  uncertainty k = 0.723128
         1         3         4        16     9      180.000000        9.485186         2    ;  uncertainty k = 0.170320
         1         3         4        16     9        0.000000        1.006853         3    ;  uncertainty k = 0.186016
         1         3         4        16     9      180.000000        1.324781         4    ;  uncertainty k = 0.168981
         2         3         1        25     9        0.000000        0.045342         1    ;  uncertainty k = 0.619703
         2         3         1        25     9      180.000000        3.541732         2    ;  uncertainty k = 0.322816
         2         3         1        25     9        0.000000        0.339284         3    ;  uncertainty k = 0.082991
         2         3         1        25     9      180.000000        0.400067         4    ;  uncertainty k = 0.107839
         2         3         1        26     9        0.000000        0.045342         1    ;  uncertainty k = 0.619703
         2         3         1        26     9      180.000000        3.541732         2    ;  uncertainty k = 0.322816
         2         3         1        26     9        0.000000        0.339284         3    ;  uncertainty k = 0.082991
         2         3         1        26     9      180.000000        0.400067         4    ;  uncertainty k = 0.107839
         2         3         1        27     9        0.000000        0.045342         1    ;  uncertainty k = 0.619703
         2         3         1        27     9      180.000000        3.541732         2    ;  uncertainty k = 0.322817
         2         3         1        27     9        0.000000        0.339283         3    ;  uncertainty k = 0.082991
         2         3         1        27     9      180.000000        0.400067         4    ;  uncertainty k = 0.107839
         2         3         4         5     9        0.000000       -0.103069         1    ;  uncertainty k = 0.209680
         2         3         4         5     9      180.000000        7.584687         2    ;  uncertainty k = 0.635775
         2         3         4         5     9        0.000000        0.627894         3    ;  uncertainty k = 0.049378
         2         3         4         5     9      180.000000        1.291431         4    ;  uncertainty k = 0.269843
         2         3         4        16     9        0.000000        0.539457         1    ;  uncertainty k = 0.762803
         2         3         4        16     9      180.000000        8.705858         2    ;  uncertainty k = 0.571105
         2         3         4        16     9        0.000000        1.502027         3    ;  uncertainty k = 0.269961
         2         3         4        16     9      180.000000        1.686645         4    ;  uncertainty k = 0.165624
         2         7         6         5     9        0.000000        0.214667         1    ;  uncertainty k = 0.435182
         2         7         6         5     9      180.000000        8.368867         2    ;  uncertainty k = 0.442711
         2         7         6         5     9        0.000000        0.474572         3    ;  uncertainty k = 0.239900
         2         7         6         5     9      180.000000        1.388128         4    ;  uncertainty k = 0.265079
         2         7         6        29     9        0.000000        0.151668         1    ;  uncertainty k = 0.508778
         2         7         6        29     9      180.000000        6.497969         2    ;  uncertainty k = 0.632458
         2         7         6        29     9        0.000000        1.354962         3    ;  uncertainty k = 0.377172
         2         7         6        29     9      180.000000        1.559298         4    ;  uncertainty k = 0.195142
         2         7         8         9     9        0.000000        2.072577         1    ;  uncertainty k = 0.823648
         2         7         8         9     9      180.000000        7.399443         2    ;  uncertainty k = 0.244052
         2         7         8         9     9        0.000000       -0.098705         3    ;  uncertainty k = 0.271945
         2         7         8         9     9      180.000000        0.189419         4    ;  uncertainty k = 0.097214
         3         2         7         6     9        0.000000       -0.358148         1    ;  uncertainty k = 0.638344
         3         2         7         6     9      180.000000        5.533787         2    ;  uncertainty k = 1.013432
         3         2         7         6     9        0.000000        0.620501         3    ;  uncertainty k = 0.491443
         3         2         7         6     9      180.000000        1.336522         4    ;  uncertainty k = 0.314338
         3         2         7         8     9        0.000000        0.191767         1    ;  uncertainty k = 0.263004
         3         2         7         8     9      180.000000        8.579258         2    ;  uncertainty k = 0.548994
         3         2         7         8     9        0.000000        1.316844         3    ;  uncertainty k = 0.317445
         3         2         7         8     9      180.000000        1.668206         4    ;  uncertainty k = 0.157689
         3         2        22        23     9        0.000000        0.000000         1    ;  uncertainty k = 0.000000
         3         2        22        23     9      180.000000        0.000000         2    ;  uncertainty k = 0.000000
         3         2        22        23     9        0.000000        0.000000         3    ;  uncertainty k = 0.000000
         3         2        22        23     9      180.000000        0.000000         4    ;  uncertainty k = 0.000000
         3         4         5         6     9        0.000000        0.078077         1    ;  uncertainty k = 0.187077
         3         4         5         6     9      180.000000        9.587615         2    ;  uncertainty k = 0.430863
         3         4         5         6     9        0.000000       -0.203894         3    ;  uncertainty k = 0.499007
         3         4         5         6     9      180.000000        1.074209         4    ;  uncertainty k = 0.347433
         3         4         5        28     9        0.000000       -0.196331         1    ;  uncertainty k = 0.178014
         3         4         5        28     9      180.000000        6.488916         2    ;  uncertainty k = 0.563647
         3         4         5        28     9        0.000000        1.112759         3    ;  uncertainty k = 0.391174
         3         4         5        28     9      180.000000        1.536232         4    ;  uncertainty k = 0.092400
         3         4        16        17     9        0.000000       -1.202298         1    ;  uncertainty k = 0.996551
         3         4        16        17     9      180.000000        1.055934         2    ;  uncertainty k = 0.446419
         3         4        16        17     9        0.000000        0.888092         3    ;  uncertainty k = 0.169891
         3         4        16        17     9      180.000000       -0.005935         4    ;  uncertainty k = 0.165361
         3         4        16        18     9        0.000000       -1.202298         1    ;  uncertainty k = 0.996551
         3         4        16        18     9      180.000000        1.055934         2    ;  uncertainty k = 0.446419
         3         4        16        18     9        0.000000        0.888092         3    ;  uncertainty k = 0.169891
         3         4        16        18     9      180.000000       -0.005935         4    ;  uncertainty k = 0.165361
         3         4        16        19     9        0.000000        1.260011         1    ;  uncertainty k = 1.993188
         3         4        16        19     9      180.000000       -0.221024         2    ;  uncertainty k = 0.772615
         3         4        16        19     9        0.000000        0.193123         3    ;  uncertainty k = 0.512599
         3         4        16        19     9      180.000000        0.275748         4    ;  uncertainty k = 0.122112
         4         3         1        25     9        0.000000        0.135307         1    ;  uncertainty k = 0.594822
         4         3         1        25     9      180.000000        3.253016         2    ;  uncertainty k = 0.276968
         4         3         1        25     9        0.000000        0.283269         3    ;  uncertainty k = 0.122088
         4         3         1        25     9      180.000000        0.332431         4    ;  uncertainty k = 0.109416
         4         3         1        26     9        0.000000        0.135307         1    ;  uncertainty k = 0.594822
         4         3         1        26     9      180.000000        3.253016         2    ;  uncertainty k = 0.276968
         4         3         1        26     9        0.000000        0.283269         3    ;  uncertainty k = 0.122088
         4         3         1        26     9      180.000000        0.332431         4    ;  uncertainty k = 0.109416
         4         3         1        27     9        0.000000        0.135308         1    ;  uncertainty k = 0.594822
         4         3         1        27     9      180.000000        3.253017         2    ;  uncertainty k = 0.276968
         4         3         1        27     9        0.000000        0.283269         3    ;  uncertainty k = 0.122088
         4         3         1        27     9      180.000000        0.332431         4    ;  uncertainty k = 0.109416
         4         3         2         7     9        0.000000        0.442163         1    ;  uncertainty k = 0.731398
         4         3         2         7     9      180.000000        7.135993         2    ;  uncertainty k = 0.863360
         4         3         2         7     9        0.000000        0.860582         3    ;  uncertainty k = 0.294567
         4         3         2         7     9      180.000000        1.349574         4    ;  uncertainty k = 0.409491
         4         3         2        22     9        0.000000        0.255215         1    ;  uncertainty k = 0.261409
         4         3         2        22     9      180.000000       11.206731         2    ;  uncertainty k = 0.385610
         4         3         2        22     9        0.000000        1.237793         3    ;  uncertainty k = 0.271243
         4         3         2        22     9      180.000000        1.383261         4    ;  uncertainty k = 0.158443
         4         5         6         7     9        0.000000       -0.086184         1    ;  uncertainty k = 0.321961
         4         5         6         7     9      180.000000       12.213630         2    ;  uncertainty k = 0.419059
         4         5         6         7     9        0.000000       -0.677613         3    ;  uncertainty k = 0.520323
         4         5         6         7     9      180.000000        0.940296         4    ;  uncertainty k = 0.431837
         4         5         6        29     9        0.000000       -0.094684         1    ;  uncertainty k = 0.495471
         4         5         6        29     9      180.000000        8.247037         2    ;  uncertainty k = 0.332617
         4         5         6        29     9        0.000000        1.135256         3    ;  uncertainty k = 0.275720
         4         5         6        29     9      180.000000        1.760426         4    ;  uncertainty k = 0.214824
         4        16        19        20     9        0.000000        1.394462         1    ;  uncertainty k = 0.867509
         4        16        19        20     9      180.000000       -1.368852         2    ;  uncertainty k = 0.645379
         4        16        19        20     9        0.000000        0.240260         3    ;  uncertainty k = 0.359873
         4        16        19        20     9      180.000000       -0.101770         4    ;  uncertainty k = 0.185107
         4        16        19        21     9        0.000000        1.394462         1    ;  uncertainty k = 0.867509
         4        16        19        21     9      180.000000       -1.368852         2    ;  uncertainty k = 0.645379
         4        16        19        21     9        0.000000        0.240260         3    ;  uncertainty k = 0.359873
         4        16        19        21     9      180.000000       -0.101770         4    ;  uncertainty k = 0.185107
         4        16        19        34     9        0.000000        1.216997         1    ;  uncertainty k = 0.871039
         4        16        19        34     9      180.000000       -1.466064         2    ;  uncertainty k = 0.911557
         4        16        19        34     9        0.000000        0.068753         3    ;  uncertainty k = 0.218865
         4        16        19        34     9      180.000000       -0.148279         4    ;  uncertainty k = 0.165265
         5         4        16        17     9        0.000000       -1.782123         1    ;  uncertainty k = 1.230010
         5         4        16        17     9      180.000000        1.198261         2    ;  uncertainty k = 0.677572
         5         4        16        17     9        0.000000        0.229965         3    ;  uncertainty k = 0.343750
         5         4        16        17     9      180.000000        0.038174         4    ;  uncertainty k = 0.210748
         5         4        16        18     9        0.000000       -1.782123         1    ;  uncertainty k = 1.230010
         5         4        16        18     9      180.000000        1.198261         2    ;  uncertainty k = 0.677572
         5         4        16        18     9        0.000000        0.229965         3    ;  uncertainty k = 0.343750
         5         4        16        18     9      180.000000        0.038174         4    ;  uncertainty k = 0.210748
         5         4        16        19     9        0.000000        2.623898         1    ;  uncertainty k = 0.481540
         5         4        16        19     9      180.000000       -0.125757         2    ;  uncertainty k = 0.430352
         5         4        16        19     9        0.000000       -0.114797         3    ;  uncertainty k = 0.668685
         5         4        16        19     9      180.000000        0.286782         4    ;  uncertainty k = 0.166360
         5         6         7         8     9        0.000000       -0.129836         1    ;  uncertainty k = 0.138257
         5         6         7         8     9      180.000000       10.810604         2    ;  uncertainty k = 0.403827
         5         6         7         8     9        0.000000        1.407884         3    ;  uncertainty k = 0.190187
         5         6         7         8     9      180.000000        1.676915         4    ;  uncertainty k = 0.207526
         6         5         4        16     9        0.000000        0.480991         1    ;  uncertainty k = 0.224243
         6         5         4        16     9      180.000000        9.407728         2    ;  uncertainty k = 0.707154
         6         5         4        16     9        0.000000        1.247992         3    ;  uncertainty k = 0.372420
         6         5         4        16     9      180.000000        1.810327         4    ;  uncertainty k = 0.166697
         6         7         2        22     9        0.000000        0.106614         1    ;  uncertainty k = 0.303897
         6         7         2        22     9      180.000000        8.839565         2    ;  uncertainty k = 0.319215
         6         7         2        22     9        0.000000        1.212936         3    ;  uncertainty k = 0.283872
         6         7         2        22     9      180.000000        1.517480         4    ;  uncertainty k = 0.209580
         6         7         8         9     9        0.000000        5.696858         1    ;  uncertainty k = 0.749503
         6         7         8         9     9      180.000000        6.664482         2    ;  uncertainty k = 0.199295
         6         7         8         9     9        0.000000        0.276746         3    ;  uncertainty k = 0.192625
         6         7         8         9     9      180.000000        0.182673         4    ;  uncertainty k = 0.106350
         7         2        22        23     9        0.000000        0.000000         1    ;  uncertainty k = 0.000000
         7         2        22        23     9      180.000000        0.000000         2    ;  uncertainty k = 0.000000
         7         2        22        23     9        0.000000        0.000000         3    ;  uncertainty k = 0.000000
         7         2        22        23     9      180.000000        0.000000         4    ;  uncertainty k = 0.000000
         7         6         5        28     9        0.000000       -0.047971         1    ;  uncertainty k = 0.271946
         7         6         5        28     9      180.000000        8.022109         2    ;  uncertainty k = 0.302100
         7         6         5        28     9        0.000000        1.104320         3    ;  uncertainty k = 0.212298
         7         6         5        28     9      180.000000        1.665648         4    ;  uncertainty k = 0.106680
         7         8         9        10     9        0.000000        3.873268         1    ;  uncertainty k = 0.123287
         7         8         9        10     9      180.000000        4.592242         2    ;  uncertainty k = 0.139152
         7         8         9        10     9        0.000000        0.539734         3    ;  uncertainty k = 0.076048
         7         8         9        10     9      180.000000        0.181819         4    ;  uncertainty k = 0.084637
         7         8         9        15     9        0.000000        3.655727         1    ;  uncertainty k = 0.386311
         7         8         9        15     9      180.000000        4.763650         2    ;  uncertainty k = 0.155206
         7         8         9        15     9        0.000000        0.440530         3    ;  uncertainty k = 0.114177
         7         8         9        15     9      180.000000        0.176197         4    ;  uncertainty k = 0.077798
         8         7         2        22     9        0.000000       -0.254825         1    ;  uncertainty k = 0.946846
         8         7         2        22     9      180.000000       11.702502         2    ;  uncertainty k = 0.388972
         8         7         2        22     9        0.000000        0.900817         3    ;  uncertainty k = 0.232724
         8         7         2        22     9      180.000000        1.236136         4    ;  uncertainty k = 0.267879
         8         7         6        29     9        0.000000        0.003255         1    ;  uncertainty k = 0.229105
         8         7         6        29     9      180.000000        8.852996         2    ;  uncertainty k = 0.436470
         8         7         6        29     9        0.000000        0.761889         3    ;  uncertainty k = 0.234432
         8         7         6        29     9      180.000000        1.161583         4    ;  uncertainty k = 0.159593
         8         9        10        11     9        0.000000       -0.010564         1    ;  uncertainty k = 0.368301
         8         9        10        11     9      180.000000       10.831584         2    ;  uncertainty k = 0.526046
         8         9        10        11     9        0.000000        1.364942         3    ;  uncertainty k = 0.194143
         8         9        10        11     9      180.000000        1.713172         4    ;  uncertainty k = 0.200666
         8         9        10        30     9        0.000000       -0.106382         1    ;  uncertainty k = 0.119914
         8         9        10        30     9      180.000000        8.479068         2    ;  uncertainty k = 0.209265
         8         9        10        30     9        0.000000        0.812898         3    ;  uncertainty k = 0.199796
         8         9        10        30     9      180.000000        1.095442         4    ;  uncertainty k = 0.066169
         8         9        15        13     9        0.000000       -0.019178         1    ;  uncertainty k = 0.309317
         8         9        15        13     9      180.000000       11.379598         2    ;  uncertainty k = 0.450937
         8         9        15        13     9        0.000000        1.194843         3    ;  uncertainty k = 0.076109
         8         9        15        13     9      180.000000        1.622669         4    ;  uncertainty k = 0.123053
         8         9        15        33     9        0.000000        0.116910         1    ;  uncertainty k = 0.228707
         8         9        15        33     9      180.000000        8.509250         2    ;  uncertainty k = 0.307533
         8         9        15        33     9        0.000000        0.829401         3    ;  uncertainty k = 0.253385
         8         9        15        33     9      180.000000        1.142997         4    ;  uncertainty k = 0.105447
         9        10        11        12     9        0.000000       -0.273660         1    ;  uncertainty k = 0.269177
         9        10        11        12     9      180.000000       14.166892         2    ;  uncertainty k = 0.266566
         9        10        11        12     9        0.000000       -0.740315         3    ;  uncertainty k = 0.465613
         9        10        11        12     9      180.000000        0.808799         4    ;  uncertainty k = 0.196651
         9        10        11        31     9        0.000000        0.028810         1    ;  uncertainty k = 0.099946
         9        10        11        31     9      180.000000        7.998576         2    ;  uncertainty k = 0.249258
         9        10        11        31     9        0.000000        1.339007         3    ;  uncertainty k = 0.183214
         9        10        11        31     9      180.000000        1.780412         4    ;  uncertainty k = 0.107748
         9        15        13        12     9        0.000000       -0.157583         1    ;  uncertainty k = 0.269343
         9        15        13        12     9      180.000000       11.448976         2    ;  uncertainty k = 0.170283
         9        15        13        12     9        0.000000       -0.431221         3    ;  uncertainty k = 0.479092
         9        15        13        12     9      180.000000        1.082055         4    ;  uncertainty k = 0.232557
         9        15        13        14     9        0.000000       -0.013250         1    ;  uncertainty k = 0.243481
         9        15        13        14     9      180.000000       10.163543         2    ;  uncertainty k = 0.331214
         9        15        13        14     9        0.000000        1.288062         3    ;  uncertainty k = 0.286819
         9        15        13        14     9      180.000000        1.607687         4    ;  uncertainty k = 0.203909
        10         9        15        13     9        0.000000       -0.099228         1    ;  uncertainty k = 0.154614
        10         9        15        13     9      180.000000        9.469051         2    ;  uncertainty k = 0.425111
        10         9        15        13     9        0.000000        0.175913         3    ;  uncertainty k = 0.388244
        10         9        15        13     9      180.000000        1.254999         4    ;  uncertainty k = 0.357119
        10         9        15        33     9        0.000000        0.349806         1    ;  uncertainty k = 0.319982
        10         9        15        33     9      180.000000        6.283788         2    ;  uncertainty k = 0.700275
        10         9        15        33     9        0.000000        1.457261         3    ;  uncertainty k = 0.254637
        10         9        15        33     9      180.000000        1.589758         4    ;  uncertainty k = 0.193319
        10        11        12        13     9        0.000000       -0.191418         1    ;  uncertainty k = 0.085248
        10        11        12        13     9      180.000000       14.695344         2    ;  uncertainty k = 0.251111
        10        11        12        13     9        0.000000       -0.944681         3    ;  uncertainty k = 0.407108
        10        11        12        13     9      180.000000        0.668807         4    ;  uncertainty k = 0.210518
        10        11        12        32     9        0.000000        0.054849         1    ;  uncertainty k = 0.158597
        10        11        12        32     9      180.000000        7.725095         2    ;  uncertainty k = 0.316381
        10        11        12        32     9        0.000000        1.405233         3    ;  uncertainty k = 0.278317
        10        11        12        32     9      180.000000        1.816786         4    ;  uncertainty k = 0.096663
        11        10         9        15     9        0.000000        0.122439         1    ;  uncertainty k = 0.176397
        11        10         9        15     9      180.000000        9.344983         2    ;  uncertainty k = 0.625282
        11        10         9        15     9        0.000000       -0.009857         3    ;  uncertainty k = 0.428225
        11        10         9        15     9      180.000000        1.153534         4    ;  uncertainty k = 0.435917
        11        12        13        14     9        0.000000        0.227960         1    ;  uncertainty k = 0.151110
        11        12        13        14     9      180.000000        9.980152         2    ;  uncertainty k = 0.402501
        11        12        13        14     9        0.000000        1.322345         3    ;  uncertainty k = 0.259923
        11        12        13        14     9      180.000000        1.631737         4    ;  uncertainty k = 0.149444
        11        12        13        15     9        0.000000       -0.067965         1    ;  uncertainty k = 0.208497
        11        12        13        15     9      180.000000       11.826039         2    ;  uncertainty k = 0.434314
        11        12        13        15     9        0.000000       -0.856149         3    ;  uncertainty k = 0.491999
        11        12        13        15     9      180.000000        0.824528         4    ;  uncertainty k = 0.334934
        12        11        10        30     9        0.000000        0.133109         1    ;  uncertainty k = 0.113500
        12        11        10        30     9      180.000000        7.647290         2    ;  uncertainty k = 0.405610
        12        11        10        30     9        0.000000        1.532047         3    ;  uncertainty k = 0.215209
        12        11        10        30     9      180.000000        1.851311         4    ;  uncertainty k = 0.136173
        12        13        14        24     9        0.000000        0.000000         1    ;  uncertainty k = 0.000000
        12        13        14        24     9      180.000000        0.000000         2    ;  uncertainty k = 0.000000
        12        13        14        24     9        0.000000        0.000000         3    ;  uncertainty k = 0.000000
        12        13        14        24     9      180.000000        0.000000         4    ;  uncertainty k = 0.000000
        12        13        15        33     9        0.000000        0.241770         1    ;  uncertainty k = 0.339103
        12        13        15        33     9      180.000000        6.671058         2    ;  uncertainty k = 0.608798
        12        13        15        33     9        0.000000        1.450533         3    ;  uncertainty k = 0.242350
        12        13        15        33     9      180.000000        1.662846         4    ;  uncertainty k = 0.137405
        13        12        11        31     9        0.000000        0.013009         1    ;  uncertainty k = 0.170215
        13        12        11        31     9      180.000000        8.076780         2    ;  uncertainty k = 0.423363
        13        12        11        31     9        0.000000        1.347166         3    ;  uncertainty k = 0.307778
        13        12        11        31     9      180.000000        1.725624         4    ;  uncertainty k = 0.169734
        14        13        12        32     9        0.000000       -0.370593         1    ;  uncertainty k = 0.514893
        14        13        12        32     9      180.000000        7.139171         2    ;  uncertainty k = 0.087070
        14        13        12        32     9        0.000000        0.573855         3    ;  uncertainty k = 0.100783
        14        13        12        32     9      180.000000        1.007030         4    ;  uncertainty k = 0.187444
        14        13        15        33     9        0.000000       -0.316569         1    ;  uncertainty k = 0.339752
        14        13        15        33     9      180.000000        7.405316         2    ;  uncertainty k = 0.356198
        14        13        15        33     9        0.000000        0.517711         3    ;  uncertainty k = 0.132122
        14        13        15        33     9      180.000000        0.965581         4    ;  uncertainty k = 0.217219
        15         9        10        30     9        0.000000        0.222079         1    ;  uncertainty k = 0.191949
        15         9        10        30     9      180.000000        6.066393         2    ;  uncertainty k = 0.655694
        15         9        10        30     9        0.000000        1.454943         3    ;  uncertainty k = 0.382183
        15         9        10        30     9      180.000000        1.570975         4    ;  uncertainty k = 0.156820
        15        13        12        32     9        0.000000        0.131175         1    ;  uncertainty k = 0.415783
        15        13        12        32     9      180.000000        6.797926         2    ;  uncertainty k = 0.567351
        15        13        12        32     9        0.000000        1.416129         3    ;  uncertainty k = 0.340267
        15        13        12        32     9      180.000000        1.597031         4    ;  uncertainty k = 0.121930
        15        13        14        24     9        0.000000        0.000000         1    ;  uncertainty k = 0.000000
        15        13        14        24     9      180.000000        0.000000         2    ;  uncertainty k = 0.000000
        15        13        14        24     9        0.000000        0.000000         3    ;  uncertainty k = 0.000000
        15        13        14        24     9      180.000000        0.000000         4    ;  uncertainty k = 0.000000
        16         4         5        28     9        0.000000       -0.480520         1    ;  uncertainty k = 0.493841
        16         4         5        28     9      180.000000        7.338078         2    ;  uncertainty k = 0.461468
        16         4         5        28     9        0.000000        0.806938         3    ;  uncertainty k = 0.117306
        16         4         5        28     9      180.000000        1.082241         4    ;  uncertainty k = 0.207189
        17        16        19        20     9        0.000000        0.733809         1    ;  uncertainty k = 0.493805
        17        16        19        20     9      180.000000        0.162107         2    ;  uncertainty k = 0.198500
        17        16        19        20     9        0.000000        0.557494         3    ;  uncertainty k = 0.282181
        17        16        19        20     9      180.000000       -0.016705         4    ;  uncertainty k = 0.184637
        17        16        19        21     9        0.000000        0.733809         1    ;  uncertainty k = 0.493805
        17        16        19        21     9      180.000000        0.162107         2    ;  uncertainty k = 0.198500
        17        16        19        21     9        0.000000        0.557494         3    ;  uncertainty k = 0.282181
        17        16        19        21     9      180.000000       -0.016705         4    ;  uncertainty k = 0.184637
        17        16        19        34     9        0.000000        0.062416         1    ;  uncertainty k = 0.548852
        17        16        19        34     9      180.000000       -0.303682         2    ;  uncertainty k = 0.164891
        17        16        19        34     9        0.000000        0.231561         3    ;  uncertainty k = 0.149033
        17        16        19        34     9      180.000000       -0.080590         4    ;  uncertainty k = 0.119640
        18        16        19        20     9        0.000000        0.733809         1    ;  uncertainty k = 0.493805
        18        16        19        20     9      180.000000        0.162107         2    ;  uncertainty k = 0.198500
        18        16        19        20     9        0.000000        0.557494         3    ;  uncertainty k = 0.282181
        18        16        19        20     9      180.000000       -0.016705         4    ;  uncertainty k = 0.184637
        18        16        19        21     9        0.000000        0.733809         1    ;  uncertainty k = 0.493805
        18        16        19        21     9      180.000000        0.162107         2    ;  uncertainty k = 0.198500
        18        16        19        21     9        0.000000        0.557494         3    ;  uncertainty k = 0.282181
        18        16        19        21     9      180.000000       -0.016705         4    ;  uncertainty k = 0.184637
        18        16        19        34     9        0.000000        0.062416         1    ;  uncertainty k = 0.548852
        18        16        19        34     9      180.000000       -0.303682         2    ;  uncertainty k = 0.164891
        18        16        19        34     9        0.000000        0.231561         3    ;  uncertainty k = 0.149033
        18        16        19        34     9      180.000000       -0.080590         4    ;  uncertainty k = 0.119640
        28         5         6        29     9        0.000000        0.063924         1    ;  uncertainty k = 0.279637
        28         5         6        29     9      180.000000        7.697545         2    ;  uncertainty k = 0.520340
        28         5         6        29     9        0.000000       -0.377168         3    ;  uncertainty k = 0.424266
        28         5         6        29     9      180.000000        0.263476         4    ;  uncertainty k = 0.142166
        30        10        11        31     9        0.000000       -0.098936         1    ;  uncertainty k = 0.163320
        30        10        11        31     9      180.000000        7.826361         2    ;  uncertainty k = 0.347991
        30        10        11        31     9        0.000000       -0.405271         3    ;  uncertainty k = 0.262600
        30        10        11        31     9      180.000000        0.106690         4    ;  uncertainty k = 0.121689
        31        11        12        32     9        0.000000       -0.110663         1    ;  uncertainty k = 0.118757
        31        11        12        32     9      180.000000        7.747311         2    ;  uncertainty k = 0.569549
        31        11        12        32     9        0.000000       -0.374848         3    ;  uncertainty k = 0.251995
        31        11        12        32     9      180.000000        0.081283         4    ;  uncertainty k = 0.168610

[ dihedrals ] ; impropers
;       ai        aj        ak        al funct           phase               k        pn
         2         3         7        22     4      180.000000        8.763428         2    ;  uncertainty k = 0.226363
         2         7        22         3     4      180.000000        8.763428         2    ;  uncertainty k = 0.226363
         2        22         3         7     4      180.000000        8.763428         2    ;  uncertainty k = 0.226363
         3         1         2         4     4      180.000000       18.064256         2    ;  uncertainty k = 0.176572
         3         2         4         1     4      180.000000       18.064256         2    ;  uncertainty k = 0.176572
         3         4         1         2     4      180.000000       18.064256         2    ;  uncertainty k = 0.176572
         4         3         5        16     4      180.000000        4.930532         2    ;  uncertainty k = 0.154298
         4         5        16         3     4      180.000000        4.930532         2    ;  uncertainty k = 0.154298
         4        16         3         5     4      180.000000        4.930532         2    ;  uncertainty k = 0.154298
         5         4         6        28     4      180.000000        6.173862         2    ;  uncertainty k = 0.155289
         5         6        28         4     4      180.000000        6.173862         2    ;  uncertainty k = 0.155289
         5        28         4         6     4      180.000000        6.173862         2    ;  uncertainty k = 0.155289
         6         5         7        29     4      180.000000        1.771424         2    ;  uncertainty k = 0.130709
         6         7        29         5     4      180.000000        1.771424         2    ;  uncertainty k = 0.130709
         6        29         5         7     4      180.000000        1.771424         2    ;  uncertainty k = 0.130709
         7         2         6         8     4      180.000000       19.493267         2    ;  uncertainty k = 0.119345
         7         6         8         2     4      180.000000       19.493267         2    ;  uncertainty k = 0.119345
         7         8         2         6     4      180.000000       19.493267         2    ;  uncertainty k = 0.119345
         9         8        10        15     4      180.000000       18.595180         2    ;  uncertainty k = 0.072441
         9        10        15         8     4      180.000000       18.595180         2    ;  uncertainty k = 0.072441
         9        15         8        10     4      180.000000       18.595180         2    ;  uncertainty k = 0.072441
        10         9        11        30     4      180.000000        3.482682         2    ;  uncertainty k = 0.175013
        10        11        30         9     4      180.000000        3.482682         2    ;  uncertainty k = 0.175013
        10        30         9        11     4      180.000000        3.482682         2    ;  uncertainty k = 0.175013
        11        10        12        31     4      180.000000        4.425057         2    ;  uncertainty k = 0.210499
        11        12        31        10     4      180.000000        4.425057         2    ;  uncertainty k = 0.210499
        11        31        10        12     4      180.000000        4.425057         2    ;  uncertainty k = 0.210499
        12        11        13        32     4      180.000000        3.946077         2    ;  uncertainty k = 0.291841
        12        13        32        11     4      180.000000        3.946077         2    ;  uncertainty k = 0.291841
        12        32        11        13     4      180.000000        3.946077         2    ;  uncertainty k = 0.291841
        13        12        14        15     4      180.000000       10.873589         2    ;  uncertainty k = 0.166013
        13        14        15        12     4      180.000000       10.873589         2    ;  uncertainty k = 0.166013
        13        15        12        14     4      180.000000       10.873589         2    ;  uncertainty k = 0.166013
        15         9        13        33     4      180.000000        3.218802         2    ;  uncertainty k = 0.253695
        15        13        33         9     4      180.000000        3.218802         2    ;  uncertainty k = 0.253695
        15        33         9        13     4      180.000000        3.218802         2    ;  uncertainty k = 0.253695

[ pairs ]
;       ai        aj funct
         1         5     1
         1         7     1
         1        16     1
         1        22     1
         2         5     1
         2         9     1
         2        16     1
         2        25     1
         2        26     1
         2        27     1
         2        29     1
         3         6     1
         3         8     1
         3        17     1
         3        18     1
         3        19     1
         3        23     1
         3        28     1
         4         7     1
         4        20     1
         4        21     1
         4        22     1
         4        25     1
         4        26     1
         4        27     1
         4        29     1
         4        34     1
         5         8     1
         5        17     1
         5        18     1
         5        19     1
         6         9     1
         6        16     1
         6        22     1
         7        10     1
         7        15     1
         7        23     1
         7        28     1
         8        11     1
         8        13     1
         8        22     1
         8        29     1
         8        30     1
         8        33     1
         9        12     1
         9        14     1
         9        31     1
        10        13     1
        10        32     1
        10        33     1
        11        14     1
        11        15     1
        12        24     1
        12        30     1
        12        33     1
        13        31     1
        14        32     1
        14        33     1
        15        24     1
        15        30     1
        15        32     1
        16        28     1
        17        20     1
        17        21     1
        17        34     1
        18        20     1
        18        21     1
        18        34     1
        28        29     1
        30        31     1
        31        32     1
