; ITP file created by ByteFF-joint-25, 2026-02-17 09:18:12.258021

[ atomtypes ]
;name           bonded.type        at.num        mass        charge   ptype           sigma         epsilon
 o0bf                                   8      0.0000       0.00000       A     3.24325e-01     3.88453e-01    ;  uncertainty sigma = 0.000019, epsilon = 0.000810
 c1bf                                   6      0.0000       0.00000       A     3.39711e-01     4.50879e-01    ;  uncertainty sigma = 0.000027, epsilon = 0.001583
 c2bf                                   6      0.0000       0.00000       A     3.39793e-01     4.49715e-01    ;  uncertainty sigma = 0.000027, epsilon = 0.002290
 c3bf                                   6      0.0000       0.00000       A     3.39776e-01     4.51203e-01    ;  uncertainty sigma = 0.000025, epsilon = 0.001947
 c4bf                                   6      0.0000       0.00000       A     3.31536e-01     4.13763e-01    ;  uncertainty sigma = 0.000011, epsilon = 0.002029
 c5bf                                   6      0.0000       0.00000       A     3.31576e-01     4.12617e-01    ;  uncertainty sigma = 0.000020, epsilon = 0.000970
 c6bf                                   6      0.0000       0.00000       A     3.31515e-01     4.13019e-01    ;  uncertainty sigma = 0.000024, epsilon = 0.002444
 c7bf                                   6      0.0000       0.00000       A     3.31526e-01     4.13435e-01    ;  uncertainty sigma = 0.000007, epsilon = 0.000844
 c8bf                                   6      0.0000       0.00000       A     3.31530e-01     4.13684e-01    ;  uncertainty sigma = 0.000010, epsilon = 0.000463
 c9bf                                   6      0.0000       0.00000       A     3.31531e-01     4.13283e-01    ;  uncertainty sigma = 0.000020, epsilon = 0.000929
 o10bf                                  8      0.0000       0.00000       A     3.15533e-01     3.01748e-01    ;  uncertainty sigma = 0.000029, epsilon = 0.001441
 c11bf                                  6      0.0000       0.00000       A     3.31495e-01     4.13941e-01    ;  uncertainty sigma = 0.000010, epsilon = 0.001010
 c12bf                                  6      0.0000       0.00000       A     3.31520e-01     4.13586e-01    ;  uncertainty sigma = 0.000002, epsilon = 0.000805
 c13bf                                  6      0.0000       0.00000       A     3.31497e-01     4.13352e-01    ;  uncertainty sigma = 0.000008, epsilon = 0.000492
 f14bf                                  9      0.0000       0.00000       A     3.03420e-01     3.47893e-01    ;  uncertainty sigma = 0.000010, epsilon = 0.000765
 c15bf                                  6      0.0000       0.00000       A     3.31510e-01     4.13401e-01    ;  uncertainty sigma = 0.000009, epsilon = 0.000546
 c16bf                                  6      0.0000       0.00000       A     3.31508e-01     4.13715e-01    ;  uncertainty sigma = 0.000016, epsilon = 0.000826
 c17bf                                  6      0.0000       0.00000       A     3.47927e-01     6.68046e-01    ;  uncertainty sigma = 0.000023, epsilon = 0.001608
 c18bf                                  6      0.0000       0.00000       A     3.31520e-01     4.13321e-01    ;  uncertainty sigma = 0.000008, epsilon = 0.000748
 s19bf                                 16      0.0000       0.00000       A     4.05850e-01     2.55204e-01    ;  uncertainty sigma = 0.000020, epsilon = 0.004067
 o20bf                                  8      0.0000       0.00000       A     3.04823e-01     6.12515e-01    ;  uncertainty sigma = 0.000023, epsilon = 0.001528
 o21bf                                  8      0.0000       0.00000       A     3.04823e-01     6.12515e-01    ;  uncertainty sigma = 0.000023, epsilon = 0.001528
 f22bf                                  9      0.0000       0.00000       A     3.03492e-01     3.47567e-01    ;  uncertainty sigma = 0.000037, epsilon = 0.001363
 n23bf                                  7      0.0000       0.00000       A     3.27375e-01     4.59084e-01    ;  uncertainty sigma = 0.000021, epsilon = 0.000492
 f24bf                                  9      0.0000       0.00000       A     3.03507e-01     3.48788e-01    ;  uncertainty sigma = 0.000067, epsilon = 0.002725
 n25bf                                  7      0.0000       0.00000       A     3.64926e-01     1.35405e-01    ;  uncertainty sigma = 0.000078, epsilon = 0.002837
 h26bf                                  1      0.0000       0.00000       A     5.38311e-02     1.93883e-02    ;  uncertainty sigma = 0.000101, epsilon = 0.000896
 h27bf                                  1      0.0000       0.00000       A     2.42240e-01     8.62388e-02    ;  uncertainty sigma = 0.000069, epsilon = 0.000727
 h28bf                                  1      0.0000       0.00000       A     2.42222e-01     8.61770e-02    ;  uncertainty sigma = 0.000069, epsilon = 0.001221
 h29bf                                  1      0.0000       0.00000       A     2.42230e-01     8.67797e-02    ;  uncertainty sigma = 0.000071, epsilon = 0.001501
 h30bf                                  1      0.0000       0.00000       A     2.62561e-01     6.72196e-02    ;  uncertainty sigma = 0.000018, epsilon = 0.000741
 h31bf                                  1      0.0000       0.00000       A     2.62556e-01     6.70855e-02    ;  uncertainty sigma = 0.000006, epsilon = 0.000381
 h32bf                                  1      0.0000       0.00000       A     2.62552e-01     6.72491e-02    ;  uncertainty sigma = 0.000007, epsilon = 0.000350
 h33bf                                  1      0.0000       0.00000       A     2.62545e-01     6.70249e-02    ;  uncertainty sigma = 0.000017, epsilon = 0.000507
 h34bf                                  1      0.0000       0.00000       A     2.62547e-01     6.71166e-02    ;  uncertainty sigma = 0.000014, epsilon = 0.000743
 h35bf                                  1      0.0000       0.00000       A     1.10687e-01     4.13796e-02    ;  uncertainty sigma = 0.000118, epsilon = 0.001002
 h36bf                                  1      0.0000       0.00000       A     1.10687e-01     4.13797e-02    ;  uncertainty sigma = 0.000118, epsilon = 0.001002

[ moleculetype ]
;name             nrexcl
 MOL                   3

[ atoms ]
;       nr            type      resi   res      atom      cgnr      charge          mass ; qtot
         1            o0bf         1   UNL        o0         1    -0.57860       15.9990 ; qtot   -0.579
         2            c1bf         1   UNL        c1         2     0.17277       12.0110 ; qtot   -0.406
         3            c2bf         1   UNL        c2         3     0.12554       12.0110 ; qtot   -0.280
         4            c3bf         1   UNL        c3         4     0.21512       12.0110 ; qtot   -0.065
         5            c4bf         1   UNL        c4         5    -0.13953       12.0110 ; qtot   -0.205
         6            c5bf         1   UNL        c5         6     0.02477       12.0110 ; qtot   -0.180
         7            c6bf         1   UNL        c6         7    -0.23932       12.0110 ; qtot   -0.419
         8            c7bf         1   UNL        c7         8    -0.00022       12.0110 ; qtot   -0.419
         9            c8bf         1   UNL        c8         9    -0.18410       12.0110 ; qtot   -0.604
        10            c9bf         1   UNL        c9        10     0.18983       12.0110 ; qtot   -0.414
        11           o10bf         1   UNL       o10        11    -0.24473       15.9990 ; qtot   -0.658
        12           c11bf         1   UNL       c11        12     0.15076       12.0110 ; qtot   -0.508
        13           c12bf         1   UNL       c12        13    -0.18271       12.0110 ; qtot   -0.690
        14           c13bf         1   UNL       c13        14     0.15843       12.0110 ; qtot   -0.532
        15           f14bf         1   UNL       f14        15    -0.12713       18.9980 ; qtot   -0.659
        16           c15bf         1   UNL       c15        16    -0.15485       12.0110 ; qtot   -0.814
        17           c16bf         1   UNL       c16        17     0.03943       12.0110 ; qtot   -0.775
        18           c17bf         1   UNL       c17        18     0.22805       12.0110 ; qtot   -0.546
        19           c18bf         1   UNL       c18        19    -0.13883       12.0110 ; qtot   -0.685
        20           s19bf         1   UNL       s19        20     1.19745       32.0670 ; qtot    0.512
        21           o20bf         1   UNL       o20        21    -0.59660       15.9990 ; qtot   -0.084
        22           o21bf         1   UNL       o21        22    -0.59660       15.9990 ; qtot   -0.681
        23           f22bf         1   UNL       f22        23    -0.22888       18.9980 ; qtot   -0.910
        24           n23bf         1   UNL       n23        24    -0.34869       14.0070 ; qtot   -1.259
        25           f24bf         1   UNL       f24        25    -0.23011       18.9980 ; qtot   -1.489
        26           n25bf         1   UNL       n25        26    -0.85461       14.0070 ; qtot   -2.343
        27           h26bf         1   UNL       h26        27     0.41580        1.0080 ; qtot   -1.928
        28           h27bf         1   UNL       h27        28     0.08851        1.0080 ; qtot   -1.839
        29           h28bf         1   UNL       h28        29     0.08634        1.0080 ; qtot   -1.753
        30           h29bf         1   UNL       h29        30     0.09240        1.0080 ; qtot   -1.660
        31           h30bf         1   UNL       h30        31     0.16677        1.0080 ; qtot   -1.494
        32           h31bf         1   UNL       h31        32     0.15951        1.0080 ; qtot   -1.334
        33           h32bf         1   UNL       h32        33     0.16858        1.0080 ; qtot   -1.165
        34           h33bf         1   UNL       h33        34     0.16624        1.0080 ; qtot   -0.999
        35           h34bf         1   UNL       h34        35     0.16647        1.0080 ; qtot   -0.833
        36           h35bf         1   UNL       h35        36     0.41638        1.0080 ; qtot   -0.416
        37           h36bf         1   UNL       h36        37     0.41636        1.0080 ; qtot    0.000

[ bonds ]
;       ai        aj funct               r               k
         1         2     1        0.142111   255077.468066    ;  uncertainty r = 0.000196, k = 6.168494
         1        27     1        0.097132   461875.805078    ;  uncertainty r = 0.000048, k = 2.293787
         2         3     1        0.154401   193904.969702    ;  uncertainty r = 0.000143, k = 16.381004
         2         6     1        0.151927   240732.865137    ;  uncertainty r = 0.000114, k = 26.792499
         2        28     1        0.109463   308714.974170    ;  uncertainty r = 0.000069, k = 2.221421
         3         4     1        0.154018   198598.039209    ;  uncertainty r = 0.000118, k = 14.500700
         3        23     1        0.139285   296942.187988    ;  uncertainty r = 0.000253, k = 15.193179
         3        29     1        0.109359   313142.981250    ;  uncertainty r = 0.000082, k = 7.136801
         4         5     1        0.150696   251238.065820    ;  uncertainty r = 0.000113, k = 22.905367
         4        25     1        0.140588   281662.186279    ;  uncertainty r = 0.000117, k = 12.177119
         4        30     1        0.109391   311588.435254    ;  uncertainty r = 0.000075, k = 2.447077
         5         6     1        0.139200   361197.028223    ;  uncertainty r = 0.000216, k = 22.604017
         5        10     1        0.138830   351673.295264    ;  uncertainty r = 0.000227, k = 6.887673
         6         7     1        0.139097   333922.756982    ;  uncertainty r = 0.000209, k = 17.054618
         7         8     1        0.139284   350297.636719    ;  uncertainty r = 0.000124, k = 6.410282
         7        20     1        0.178519   154025.389746    ;  uncertainty r = 0.000208, k = 17.754879
         8         9     1        0.139176   367354.229590    ;  uncertainty r = 0.000111, k = 6.155882
         8        31     1        0.108485   328628.812061    ;  uncertainty r = 0.000022, k = 1.996754
         9        10     1        0.139614   352364.048535    ;  uncertainty r = 0.000152, k = 8.443122
         9        32     1        0.108759   335905.483691    ;  uncertainty r = 0.000038, k = 1.085638
        10        11     1        0.137971   319350.082129    ;  uncertainty r = 0.000203, k = 13.214243
        11        12     1        0.137336   316423.325098    ;  uncertainty r = 0.000111, k = 8.017626
        12        13     1        0.139427   359163.303906    ;  uncertainty r = 0.000040, k = 4.028925
        12        19     1        0.139179   355512.646436    ;  uncertainty r = 0.000043, k = 0.656935
        13        14     1        0.138903   360755.951270    ;  uncertainty r = 0.000040, k = 3.414912
        13        33     1        0.108801   339525.062500    ;  uncertainty r = 0.000019, k = 1.519211
        14        15     1        0.134939   340193.470801    ;  uncertainty r = 0.000095, k = 3.973496
        14        16     1        0.138772   359379.322314    ;  uncertainty r = 0.000049, k = 1.285215
        16        17     1        0.140293   363423.557715    ;  uncertainty r = 0.000073, k = 1.983955
        16        34     1        0.108643   335847.029248    ;  uncertainty r = 0.000020, k = 0.933262
        17        18     1        0.143666   316064.886230    ;  uncertainty r = 0.000041, k = 3.494324
        17        19     1        0.140042   357603.165283    ;  uncertainty r = 0.000048, k = 4.155025
        18        24     1        0.116625  1127949.809766    ;  uncertainty r = 0.000026, k = 2.900562
        19        35     1        0.108681   335495.357715    ;  uncertainty r = 0.000025, k = 1.572342
        20        21     1        0.148008   572633.108594    ;  uncertainty r = 0.000071, k = 6.985206
        20        22     1        0.148008   572633.108594    ;  uncertainty r = 0.000071, k = 6.985206
        20        26     1        0.173169   399710.972949    ;  uncertainty r = 0.000114, k = 17.328676
        26        36     1        0.102773   455751.495508    ;  uncertainty r = 0.000050, k = 3.119897
        26        37     1        0.102773   455751.495508    ;  uncertainty r = 0.000050, k = 3.119897

[ angles ]
;       ai        aj        ak funct           theta             cth
         1         2         3     1      109.666077      660.196716    ;  uncertainty theta = 0.005538, k = 0.169843
         1         2         6     1      111.861374      658.356575    ;  uncertainty theta = 0.006174, k = 0.174187
         1         2        28     1      107.984940      442.255906    ;  uncertainty theta = 0.006753, k = 0.121612
         2         1        27     1      107.383133      458.777075    ;  uncertainty theta = 0.002424, k = 0.080124
         2         3         4     1      108.201233      683.563681    ;  uncertainty theta = 0.003554, k = 0.143584
         2         3        23     1      109.598549      606.996213    ;  uncertainty theta = 0.004639, k = 0.106577
         2         3        29     1      109.848373      373.662113    ;  uncertainty theta = 0.002650, k = 0.102025
         2         6         5     1      115.331383      510.756648    ;  uncertainty theta = 0.006227, k = 0.243912
         2         6         7     1      125.059494      362.786464    ;  uncertainty theta = 0.005031, k = 0.098996
         3         2         6     1      104.933594      712.061563    ;  uncertainty theta = 0.003120, k = 0.276214
         3         2        28     1      107.713882      389.506995    ;  uncertainty theta = 0.002537, k = 0.129947
         3         4         5     1      105.393753      692.848081    ;  uncertainty theta = 0.002373, k = 0.273380
         3         4        25     1      109.441872      601.031894    ;  uncertainty theta = 0.003281, k = 0.063132
         3         4        30     1      109.439964      382.999916    ;  uncertainty theta = 0.002908, k = 0.160347
         4         3        23     1      109.196411      601.069369    ;  uncertainty theta = 0.002729, k = 0.092926
         4         3        29     1      109.531815      377.687400    ;  uncertainty theta = 0.002560, k = 0.094074
         4         5         6     1      114.817276      521.789445    ;  uncertainty theta = 0.007296, k = 0.169298
         4         5        10     1      125.074661      363.017320    ;  uncertainty theta = 0.003942, k = 0.229794
         5         4        25     1      111.538475      658.398775    ;  uncertainty theta = 0.003195, k = 0.368316
         5         4        30     1      111.892799      373.029207    ;  uncertainty theta = 0.001786, k = 0.145592
         5         6         7     1      121.131447      420.189800    ;  uncertainty theta = 0.007460, k = 0.395087
         5        10         9     1      120.197411      383.830096    ;  uncertainty theta = 0.004875, k = 0.201669
         5        10        11     1      117.598999      417.708327    ;  uncertainty theta = 0.005784, k = 0.259929
         6         2        28     1      109.171204      382.677606    ;  uncertainty theta = 0.004302, k = 0.215407
         6         5        10     1      120.152855      418.834482    ;  uncertainty theta = 0.005437, k = 0.217373
         6         7         8     1      122.612572      445.141376    ;  uncertainty theta = 0.007560, k = 0.206206
         6         7        20     1      116.466469      353.516142    ;  uncertainty theta = 0.011309, k = 0.261235
         7         8         9     1      121.661209      497.746863    ;  uncertainty theta = 0.008773, k = 0.093509
         7         8        31     1      118.733810      259.469241    ;  uncertainty theta = 0.003108, k = 0.119787
         7        20        21     1      114.991173      534.767596    ;  uncertainty theta = 0.007831, k = 0.161026
         7        20        22     1      114.991173      534.767596    ;  uncertainty theta = 0.007831, k = 0.161026
         7        20        26     1      107.703720      679.678466    ;  uncertainty theta = 0.008413, k = 0.154675
         8         7        20     1      116.155235      347.924473    ;  uncertainty theta = 0.008815, k = 0.154387
         8         9        10     1      120.046288      511.415665    ;  uncertainty theta = 0.002071, k = 0.061692
         8         9        32     1      120.260941      276.871648    ;  uncertainty theta = 0.001331, k = 0.033625
         9         8        31     1      120.463089      282.908940    ;  uncertainty theta = 0.002684, k = 0.068784
         9        10        11     1      120.798607      433.661487    ;  uncertainty theta = 0.004791, k = 0.203373
        10         9        32     1      120.149315      275.008939    ;  uncertainty theta = 0.002274, k = 0.076428
        10        11        12     1      112.614090      472.042422    ;  uncertainty theta = 0.002780, k = 0.062534
        11        12        13     1      118.844681      418.953804    ;  uncertainty theta = 0.002951, k = 0.060456
        11        12        19     1      119.104492      404.496640    ;  uncertainty theta = 0.003920, k = 0.053088
        12        13        14     1      117.038597      502.569227    ;  uncertainty theta = 0.003445, k = 0.110867
        12        13        33     1      121.702477      272.440034    ;  uncertainty theta = 0.003455, k = 0.132527
        12        19        17     1      118.761208      522.894787    ;  uncertainty theta = 0.001489, k = 0.068180
        12        19        35     1      120.905983      280.332437    ;  uncertainty theta = 0.002004, k = 0.062093
        13        12        19     1      122.428162      385.560203    ;  uncertainty theta = 0.005403, k = 0.175952
        13        14        15     1      118.267052      494.604714    ;  uncertainty theta = 0.001988, k = 0.058359
        13        14        16     1      123.726730      369.147375    ;  uncertainty theta = 0.006010, k = 0.127235
        14        13        33     1      121.505081      285.104493    ;  uncertainty theta = 0.003243, k = 0.069272
        14        16        17     1      117.400681      493.697380    ;  uncertainty theta = 0.001506, k = 0.173040
        14        16        34     1      121.339279      286.173157    ;  uncertainty theta = 0.003120, k = 0.038569
        15        14        16     1      118.689796      499.274046    ;  uncertainty theta = 0.003051, k = 0.052524
        16        17        18     1      119.117836      375.204905    ;  uncertainty theta = 0.002733, k = 0.097877
        16        17        19     1      122.566833      457.580470    ;  uncertainty theta = 0.002293, k = 0.135282
        17        16        34     1      121.185242      278.472122    ;  uncertainty theta = 0.003138, k = 0.095958
        17        18        24     1      180.000000      233.555922    ;  uncertainty theta = 0.000000, k = 0.675784
        17        19        35     1      120.586197      284.638441    ;  uncertainty theta = 0.004219, k = 0.089604
        18        17        19     1      118.919228      375.151182    ;  uncertainty theta = 0.002637, k = 0.097444
        20        26        36     1      115.937195      479.911938    ;  uncertainty theta = 0.001943, k = 0.084465
        20        26        37     1      115.937195      479.911938    ;  uncertainty theta = 0.001943, k = 0.084465
        21        20        22     1      126.189552      821.384141    ;  uncertainty theta = 0.006195, k = 0.054353
        21        20        26     1      116.329086     1125.200408    ;  uncertainty theta = 0.003385, k = 0.071601
        22        20        26     1      116.329086     1125.200408    ;  uncertainty theta = 0.003385, k = 0.071601
        23         3        29     1      108.321190      478.752681    ;  uncertainty theta = 0.003868, k = 0.181503
        25         4        30     1      107.538902      448.846108    ;  uncertainty theta = 0.002827, k = 0.119337
        36        26        37     1      109.758423      338.498375    ;  uncertainty theta = 0.004066, k = 0.117683

[ dihedrals ] ; propers for gromacs 4.5 or higher, use funct 9
;       ai        aj        ak        al funct           phase               k        pn
         1         2         3         4     9        0.000000       -2.494345         1    ;  uncertainty k = 0.551248
         1         2         3         4     9      180.000000        1.214098         2    ;  uncertainty k = 1.134281
         1         2         3         4     9        0.000000        0.729437         3    ;  uncertainty k = 0.275074
         1         2         3         4     9      180.000000        0.060576         4    ;  uncertainty k = 0.225393
         1         2         3        23     9        0.000000       -1.103869         1    ;  uncertainty k = 0.788737
         1         2         3        23     9      180.000000       -0.650962         2    ;  uncertainty k = 0.484322
         1         2         3        23     9        0.000000        1.640870         3    ;  uncertainty k = 0.598439
         1         2         3        23     9      180.000000        0.083398         4    ;  uncertainty k = 0.134370
         1         2         3        29     9        0.000000       -0.612682         1    ;  uncertainty k = 0.641801
         1         2         3        29     9      180.000000        0.778897         2    ;  uncertainty k = 0.495436
         1         2         3        29     9        0.000000        0.977767         3    ;  uncertainty k = 0.244967
         1         2         3        29     9      180.000000        0.101470         4    ;  uncertainty k = 0.073341
         1         2         6         5     9        0.000000       -3.475356         1    ;  uncertainty k = 1.303210
         1         2         6         5     9      180.000000        4.936327         2    ;  uncertainty k = 0.938222
         1         2         6         5     9        0.000000        0.875239         3    ;  uncertainty k = 0.525514
         1         2         6         5     9      180.000000        0.623644         4    ;  uncertainty k = 0.152682
         1         2         6         7     9        0.000000       -1.304227         1    ;  uncertainty k = 1.533684
         1         2         6         7     9      180.000000        3.619267         2    ;  uncertainty k = 0.174817
         1         2         6         7     9        0.000000       -0.089265         3    ;  uncertainty k = 0.237877
         1         2         6         7     9      180.000000        0.543355         4    ;  uncertainty k = 0.207140
         2         3         4         5     9        0.000000       -0.021504         1    ;  uncertainty k = 1.635126
         2         3         4         5     9      180.000000        2.227943         2    ;  uncertainty k = 0.767932
         2         3         4         5     9        0.000000       -0.307487         3    ;  uncertainty k = 0.295615
         2         3         4         5     9      180.000000       -0.363148         4    ;  uncertainty k = 0.163081
         2         3         4        25     9        0.000000       -0.899059         1    ;  uncertainty k = 0.984169
         2         3         4        25     9      180.000000        0.576142         2    ;  uncertainty k = 0.483218
         2         3         4        25     9        0.000000        0.491946         3    ;  uncertainty k = 0.144980
         2         3         4        25     9      180.000000        0.160179         4    ;  uncertainty k = 0.248254
         2         3         4        30     9        0.000000       -0.297872         1    ;  uncertainty k = 0.246975
         2         3         4        30     9      180.000000        0.163125         2    ;  uncertainty k = 0.131440
         2         3         4        30     9        0.000000       -0.086882         3    ;  uncertainty k = 0.347889
         2         3         4        30     9      180.000000       -0.132859         4    ;  uncertainty k = 0.148946
         2         6         5         4     9        0.000000        0.979492         1    ;  uncertainty k = 0.884293
         2         6         5         4     9      180.000000       12.237884         2    ;  uncertainty k = 0.864953
         2         6         5         4     9        0.000000       -0.486088         3    ;  uncertainty k = 1.051938
         2         6         5         4     9      180.000000        1.328638         4    ;  uncertainty k = 0.361827
         2         6         5        10     9        0.000000        0.483284         1    ;  uncertainty k = 0.465581
         2         6         5        10     9      180.000000        8.384923         2    ;  uncertainty k = 0.350304
         2         6         5        10     9        0.000000        0.809708         3    ;  uncertainty k = 0.284971
         2         6         5        10     9      180.000000        1.279841         4    ;  uncertainty k = 0.161569
         2         6         7         8     9        0.000000        0.264419         1    ;  uncertainty k = 0.488091
         2         6         7         8     9      180.000000        6.245401         2    ;  uncertainty k = 0.531168
         2         6         7         8     9        0.000000        1.223146         3    ;  uncertainty k = 0.359426
         2         6         7         8     9      180.000000        1.651627         4    ;  uncertainty k = 0.126706
         2         6         7        20     9        0.000000        0.086200         1    ;  uncertainty k = 0.866800
         2         6         7        20     9      180.000000        7.075334         2    ;  uncertainty k = 0.472125
         2         6         7        20     9        0.000000        1.059349         3    ;  uncertainty k = 0.184655
         2         6         7        20     9      180.000000        1.170233         4    ;  uncertainty k = 0.189166
         3         2         1        27     9        0.000000       13.576022         1    ;  uncertainty k = 0.383428
         3         2         1        27     9      180.000000       -3.598227         2    ;  uncertainty k = 0.422818
         3         2         1        27     9        0.000000        1.127416         3    ;  uncertainty k = 0.123546
         3         2         1        27     9      180.000000        0.184167         4    ;  uncertainty k = 0.087026
         3         2         6         5     9        0.000000       -1.415523         1    ;  uncertainty k = 1.380415
         3         2         6         5     9      180.000000        9.211036         2    ;  uncertainty k = 1.212318
         3         2         6         5     9        0.000000       -1.096414         3    ;  uncertainty k = 0.308214
         3         2         6         5     9      180.000000        0.730887         4    ;  uncertainty k = 0.324186
         3         2         6         7     9        0.000000       -1.402620         1    ;  uncertainty k = 1.349568
         3         2         6         7     9      180.000000        3.430432         2    ;  uncertainty k = 0.519428
         3         2         6         7     9        0.000000        0.356547         3    ;  uncertainty k = 0.433026
         3         2         6         7     9      180.000000        0.626842         4    ;  uncertainty k = 0.175887
         3         4         5         6     9        0.000000       -2.188513         1    ;  uncertainty k = 1.612896
         3         4         5         6     9      180.000000        9.453290         2    ;  uncertainty k = 0.751672
         3         4         5         6     9        0.000000       -1.573850         3    ;  uncertainty k = 0.165070
         3         4         5         6     9      180.000000        0.735878         4    ;  uncertainty k = 0.258956
         3         4         5        10     9        0.000000       -1.004187         1    ;  uncertainty k = 1.580950
         3         4         5        10     9      180.000000        3.103617         2    ;  uncertainty k = 0.705375
         3         4         5        10     9        0.000000        0.300796         3    ;  uncertainty k = 0.269499
         3         4         5        10     9      180.000000        0.679503         4    ;  uncertainty k = 0.307277
         4         3         2         6     9        0.000000        0.245228         1    ;  uncertainty k = 0.622836
         4         3         2         6     9      180.000000        1.608454         2    ;  uncertainty k = 0.271055
         4         3         2         6     9        0.000000       -0.146944         3    ;  uncertainty k = 0.200085
         4         3         2         6     9      180.000000       -0.292144         4    ;  uncertainty k = 0.265824
         4         3         2        28     9        0.000000       -0.366923         1    ;  uncertainty k = 0.422842
         4         3         2        28     9      180.000000        0.163828         2    ;  uncertainty k = 0.366812
         4         3         2        28     9        0.000000        0.040047         3    ;  uncertainty k = 0.316954
         4         3         2        28     9      180.000000       -0.095079         4    ;  uncertainty k = 0.152888
         4         5         6         7     9        0.000000        0.199937         1    ;  uncertainty k = 0.381226
         4         5         6         7     9      180.000000        8.479710         2    ;  uncertainty k = 0.463156
         4         5         6         7     9        0.000000        0.712048         3    ;  uncertainty k = 0.419614
         4         5         6         7     9      180.000000        1.280819         4    ;  uncertainty k = 0.209417
         4         5        10         9     9        0.000000        0.321823         1    ;  uncertainty k = 0.219764
         4         5        10         9     9      180.000000        6.132972         2    ;  uncertainty k = 0.328221
         4         5        10         9     9        0.000000        1.438251         3    ;  uncertainty k = 0.308936
         4         5        10         9     9      180.000000        1.724310         4    ;  uncertainty k = 0.169806
         4         5        10        11     9        0.000000       -0.001669         1    ;  uncertainty k = 0.408805
         4         5        10        11     9      180.000000        8.452037         2    ;  uncertainty k = 0.330080
         4         5        10        11     9        0.000000        1.061404         3    ;  uncertainty k = 0.242597
         4         5        10        11     9      180.000000        1.345785         4    ;  uncertainty k = 0.112557
         5         4         3        23     9        0.000000       -0.908994         1    ;  uncertainty k = 1.656976
         5         4         3        23     9      180.000000        0.405269         2    ;  uncertainty k = 0.817576
         5         4         3        23     9        0.000000        1.112816         3    ;  uncertainty k = 0.431543
         5         4         3        23     9      180.000000        0.297591         4    ;  uncertainty k = 0.168411
         5         4         3        29     9        0.000000       -0.850789         1    ;  uncertainty k = 0.769064
         5         4         3        29     9      180.000000        0.361008         2    ;  uncertainty k = 0.569664
         5         4         3        29     9        0.000000        0.387477         3    ;  uncertainty k = 0.192018
         5         4         3        29     9      180.000000       -0.062144         4    ;  uncertainty k = 0.087952
         5         6         2        28     9        0.000000       -0.359716         1    ;  uncertainty k = 0.392908
         5         6         2        28     9      180.000000        3.219882         2    ;  uncertainty k = 0.564791
         5         6         2        28     9        0.000000        0.629409         3    ;  uncertainty k = 0.125135
         5         6         2        28     9      180.000000        0.253971         4    ;  uncertainty k = 0.136443
         5         6         7         8     9        0.000000       -0.331219         1    ;  uncertainty k = 0.370592
         5         6         7         8     9      180.000000        9.702157         2    ;  uncertainty k = 0.395760
         5         6         7         8     9        0.000000       -0.555213         3    ;  uncertainty k = 0.375763
         5         6         7         8     9      180.000000        0.930812         4    ;  uncertainty k = 0.198442
         5         6         7        20     9        0.000000        0.233875         1    ;  uncertainty k = 0.794657
         5         6         7        20     9      180.000000        8.111115         2    ;  uncertainty k = 0.573044
         5         6         7        20     9        0.000000        1.448181         3    ;  uncertainty k = 0.567437
         5         6         7        20     9      180.000000        1.649365         4    ;  uncertainty k = 0.188239
         5        10         9         8     9        0.000000        0.284690         1    ;  uncertainty k = 0.341261
         5        10         9         8     9      180.000000        8.815868         2    ;  uncertainty k = 0.547170
         5        10         9         8     9        0.000000        0.271707         3    ;  uncertainty k = 0.440534
         5        10         9         8     9      180.000000        1.319942         4    ;  uncertainty k = 0.317531
         5        10         9        32     9        0.000000        0.159482         1    ;  uncertainty k = 0.386287
         5        10         9        32     9      180.000000        6.883538         2    ;  uncertainty k = 0.585439
         5        10         9        32     9        0.000000        1.314465         3    ;  uncertainty k = 0.519229
         5        10         9        32     9      180.000000        1.608467         4    ;  uncertainty k = 0.162371
         5        10        11        12     9        0.000000        3.911201         1    ;  uncertainty k = 0.619652
         5        10        11        12     9      180.000000        5.431872         2    ;  uncertainty k = 0.562637
         5        10        11        12     9        0.000000        0.528232         3    ;  uncertainty k = 0.119615
         5        10        11        12     9      180.000000        0.178489         4    ;  uncertainty k = 0.034741
         6         2         1        27     9        0.000000       14.409883         1    ;  uncertainty k = 0.436791
         6         2         1        27     9      180.000000       -4.162448         2    ;  uncertainty k = 0.682203
         6         2         1        27     9        0.000000        1.027339         3    ;  uncertainty k = 0.167682
         6         2         1        27     9      180.000000        0.041462         4    ;  uncertainty k = 0.052974
         6         2         3        23     9        0.000000       -0.413711         1    ;  uncertainty k = 1.332777
         6         2         3        23     9      180.000000        0.017847         2    ;  uncertainty k = 0.653309
         6         2         3        23     9        0.000000        1.095792         3    ;  uncertainty k = 0.338966
         6         2         3        23     9      180.000000        0.298882         4    ;  uncertainty k = 0.095885
         6         2         3        29     9        0.000000       -0.925838         1    ;  uncertainty k = 0.592293
         6         2         3        29     9      180.000000        0.297818         2    ;  uncertainty k = 0.540769
         6         2         3        29     9        0.000000        0.417377         3    ;  uncertainty k = 0.188707
         6         2         3        29     9      180.000000       -0.090163         4    ;  uncertainty k = 0.065294
         6         5         4        25     9        0.000000       -1.041572         1    ;  uncertainty k = 0.972121
         6         5         4        25     9      180.000000        3.822444         2    ;  uncertainty k = 0.588447
         6         5         4        25     9        0.000000        0.505582         3    ;  uncertainty k = 0.521273
         6         5         4        25     9      180.000000        0.632020         4    ;  uncertainty k = 0.105051
         6         5         4        30     9        0.000000       -0.061581         1    ;  uncertainty k = 0.529665
         6         5         4        30     9      180.000000        2.632738         2    ;  uncertainty k = 0.438860
         6         5         4        30     9        0.000000        0.376438         3    ;  uncertainty k = 0.166287
         6         5         4        30     9      180.000000        0.184014         4    ;  uncertainty k = 0.198311
         6         5        10         9     9        0.000000       -0.209643         1    ;  uncertainty k = 0.217936
         6         5        10         9     9      180.000000        8.070890         2    ;  uncertainty k = 0.395183
         6         5        10         9     9        0.000000       -0.426588         3    ;  uncertainty k = 0.439846
         6         5        10         9     9      180.000000        1.100571         4    ;  uncertainty k = 0.284277
         6         5        10        11     9        0.000000       -0.001441         1    ;  uncertainty k = 0.249190
         6         5        10        11     9      180.000000        9.357015         2    ;  uncertainty k = 0.270513
         6         5        10        11     9        0.000000        1.347711         3    ;  uncertainty k = 0.332001
         6         5        10        11     9      180.000000        1.550368         4    ;  uncertainty k = 0.202241
         6         7         8         9     9        0.000000       -0.166791         1    ;  uncertainty k = 0.386564
         6         7         8         9     9      180.000000       10.059714         2    ;  uncertainty k = 0.557921
         6         7         8         9     9        0.000000       -0.275568         3    ;  uncertainty k = 0.375299
         6         7         8         9     9      180.000000        1.085317         4    ;  uncertainty k = 0.345532
         6         7         8        31     9        0.000000        0.052897         1    ;  uncertainty k = 0.333287
         6         7         8        31     9      180.000000        7.260098         2    ;  uncertainty k = 0.611036
         6         7         8        31     9        0.000000        1.248820         3    ;  uncertainty k = 0.492460
         6         7         8        31     9      180.000000        1.635035         4    ;  uncertainty k = 0.087032
         6         7        20        21     9        0.000000       -1.794781         1    ;  uncertainty k = 1.228921
         6         7        20        21     9      180.000000        0.749767         2    ;  uncertainty k = 0.668614
         6         7        20        21     9        0.000000        0.764981         3    ;  uncertainty k = 0.220677
         6         7        20        21     9      180.000000        0.067366         4    ;  uncertainty k = 0.150437
         6         7        20        22     9        0.000000       -1.794781         1    ;  uncertainty k = 1.228921
         6         7        20        22     9      180.000000        0.749767         2    ;  uncertainty k = 0.668614
         6         7        20        22     9        0.000000        0.764981         3    ;  uncertainty k = 0.220677
         6         7        20        22     9      180.000000        0.067366         4    ;  uncertainty k = 0.150437
         6         7        20        26     9        0.000000        4.608244         1    ;  uncertainty k = 1.989041
         6         7        20        26     9      180.000000        0.915813         2    ;  uncertainty k = 0.865613
         6         7        20        26     9        0.000000        0.686618         3    ;  uncertainty k = 0.429143
         6         7        20        26     9      180.000000        0.380737         4    ;  uncertainty k = 0.176796
         7         6         2        28     9        0.000000        1.425292         1    ;  uncertainty k = 0.598322
         7         6         2        28     9      180.000000        2.193706         2    ;  uncertainty k = 0.778665
         7         6         2        28     9        0.000000       -0.064317         3    ;  uncertainty k = 0.078343
         7         6         2        28     9      180.000000        0.208956         4    ;  uncertainty k = 0.162439
         7         6         5        10     9        0.000000       -0.268663         1    ;  uncertainty k = 0.374179
         7         6         5        10     9      180.000000        8.562256         2    ;  uncertainty k = 0.473900
         7         6         5        10     9        0.000000        0.059088         3    ;  uncertainty k = 0.301159
         7         6         5        10     9      180.000000        1.074759         4    ;  uncertainty k = 0.293508
         7         8         9        10     9        0.000000        0.053598         1    ;  uncertainty k = 0.373993
         7         8         9        10     9      180.000000       11.829618         2    ;  uncertainty k = 0.347981
         7         8         9        10     9        0.000000       -0.874981         3    ;  uncertainty k = 0.690477
         7         8         9        10     9      180.000000        0.930240         4    ;  uncertainty k = 0.351309
         7         8         9        32     9        0.000000       -0.059568         1    ;  uncertainty k = 0.588029
         7         8         9        32     9      180.000000        8.191344         2    ;  uncertainty k = 0.235282
         7         8         9        32     9        0.000000        1.198464         3    ;  uncertainty k = 0.206471
         7         8         9        32     9      180.000000        1.688000         4    ;  uncertainty k = 0.110413
         7        20        26        36     9        0.000000        5.944918         1    ;  uncertainty k = 0.904110
         7        20        26        36     9      180.000000       -5.760627         2    ;  uncertainty k = 0.831055
         7        20        26        36     9        0.000000        0.589788         3    ;  uncertainty k = 0.175327
         7        20        26        36     9      180.000000        0.303603         4    ;  uncertainty k = 0.188673
         7        20        26        37     9        0.000000        5.944918         1    ;  uncertainty k = 0.904110
         7        20        26        37     9      180.000000       -5.760627         2    ;  uncertainty k = 0.831055
         7        20        26        37     9        0.000000        0.589788         3    ;  uncertainty k = 0.175327
         7        20        26        37     9      180.000000        0.303603         4    ;  uncertainty k = 0.188673
         8         7        20        21     9        0.000000       -0.871876         1    ;  uncertainty k = 1.533695
         8         7        20        21     9      180.000000        1.075215         2    ;  uncertainty k = 0.692882
         8         7        20        21     9        0.000000        0.457612         3    ;  uncertainty k = 0.261388
         8         7        20        21     9      180.000000        0.006103         4    ;  uncertainty k = 0.109735
         8         7        20        22     9        0.000000       -0.871876         1    ;  uncertainty k = 1.533695
         8         7        20        22     9      180.000000        1.075215         2    ;  uncertainty k = 0.692882
         8         7        20        22     9        0.000000        0.457612         3    ;  uncertainty k = 0.261388
         8         7        20        22     9      180.000000        0.006103         4    ;  uncertainty k = 0.109735
         8         7        20        26     9        0.000000        4.076299         1    ;  uncertainty k = 1.584468
         8         7        20        26     9      180.000000        1.287111         2    ;  uncertainty k = 0.635222
         8         7        20        26     9        0.000000       -0.057028         3    ;  uncertainty k = 0.415192
         8         7        20        26     9      180.000000        0.181207         4    ;  uncertainty k = 0.106258
         8         9        10        11     9        0.000000       -0.000281         1    ;  uncertainty k = 0.251166
         8         9        10        11     9      180.000000       10.842518         2    ;  uncertainty k = 0.382068
         8         9        10        11     9        0.000000        1.396588         3    ;  uncertainty k = 0.257898
         8         9        10        11     9      180.000000        1.739131         4    ;  uncertainty k = 0.200179
         9         8         7        20     9        0.000000        0.252905         1    ;  uncertainty k = 0.320059
         9         8         7        20     9      180.000000        9.420634         2    ;  uncertainty k = 0.327855
         9         8         7        20     9        0.000000        1.425433         3    ;  uncertainty k = 0.396953
         9         8         7        20     9      180.000000        1.764779         4    ;  uncertainty k = 0.177027
         9        10        11        12     9        0.000000        5.402143         1    ;  uncertainty k = 0.320537
         9        10        11        12     9      180.000000        5.758530         2    ;  uncertainty k = 0.249888
         9        10        11        12     9        0.000000        0.388890         3    ;  uncertainty k = 0.138012
         9        10        11        12     9      180.000000        0.195684         4    ;  uncertainty k = 0.078919
        10         5         4        25     9        0.000000       -0.425384         1    ;  uncertainty k = 1.131186
        10         5         4        25     9      180.000000        2.286112         2    ;  uncertainty k = 0.966926
        10         5         4        25     9        0.000000        0.461716         3    ;  uncertainty k = 0.463900
        10         5         4        25     9      180.000000        0.537617         4    ;  uncertainty k = 0.159219
        10         5         4        30     9        0.000000        1.196721         1    ;  uncertainty k = 0.968380
        10         5         4        30     9      180.000000        2.002629         2    ;  uncertainty k = 0.844225
        10         5         4        30     9        0.000000        0.193576         3    ;  uncertainty k = 0.203973
        10         5         4        30     9      180.000000        0.268119         4    ;  uncertainty k = 0.178253
        10         9         8        31     9        0.000000       -0.118465         1    ;  uncertainty k = 0.346689
        10         9         8        31     9      180.000000        7.826680         2    ;  uncertainty k = 0.164903
        10         9         8        31     9        0.000000        1.038227         3    ;  uncertainty k = 0.191394
        10         9         8        31     9      180.000000        1.703372         4    ;  uncertainty k = 0.081814
        10        11        12        13     9        0.000000        4.042320         1    ;  uncertainty k = 0.253332
        10        11        12        13     9      180.000000        5.266696         2    ;  uncertainty k = 0.322713
        10        11        12        13     9        0.000000        0.421821         3    ;  uncertainty k = 0.136164
        10        11        12        13     9      180.000000        0.170470         4    ;  uncertainty k = 0.112008
        10        11        12        19     9        0.000000        4.066744         1    ;  uncertainty k = 0.203386
        10        11        12        19     9      180.000000        5.548534         2    ;  uncertainty k = 0.310144
        10        11        12        19     9        0.000000        0.397374         3    ;  uncertainty k = 0.139336
        10        11        12        19     9      180.000000        0.153297         4    ;  uncertainty k = 0.126289
        11        10         9        32     9        0.000000       -0.049312         1    ;  uncertainty k = 0.127333
        11        10         9        32     9      180.000000        9.058589         2    ;  uncertainty k = 0.426366
        11        10         9        32     9        0.000000        0.806304         3    ;  uncertainty k = 0.234278
        11        10         9        32     9      180.000000        1.146017         4    ;  uncertainty k = 0.167418
        11        12        13        14     9        0.000000        0.100184         1    ;  uncertainty k = 0.291842
        11        12        13        14     9      180.000000       10.816374         2    ;  uncertainty k = 0.240460
        11        12        13        14     9        0.000000        1.300563         3    ;  uncertainty k = 0.162012
        11        12        13        14     9      180.000000        1.601831         4    ;  uncertainty k = 0.116723
        11        12        13        33     9        0.000000       -0.098793         1    ;  uncertainty k = 0.096880
        11        12        13        33     9      180.000000        8.366214         2    ;  uncertainty k = 0.291500
        11        12        13        33     9        0.000000        0.819579         3    ;  uncertainty k = 0.210155
        11        12        13        33     9      180.000000        1.084623         4    ;  uncertainty k = 0.086344
        11        12        19        17     9        0.000000       -0.049087         1    ;  uncertainty k = 0.265910
        11        12        19        17     9      180.000000       11.315663         2    ;  uncertainty k = 0.446747
        11        12        19        17     9        0.000000        1.192561         3    ;  uncertainty k = 0.067310
        11        12        19        17     9      180.000000        1.631086         4    ;  uncertainty k = 0.135216
        11        12        19        35     9        0.000000        0.117590         1    ;  uncertainty k = 0.182467
        11        12        19        35     9      180.000000        8.506953         2    ;  uncertainty k = 0.321953
        11        12        19        35     9        0.000000        0.839576         3    ;  uncertainty k = 0.301195
        11        12        19        35     9      180.000000        1.142539         4    ;  uncertainty k = 0.151488
        12        13        14        15     9        0.000000        0.029267         1    ;  uncertainty k = 0.076351
        12        13        14        15     9      180.000000       12.681220         2    ;  uncertainty k = 0.591249
        12        13        14        15     9        0.000000        1.486062         3    ;  uncertainty k = 0.376399
        12        13        14        15     9      180.000000        1.475435         4    ;  uncertainty k = 0.279101
        12        13        14        16     9        0.000000       -0.041312         1    ;  uncertainty k = 0.166168
        12        13        14        16     9      180.000000        8.711743         2    ;  uncertainty k = 0.535595
        12        13        14        16     9        0.000000        0.058226         3    ;  uncertainty k = 0.483440
        12        13        14        16     9      180.000000        1.296510         4    ;  uncertainty k = 0.287570
        12        19        17        16     9        0.000000       -0.126135         1    ;  uncertainty k = 0.335758
        12        19        17        16     9      180.000000       11.543728         2    ;  uncertainty k = 0.211528
        12        19        17        16     9        0.000000       -0.409273         3    ;  uncertainty k = 0.525587
        12        19        17        16     9      180.000000        1.114605         4    ;  uncertainty k = 0.265123
        12        19        17        18     9        0.000000        0.008933         1    ;  uncertainty k = 0.224406
        12        19        17        18     9      180.000000       10.110912         2    ;  uncertainty k = 0.333390
        12        19        17        18     9        0.000000        1.306913         3    ;  uncertainty k = 0.264685
        12        19        17        18     9      180.000000        1.637563         4    ;  uncertainty k = 0.199965
        13        12        19        17     9        0.000000       -0.051322         1    ;  uncertainty k = 0.175220
        13        12        19        17     9      180.000000        9.609478         2    ;  uncertainty k = 0.403633
        13        12        19        17     9        0.000000        0.176055         3    ;  uncertainty k = 0.389800
        13        12        19        17     9      180.000000        1.259071         4    ;  uncertainty k = 0.358591
        13        12        19        35     9        0.000000        0.319861         1    ;  uncertainty k = 0.231991
        13        12        19        35     9      180.000000        6.318270         2    ;  uncertainty k = 0.750341
        13        12        19        35     9        0.000000        1.465273         3    ;  uncertainty k = 0.273057
        13        12        19        35     9      180.000000        1.603175         4    ;  uncertainty k = 0.165843
        13        14        16        17     9        0.000000       -0.019167         1    ;  uncertainty k = 0.236218
        13        14        16        17     9      180.000000        9.329732         2    ;  uncertainty k = 0.304985
        13        14        16        17     9        0.000000        0.099008         3    ;  uncertainty k = 0.304607
        13        14        16        17     9      180.000000        1.274852         4    ;  uncertainty k = 0.274241
        13        14        16        34     9        0.000000       -0.000593         1    ;  uncertainty k = 0.199602
        13        14        16        34     9      180.000000        5.887325         2    ;  uncertainty k = 0.750109
        13        14        16        34     9        0.000000        1.321078         3    ;  uncertainty k = 0.278410
        13        14        16        34     9      180.000000        1.516102         4    ;  uncertainty k = 0.088176
        14        13        12        19     9        0.000000        0.083575         1    ;  uncertainty k = 0.184356
        14        13        12        19     9      180.000000        9.069038         2    ;  uncertainty k = 0.673942
        14        13        12        19     9        0.000000        0.004877         3    ;  uncertainty k = 0.505260
        14        13        12        19     9      180.000000        1.219759         4    ;  uncertainty k = 0.386904
        14        16        17        18     9        0.000000        0.042737         1    ;  uncertainty k = 0.291483
        14        16        17        18     9      180.000000        9.815526         2    ;  uncertainty k = 0.311825
        14        16        17        18     9        0.000000        1.325513         3    ;  uncertainty k = 0.249458
        14        16        17        18     9      180.000000        1.659796         4    ;  uncertainty k = 0.165102
        14        16        17        19     9        0.000000       -0.093634         1    ;  uncertainty k = 0.287446
        14        16        17        19     9      180.000000       11.524169         2    ;  uncertainty k = 0.474663
        14        16        17        19     9        0.000000       -0.540684         3    ;  uncertainty k = 0.386751
        14        16        17        19     9      180.000000        1.065656         4    ;  uncertainty k = 0.270989
        15        14        13        33     9        0.000000       -0.266165         1    ;  uncertainty k = 0.229666
        15        14        13        33     9      180.000000        8.750384         2    ;  uncertainty k = 0.391886
        15        14        13        33     9        0.000000        0.839204         3    ;  uncertainty k = 0.231015
        15        14        13        33     9      180.000000        1.056841         4    ;  uncertainty k = 0.208951
        15        14        16        17     9        0.000000       -0.039623         1    ;  uncertainty k = 0.207167
        15        14        16        17     9      180.000000       13.467148         2    ;  uncertainty k = 0.458195
        15        14        16        17     9        0.000000        1.330325         3    ;  uncertainty k = 0.272641
        15        14        16        17     9      180.000000        1.408183         4    ;  uncertainty k = 0.220523
        15        14        16        34     9        0.000000       -0.317019         1    ;  uncertainty k = 0.306342
        15        14        16        34     9      180.000000        8.994255         2    ;  uncertainty k = 0.352455
        15        14        16        34     9        0.000000        0.799840         3    ;  uncertainty k = 0.209801
        15        14        16        34     9      180.000000        1.001169         4    ;  uncertainty k = 0.172439
        16        14        13        33     9        0.000000        0.117728         1    ;  uncertainty k = 0.152876
        16        14        13        33     9      180.000000        5.739162         2    ;  uncertainty k = 0.725581
        16        14        13        33     9        0.000000        1.354805         3    ;  uncertainty k = 0.319905
        16        14        13        33     9      180.000000        1.531360         4    ;  uncertainty k = 0.102992
        16        17        18        24     9        0.000000        0.000000         1    ;  uncertainty k = 0.000000
        16        17        18        24     9      180.000000        0.000000         2    ;  uncertainty k = 0.000000
        16        17        18        24     9        0.000000        0.000000         3    ;  uncertainty k = 0.000000
        16        17        18        24     9      180.000000        0.000000         4    ;  uncertainty k = 0.000000
        16        17        19        35     9        0.000000        0.266901         1    ;  uncertainty k = 0.392933
        16        17        19        35     9      180.000000        6.702181         2    ;  uncertainty k = 0.686766
        16        17        19        35     9        0.000000        1.492380         3    ;  uncertainty k = 0.274536
        16        17        19        35     9      180.000000        1.680830         4    ;  uncertainty k = 0.134103
        18        17        16        34     9        0.000000       -0.401280         1    ;  uncertainty k = 0.467937
        18        17        16        34     9      180.000000        7.099068         2    ;  uncertainty k = 0.224071
        18        17        16        34     9        0.000000        0.520905         3    ;  uncertainty k = 0.112594
        18        17        16        34     9      180.000000        0.955860         4    ;  uncertainty k = 0.230500
        18        17        19        35     9        0.000000       -0.303371         1    ;  uncertainty k = 0.311612
        18        17        19        35     9      180.000000        7.433399         2    ;  uncertainty k = 0.295932
        18        17        19        35     9        0.000000        0.543142         3    ;  uncertainty k = 0.139134
        18        17        19        35     9      180.000000        0.967541         4    ;  uncertainty k = 0.213771
        19        12        13        33     9        0.000000        0.238077         1    ;  uncertainty k = 0.231773
        19        12        13        33     9      180.000000        5.993858         2    ;  uncertainty k = 0.765201
        19        12        13        33     9        0.000000        1.476771         3    ;  uncertainty k = 0.368309
        19        12        13        33     9      180.000000        1.569369         4    ;  uncertainty k = 0.131184
        19        17        16        34     9        0.000000        0.157284         1    ;  uncertainty k = 0.536677
        19        17        16        34     9      180.000000        6.651379         2    ;  uncertainty k = 0.604357
        19        17        16        34     9        0.000000        1.457227         3    ;  uncertainty k = 0.366961
        19        17        16        34     9      180.000000        1.599688         4    ;  uncertainty k = 0.107457
        19        17        18        24     9        0.000000        0.000000         1    ;  uncertainty k = 0.000000
        19        17        18        24     9      180.000000        0.000000         2    ;  uncertainty k = 0.000000
        19        17        18        24     9        0.000000        0.000000         3    ;  uncertainty k = 0.000000
        19        17        18        24     9      180.000000        0.000000         4    ;  uncertainty k = 0.000000
        20         7         8        31     9        0.000000       -0.163569         1    ;  uncertainty k = 0.610315
        20         7         8        31     9      180.000000        6.856592         2    ;  uncertainty k = 0.288736
        20         7         8        31     9        0.000000        0.853136         3    ;  uncertainty k = 0.224722
        20         7         8        31     9      180.000000        1.105345         4    ;  uncertainty k = 0.127219
        21        20        26        36     9        0.000000       11.304793         1    ;  uncertainty k = 0.291611
        21        20        26        36     9      180.000000        2.430962         2    ;  uncertainty k = 0.667398
        21        20        26        36     9        0.000000        0.998196         3    ;  uncertainty k = 0.163982
        21        20        26        36     9      180.000000       -0.474268         4    ;  uncertainty k = 0.090593
        21        20        26        37     9        0.000000       11.304793         1    ;  uncertainty k = 0.291611
        21        20        26        37     9      180.000000        2.430962         2    ;  uncertainty k = 0.667398
        21        20        26        37     9        0.000000        0.998196         3    ;  uncertainty k = 0.163982
        21        20        26        37     9      180.000000       -0.474268         4    ;  uncertainty k = 0.090593
        22        20        26        36     9        0.000000       11.304793         1    ;  uncertainty k = 0.291611
        22        20        26        36     9      180.000000        2.430962         2    ;  uncertainty k = 0.667398
        22        20        26        36     9        0.000000        0.998196         3    ;  uncertainty k = 0.163982
        22        20        26        36     9      180.000000       -0.474268         4    ;  uncertainty k = 0.090593
        22        20        26        37     9        0.000000       11.304793         1    ;  uncertainty k = 0.291611
        22        20        26        37     9      180.000000        2.430962         2    ;  uncertainty k = 0.667398
        22        20        26        37     9        0.000000        0.998196         3    ;  uncertainty k = 0.163982
        22        20        26        37     9      180.000000       -0.474268         4    ;  uncertainty k = 0.090593
        23         3         2        28     9        0.000000        0.781517         1    ;  uncertainty k = 0.153676
        23         3         2        28     9      180.000000       -0.757171         2    ;  uncertainty k = 0.286372
        23         3         2        28     9        0.000000        1.072402         3    ;  uncertainty k = 0.344515
        23         3         2        28     9      180.000000        0.095213         4    ;  uncertainty k = 0.098481
        23         3         4        25     9        0.000000        0.175738         1    ;  uncertainty k = 0.561141
        23         3         4        25     9      180.000000       -1.667369         2    ;  uncertainty k = 0.947387
        23         3         4        25     9        0.000000        1.697105         3    ;  uncertainty k = 0.292158
        23         3         4        25     9      180.000000        0.081924         4    ;  uncertainty k = 0.160469
        23         3         4        30     9        0.000000        0.657369         1    ;  uncertainty k = 0.374668
        23         3         4        30     9      180.000000       -0.404967         2    ;  uncertainty k = 0.166764
        23         3         4        30     9        0.000000        1.011210         3    ;  uncertainty k = 0.339564
        23         3         4        30     9      180.000000        0.038254         4    ;  uncertainty k = 0.106386
        25         4         3        29     9        0.000000        0.503578         1    ;  uncertainty k = 0.318885
        25         4         3        29     9      180.000000       -0.277880         2    ;  uncertainty k = 0.393930
        25         4         3        29     9        0.000000        0.847385         3    ;  uncertainty k = 0.157182
        25         4         3        29     9      180.000000        0.014597         4    ;  uncertainty k = 0.057577
        27         1         2        28     9        0.000000       11.988387         1    ;  uncertainty k = 0.590992
        27         1         2        28     9      180.000000       -0.970082         2    ;  uncertainty k = 0.333203
        27         1         2        28     9        0.000000        0.872647         3    ;  uncertainty k = 0.135228
        27         1         2        28     9      180.000000        0.176823         4    ;  uncertainty k = 0.116273
        28         2         3        29     9        0.000000        0.113624         1    ;  uncertainty k = 0.330358
        28         2         3        29     9      180.000000       -0.804154         2    ;  uncertainty k = 0.224824
        28         2         3        29     9        0.000000        0.647301         3    ;  uncertainty k = 0.174037
        28         2         3        29     9      180.000000        0.107020         4    ;  uncertainty k = 0.093360
        29         3         4        30     9        0.000000        0.048112         1    ;  uncertainty k = 0.405143
        29         3         4        30     9      180.000000       -0.687750         2    ;  uncertainty k = 0.160743
        29         3         4        30     9        0.000000        0.602467         3    ;  uncertainty k = 0.144285
        29         3         4        30     9      180.000000        0.120363         4    ;  uncertainty k = 0.087444
        31         8         9        32     9        0.000000       -0.211852         1    ;  uncertainty k = 0.527910
        31         8         9        32     9      180.000000        7.499533         2    ;  uncertainty k = 0.443188
        31         8         9        32     9        0.000000       -0.295926         3    ;  uncertainty k = 0.270638
        31         8         9        32     9      180.000000        0.279349         4    ;  uncertainty k = 0.106267

[ dihedrals ] ; impropers
;       ai        aj        ak        al funct           phase               k        pn
         5         4         6        10     4      180.000000        3.241598         2    ;  uncertainty k = 0.441533
         5         6        10         4     4      180.000000        3.241598         2    ;  uncertainty k = 0.441533
         5        10         4         6     4      180.000000        3.241598         2    ;  uncertainty k = 0.441533
         6         2         5         7     4      180.000000        6.890953         2    ;  uncertainty k = 0.090256
         6         5         7         2     4      180.000000        6.890953         2    ;  uncertainty k = 0.090256
         6         7         2         5     4      180.000000        6.890953         2    ;  uncertainty k = 0.090256
         7         6         8        20     4      180.000000        4.365708         2    ;  uncertainty k = 0.260353
         7         8        20         6     4      180.000000        4.365708         2    ;  uncertainty k = 0.260353
         7        20         6         8     4      180.000000        4.365708         2    ;  uncertainty k = 0.260353
         8         7         9        31     4      180.000000        5.236113         2    ;  uncertainty k = 0.124366
         8         9        31         7     4      180.000000        5.236113         2    ;  uncertainty k = 0.124366
         8        31         7         9     4      180.000000        5.236113         2    ;  uncertainty k = 0.124366
         9         8        10        32     4      180.000000        1.951201         2    ;  uncertainty k = 0.084961
         9        10        32         8     4      180.000000        1.951201         2    ;  uncertainty k = 0.084961
         9        32         8        10     4      180.000000        1.951201         2    ;  uncertainty k = 0.084961
        10         5         9        11     4      180.000000       18.680616         2    ;  uncertainty k = 0.102561
        10         9        11         5     4      180.000000       18.680616         2    ;  uncertainty k = 0.102561
        10        11         5         9     4      180.000000       18.680616         2    ;  uncertainty k = 0.102561
        12        11        13        19     4      180.000000       19.072638         2    ;  uncertainty k = 0.034727
        12        13        19        11     4      180.000000       19.072638         2    ;  uncertainty k = 0.034727
        12        19        11        13     4      180.000000       19.072638         2    ;  uncertainty k = 0.034727
        13        12        14        33     4      180.000000        1.848818         2    ;  uncertainty k = 0.255047
        13        14        33        12     4      180.000000        1.848818         2    ;  uncertainty k = 0.255047
        13        33        12        14     4      180.000000        1.848818         2    ;  uncertainty k = 0.255047
        14        13        15        16     4      180.000000       17.880537         2    ;  uncertainty k = 0.047509
        14        15        16        13     4      180.000000       17.880537         2    ;  uncertainty k = 0.047509
        14        16        13        15     4      180.000000       17.880537         2    ;  uncertainty k = 0.047509
        16        14        17        34     4      180.000000        2.461655         2    ;  uncertainty k = 0.340230
        16        17        34        14     4      180.000000        2.461655         2    ;  uncertainty k = 0.340230
        16        34        14        17     4      180.000000        2.461655         2    ;  uncertainty k = 0.340230
        17        16        18        19     4      180.000000       11.727372         2    ;  uncertainty k = 0.187314
        17        18        19        16     4      180.000000       11.727372         2    ;  uncertainty k = 0.187314
        17        19        16        18     4      180.000000       11.727372         2    ;  uncertainty k = 0.187314
        19        12        17        35     4      180.000000        2.852757         2    ;  uncertainty k = 0.269075
        19        17        35        12     4      180.000000        2.852757         2    ;  uncertainty k = 0.269075
        19        35        12        17     4      180.000000        2.852757         2    ;  uncertainty k = 0.269075
        26        20        36        37     4      180.000000        0.158670         2    ;  uncertainty k = 0.354797
        26        36        37        20     4      180.000000        0.158670         2    ;  uncertainty k = 0.354797
        26        37        20        36     4      180.000000        0.158670         2    ;  uncertainty k = 0.354797

[ pairs ]
;       ai        aj funct
         1         4     1
         1         5     1
         1         7     1
         1        23     1
         1        29     1
         2         8     1
         2        10     1
         2        20     1
         2        25     1
         2        30     1
         3         7     1
         3        10     1
         3        27     1
         4         7     1
         4         9     1
         4        11     1
         4        28     1
         5         8     1
         5        12     1
         5        20     1
         5        23     1
         5        28     1
         5        29     1
         5        32     1
         6         9     1
         6        11     1
         6        21     1
         6        22     1
         6        23     1
         6        25     1
         6        26     1
         6        27     1
         6        29     1
         6        30     1
         6        31     1
         7        10     1
         7        28     1
         7        32     1
         7        36     1
         7        37     1
         8        11     1
         8        21     1
         8        22     1
         8        26     1
         9        12     1
         9        20     1
        10        13     1
        10        19     1
        10        25     1
        10        30     1
        10        31     1
        11        14     1
        11        17     1
        11        32     1
        11        33     1
        11        35     1
        12        15     1
        12        16     1
        12        18     1
        13        17     1
        13        34     1
        13        35     1
        14        18     1
        14        19     1
        15        17     1
        15        33     1
        15        34     1
        16        24     1
        16        33     1
        16        35     1
        18        34     1
        18        35     1
        19        24     1
        19        33     1
        19        34     1
        20        31     1
        21        36     1
        21        37     1
        22        36     1
        22        37     1
        23        25     1
        23        28     1
        23        30     1
        25        29     1
        27        28     1
        28        29     1
        29        30     1
        31        32     1
