; ITP file created by ByteFF-joint-25, 2026-02-17 09:19:24.156771

[ atomtypes ]
;name           bonded.type        at.num        mass        charge   ptype           sigma         epsilon
 o0bf                                   8      0.0000       0.00000       A     3.24321e-01     3.87761e-01    ;  uncertainty sigma = 0.000029, epsilon = 0.000680
 c1bf                                   6      0.0000       0.00000       A     3.39739e-01     4.50211e-01    ;  uncertainty sigma = 0.000033, epsilon = 0.001519
 c2bf                                   6      0.0000       0.00000       A     3.39783e-01     4.50814e-01    ;  uncertainty sigma = 0.000024, epsilon = 0.001337
 c3bf                                   6      0.0000       0.00000       A     3.39795e-01     4.50497e-01    ;  uncertainty sigma = 0.000029, epsilon = 0.002246
 c4bf                                   6      0.0000       0.00000       A     3.31536e-01     4.13913e-01    ;  uncertainty sigma = 0.000011, epsilon = 0.002407
 c5bf                                   6      0.0000       0.00000       A     3.31566e-01     4.12658e-01    ;  uncertainty sigma = 0.000022, epsilon = 0.001206
 c6bf                                   6      0.0000       0.00000       A     3.31518e-01     4.13036e-01    ;  uncertainty sigma = 0.000023, epsilon = 0.002492
 c7bf                                   6      0.0000       0.00000       A     3.31526e-01     4.13435e-01    ;  uncertainty sigma = 0.000007, epsilon = 0.000844
 c8bf                                   6      0.0000       0.00000       A     3.31530e-01     4.13684e-01    ;  uncertainty sigma = 0.000010, epsilon = 0.000463
 c9bf                                   6      0.0000       0.00000       A     3.31529e-01     4.13298e-01    ;  uncertainty sigma = 0.000020, epsilon = 0.000950
 o10bf                                  8      0.0000       0.00000       A     3.15533e-01     3.01748e-01    ;  uncertainty sigma = 0.000029, epsilon = 0.001441
 c11bf                                  6      0.0000       0.00000       A     3.31495e-01     4.13941e-01    ;  uncertainty sigma = 0.000010, epsilon = 0.001010
 c12bf                                  6      0.0000       0.00000       A     3.31520e-01     4.13586e-01    ;  uncertainty sigma = 0.000002, epsilon = 0.000805
 c13bf                                  6      0.0000       0.00000       A     3.31497e-01     4.13352e-01    ;  uncertainty sigma = 0.000008, epsilon = 0.000492
 f14bf                                  9      0.0000       0.00000       A     3.03420e-01     3.47893e-01    ;  uncertainty sigma = 0.000010, epsilon = 0.000765
 c15bf                                  6      0.0000       0.00000       A     3.31510e-01     4.13401e-01    ;  uncertainty sigma = 0.000009, epsilon = 0.000546
 c16bf                                  6      0.0000       0.00000       A     3.31508e-01     4.13715e-01    ;  uncertainty sigma = 0.000016, epsilon = 0.000826
 c17bf                                  6      0.0000       0.00000       A     3.47927e-01     6.68046e-01    ;  uncertainty sigma = 0.000023, epsilon = 0.001608
 c18bf                                  6      0.0000       0.00000       A     3.31520e-01     4.13321e-01    ;  uncertainty sigma = 0.000008, epsilon = 0.000748
 s19bf                                 16      0.0000       0.00000       A     4.05850e-01     2.55204e-01    ;  uncertainty sigma = 0.000020, epsilon = 0.004067
 o20bf                                  8      0.0000       0.00000       A     3.04823e-01     6.12515e-01    ;  uncertainty sigma = 0.000023, epsilon = 0.001528
 o21bf                                  8      0.0000       0.00000       A     3.04823e-01     6.12515e-01    ;  uncertainty sigma = 0.000023, epsilon = 0.001528
 f22bf                                  9      0.0000       0.00000       A     3.03478e-01     3.48137e-01    ;  uncertainty sigma = 0.000018, epsilon = 0.002399
 n23bf                                  7      0.0000       0.00000       A     3.27375e-01     4.59084e-01    ;  uncertainty sigma = 0.000021, epsilon = 0.000492
 f24bf                                  9      0.0000       0.00000       A     3.03503e-01     3.48192e-01    ;  uncertainty sigma = 0.000072, epsilon = 0.002928
 f25bf                                  9      0.0000       0.00000       A     3.03478e-01     3.48137e-01    ;  uncertainty sigma = 0.000018, epsilon = 0.002399
 n26bf                                  7      0.0000       0.00000       A     3.64926e-01     1.35405e-01    ;  uncertainty sigma = 0.000078, epsilon = 0.002837
 h27bf                                  1      0.0000       0.00000       A     5.38093e-02     1.93077e-02    ;  uncertainty sigma = 0.000062, epsilon = 0.000926
 h28bf                                  1      0.0000       0.00000       A     2.42328e-01     8.68224e-02    ;  uncertainty sigma = 0.000128, epsilon = 0.000806
 h29bf                                  1      0.0000       0.00000       A     2.42289e-01     8.70296e-02    ;  uncertainty sigma = 0.000078, epsilon = 0.001601
 h30bf                                  1      0.0000       0.00000       A     2.62561e-01     6.72196e-02    ;  uncertainty sigma = 0.000018, epsilon = 0.000741
 h31bf                                  1      0.0000       0.00000       A     2.62556e-01     6.70855e-02    ;  uncertainty sigma = 0.000006, epsilon = 0.000381
 h32bf                                  1      0.0000       0.00000       A     2.62552e-01     6.72491e-02    ;  uncertainty sigma = 0.000007, epsilon = 0.000350
 h33bf                                  1      0.0000       0.00000       A     2.62545e-01     6.70249e-02    ;  uncertainty sigma = 0.000017, epsilon = 0.000507
 h34bf                                  1      0.0000       0.00000       A     2.62547e-01     6.71166e-02    ;  uncertainty sigma = 0.000014, epsilon = 0.000743
 h35bf                                  1      0.0000       0.00000       A     1.10687e-01     4.13796e-02    ;  uncertainty sigma = 0.000118, epsilon = 0.001002
 h36bf                                  1      0.0000       0.00000       A     1.10687e-01     4.13797e-02    ;  uncertainty sigma = 0.000118, epsilon = 0.001002

[ moleculetype ]
;name             nrexcl
 MOL                   3

[ atoms ]
;       nr            type      resi   res      atom      cgnr      charge          mass ; qtot
         1            o0bf         1   UNL        o0         1    -0.56779       15.9990 ; qtot   -0.568
         2            c1bf         1   UNL        c1         2     0.16500       12.0110 ; qtot   -0.403
         3            c2bf         1   UNL        c2         3     0.37054       12.0110 ; qtot   -0.032
         4            c3bf         1   UNL        c3         4     0.20492       12.0110 ; qtot    0.173
         5            c4bf         1   UNL        c4         5    -0.13577       12.0110 ; qtot    0.037
         6            c5bf         1   UNL        c5         6     0.02738       12.0110 ; qtot    0.064
         7            c6bf         1   UNL        c6         7    -0.23646       12.0110 ; qtot   -0.172
         8            c7bf         1   UNL        c7         8     0.00028       12.0110 ; qtot   -0.172
         9            c8bf         1   UNL        c8         9    -0.18356       12.0110 ; qtot   -0.355
        10            c9bf         1   UNL        c9        10     0.19468       12.0110 ; qtot   -0.161
        11           o10bf         1   UNL       o10        11    -0.24433       15.9990 ; qtot   -0.405
        12           c11bf         1   UNL       c11        12     0.15076       12.0110 ; qtot   -0.254
        13           c12bf         1   UNL       c12        13    -0.18271       12.0110 ; qtot   -0.437
        14           c13bf         1   UNL       c13        14     0.15843       12.0110 ; qtot   -0.279
        15           f14bf         1   UNL       f14        15    -0.12713       18.9980 ; qtot   -0.406
        16           c15bf         1   UNL       c15        16    -0.15485       12.0110 ; qtot   -0.561
        17           c16bf         1   UNL       c16        17     0.03943       12.0110 ; qtot   -0.521
        18           c17bf         1   UNL       c17        18     0.22805       12.0110 ; qtot   -0.293
        19           c18bf         1   UNL       c18        19    -0.13883       12.0110 ; qtot   -0.432
        20           s19bf         1   UNL       s19        20     1.19806       32.0670 ; qtot    0.766
        21           o20bf         1   UNL       o20        21    -0.59660       15.9990 ; qtot    0.169
        22           o21bf         1   UNL       o21        22    -0.59660       15.9990 ; qtot   -0.427
        23           f22bf         1   UNL       f22        23    -0.21521       18.9980 ; qtot   -0.642
        24           n23bf         1   UNL       n23        24    -0.34869       14.0070 ; qtot   -0.991
        25           f24bf         1   UNL       f24        25    -0.21873       18.9980 ; qtot   -1.210
        26           f25bf         1   UNL       f25        26    -0.21521       18.9980 ; qtot   -1.425
        27           n26bf         1   UNL       n26        27    -0.85461       14.0070 ; qtot   -2.280
        28           h27bf         1   UNL       h27        28     0.41939        1.0080 ; qtot   -1.860
        29           h28bf         1   UNL       h28        29     0.09717        1.0080 ; qtot   -1.763
        30           h29bf         1   UNL       h29        30     0.10266        1.0080 ; qtot   -1.660
        31           h30bf         1   UNL       h30        31     0.16677        1.0080 ; qtot   -1.494
        32           h31bf         1   UNL       h31        32     0.15951        1.0080 ; qtot   -1.334
        33           h32bf         1   UNL       h32        33     0.16858        1.0080 ; qtot   -1.165
        34           h33bf         1   UNL       h33        34     0.16624        1.0080 ; qtot   -0.999
        35           h34bf         1   UNL       h34        35     0.16647        1.0080 ; qtot   -0.833
        36           h35bf         1   UNL       h35        36     0.41638        1.0080 ; qtot   -0.416
        37           h36bf         1   UNL       h36        37     0.41638        1.0080 ; qtot   -0.000

[ bonds ]
;       ai        aj funct               r               k
         1         2     1        0.141132   268772.687842    ;  uncertainty r = 0.000175, k = 17.312061
         1        28     1        0.097114   457336.430664    ;  uncertainty r = 0.000048, k = 2.242874
         2         3     1        0.154618   186697.656860    ;  uncertainty r = 0.000258, k = 8.049675
         2         6     1        0.151744   238308.244287    ;  uncertainty r = 0.000114, k = 22.183687
         2        29     1        0.109487   309411.830811    ;  uncertainty r = 0.000079, k = 2.638350
         3         4     1        0.154708   191121.028955    ;  uncertainty r = 0.000190, k = 10.991713
         3        23     1        0.136610   299696.518457    ;  uncertainty r = 0.000133, k = 11.006016
         3        26     1        0.136610   299696.518457    ;  uncertainty r = 0.000133, k = 11.006016
         4         5     1        0.150545   246125.127930    ;  uncertainty r = 0.000106, k = 19.313589
         4        25     1        0.139773   288159.567480    ;  uncertainty r = 0.000190, k = 13.119182
         4        30     1        0.109347   314108.922412    ;  uncertainty r = 0.000038, k = 2.440619
         5         6     1        0.139140   360373.635205    ;  uncertainty r = 0.000235, k = 20.067710
         5        10     1        0.138808   351448.849609    ;  uncertainty r = 0.000221, k = 7.543728
         6         7     1        0.139021   333353.304980    ;  uncertainty r = 0.000215, k = 16.836541
         7         8     1        0.139261   350537.634473    ;  uncertainty r = 0.000132, k = 6.200972
         7        20     1        0.178559   154144.750195    ;  uncertainty r = 0.000199, k = 17.842989
         8         9     1        0.139176   367354.229590    ;  uncertainty r = 0.000111, k = 6.155882
         8        31     1        0.108485   328628.812061    ;  uncertainty r = 0.000022, k = 1.996754
         9        10     1        0.139602   352203.190283    ;  uncertainty r = 0.000147, k = 8.781610
         9        32     1        0.108759   335905.483691    ;  uncertainty r = 0.000038, k = 1.085638
        10        11     1        0.137893   319226.380371    ;  uncertainty r = 0.000213, k = 13.780176
        11        12     1        0.137336   316423.325098    ;  uncertainty r = 0.000111, k = 8.017626
        12        13     1        0.139427   359163.303906    ;  uncertainty r = 0.000040, k = 4.028925
        12        19     1        0.139179   355512.646436    ;  uncertainty r = 0.000043, k = 0.656935
        13        14     1        0.138903   360755.951270    ;  uncertainty r = 0.000040, k = 3.414912
        13        33     1        0.108801   339525.062500    ;  uncertainty r = 0.000019, k = 1.519211
        14        15     1        0.134939   340193.470801    ;  uncertainty r = 0.000095, k = 3.973496
        14        16     1        0.138772   359379.322314    ;  uncertainty r = 0.000049, k = 1.285215
        16        17     1        0.140293   363423.557715    ;  uncertainty r = 0.000073, k = 1.983955
        16        34     1        0.108643   335847.029248    ;  uncertainty r = 0.000020, k = 0.933262
        17        18     1        0.143666   316064.886230    ;  uncertainty r = 0.000041, k = 3.494324
        17        19     1        0.140042   357603.165283    ;  uncertainty r = 0.000048, k = 4.155025
        18        24     1        0.116625  1127949.809766    ;  uncertainty r = 0.000026, k = 2.900562
        19        35     1        0.108681   335495.357715    ;  uncertainty r = 0.000025, k = 1.572342
        20        21     1        0.148008   572633.108594    ;  uncertainty r = 0.000071, k = 6.985206
        20        22     1        0.148008   572633.108594    ;  uncertainty r = 0.000071, k = 6.985206
        20        27     1        0.173169   399710.972949    ;  uncertainty r = 0.000114, k = 17.328676
        27        36     1        0.102773   455751.495508    ;  uncertainty r = 0.000050, k = 3.119897
        27        37     1        0.102773   455751.495508    ;  uncertainty r = 0.000050, k = 3.119897

[ angles ]
;       ai        aj        ak funct           theta             cth
         1         2         3     1      107.143677      631.859718    ;  uncertainty theta = 0.008413, k = 0.249486
         1         2         6     1      111.671410      658.739121    ;  uncertainty theta = 0.006381, k = 0.202856
         1         2        29     1      108.221779      443.342605    ;  uncertainty theta = 0.009408, k = 0.190813
         2         1        28     1      107.198753      455.732541    ;  uncertainty theta = 0.001825, k = 0.126115
         2         3         4     1      110.661293      643.036863    ;  uncertainty theta = 0.006420, k = 0.217338
         2         3        23     1      110.060341      591.954664    ;  uncertainty theta = 0.003994, k = 0.115514
         2         3        26     1      110.060341      591.954664    ;  uncertainty theta = 0.003994, k = 0.115514
         2         6         5     1      115.539330      517.374079    ;  uncertainty theta = 0.006100, k = 0.212151
         2         6         7     1      124.653854      358.256213    ;  uncertainty theta = 0.004969, k = 0.158680
         3         2         6     1      104.666321      711.654949    ;  uncertainty theta = 0.006038, k = 0.270128
         3         2        29     1      106.623802      385.173859    ;  uncertainty theta = 0.005749, k = 0.233876
         3         4         5     1      104.842117      689.243135    ;  uncertainty theta = 0.004616, k = 0.286804
         3         4        25     1      107.696915      575.653306    ;  uncertainty theta = 0.006844, k = 0.153902
         3         4        30     1      108.258644      380.537852    ;  uncertainty theta = 0.005588, k = 0.199392
         4         3        23     1      109.606125      587.398142    ;  uncertainty theta = 0.006916, k = 0.133335
         4         3        26     1      109.606125      587.398142    ;  uncertainty theta = 0.006916, k = 0.133335
         4         5         6     1      115.121216      519.917096    ;  uncertainty theta = 0.006865, k = 0.195302
         4         5        10     1      124.621414      365.132048    ;  uncertainty theta = 0.003508, k = 0.303798
         5         4        25     1      111.778183      658.747868    ;  uncertainty theta = 0.002415, k = 0.390408
         5         4        30     1      112.328819      365.980933    ;  uncertainty theta = 0.002497, k = 0.146186
         5         6         7     1      121.229530      420.471634    ;  uncertainty theta = 0.008328, k = 0.400145
         5        10         9     1      120.076927      383.915039    ;  uncertainty theta = 0.004826, k = 0.201992
         5        10        11     1      117.522446      416.228707    ;  uncertainty theta = 0.005798, k = 0.243186
         6         2        29     1      109.630905      378.999209    ;  uncertainty theta = 0.005584, k = 0.221618
         6         5        10     1      120.217812      419.187820    ;  uncertainty theta = 0.006226, k = 0.229280
         6         7         8     1      122.451340      446.228618    ;  uncertainty theta = 0.007414, k = 0.183237
         6         7        20     1      116.388367      351.034989    ;  uncertainty theta = 0.011197, k = 0.306202
         7         8         9     1      121.657799      497.148688    ;  uncertainty theta = 0.008587, k = 0.095427
         7         8        31     1      118.690903      259.536228    ;  uncertainty theta = 0.003038, k = 0.120148
         7        20        21     1      114.908463      534.123135    ;  uncertainty theta = 0.007939, k = 0.157081
         7        20        22     1      114.908463      534.123135    ;  uncertainty theta = 0.007939, k = 0.157081
         7        20        27     1      107.607422      678.652257    ;  uncertainty theta = 0.008390, k = 0.150349
         8         7        20     1      116.180809      347.370254    ;  uncertainty theta = 0.008910, k = 0.160057
         8         9        10     1      120.040894      511.773280    ;  uncertainty theta = 0.002118, k = 0.057846
         8         9        32     1      120.260941      276.871648    ;  uncertainty theta = 0.001331, k = 0.033625
         9         8        31     1      120.463089      282.908940    ;  uncertainty theta = 0.002684, k = 0.068784
         9        10        11     1      120.807663      433.930968    ;  uncertainty theta = 0.004820, k = 0.201765
        10         9        32     1      120.103683      275.093978    ;  uncertainty theta = 0.002160, k = 0.077066
        10        11        12     1      112.575401      471.714526    ;  uncertainty theta = 0.002735, k = 0.063475
        11        12        13     1      118.844681      418.953804    ;  uncertainty theta = 0.002951, k = 0.060456
        11        12        19     1      119.104492      404.496640    ;  uncertainty theta = 0.003920, k = 0.053088
        12        13        14     1      117.038597      502.569227    ;  uncertainty theta = 0.003445, k = 0.110867
        12        13        33     1      121.702477      272.440034    ;  uncertainty theta = 0.003455, k = 0.132527
        12        19        17     1      118.761208      522.894787    ;  uncertainty theta = 0.001489, k = 0.068180
        12        19        35     1      120.905983      280.332437    ;  uncertainty theta = 0.002004, k = 0.062093
        13        12        19     1      122.428162      385.560203    ;  uncertainty theta = 0.005403, k = 0.175952
        13        14        15     1      118.267052      494.604714    ;  uncertainty theta = 0.001988, k = 0.058359
        13        14        16     1      123.726730      369.147375    ;  uncertainty theta = 0.006010, k = 0.127235
        14        13        33     1      121.505081      285.104493    ;  uncertainty theta = 0.003243, k = 0.069272
        14        16        17     1      117.400681      493.697380    ;  uncertainty theta = 0.001506, k = 0.173040
        14        16        34     1      121.339279      286.173157    ;  uncertainty theta = 0.003120, k = 0.038569
        15        14        16     1      118.689796      499.274046    ;  uncertainty theta = 0.003051, k = 0.052524
        16        17        18     1      119.117836      375.204905    ;  uncertainty theta = 0.002733, k = 0.097877
        16        17        19     1      122.566833      457.580470    ;  uncertainty theta = 0.002293, k = 0.135282
        17        16        34     1      121.185242      278.472122    ;  uncertainty theta = 0.003138, k = 0.095958
        17        18        24     1      180.000000      233.555922    ;  uncertainty theta = 0.000000, k = 0.675784
        17        19        35     1      120.586197      284.638441    ;  uncertainty theta = 0.004219, k = 0.089604
        18        17        19     1      118.919228      375.151182    ;  uncertainty theta = 0.002637, k = 0.097444
        20        27        36     1      115.937195      479.911938    ;  uncertainty theta = 0.001943, k = 0.084465
        20        27        37     1      115.937195      479.911938    ;  uncertainty theta = 0.001943, k = 0.084465
        21        20        22     1      126.189552      821.384141    ;  uncertainty theta = 0.006195, k = 0.054353
        21        20        27     1      116.329086     1125.200408    ;  uncertainty theta = 0.003385, k = 0.071601
        22        20        27     1      116.329086     1125.200408    ;  uncertainty theta = 0.003385, k = 0.071601
        23         3        26     1      107.574524      800.007282    ;  uncertainty theta = 0.004823, k = 0.133258
        25         4        30     1      107.867599      447.472531    ;  uncertainty theta = 0.001423, k = 0.145984
        36        27        37     1      109.758423      338.498375    ;  uncertainty theta = 0.004066, k = 0.117683

[ dihedrals ] ; propers for gromacs 4.5 or higher, use funct 9
;       ai        aj        ak        al funct           phase               k        pn
         1         2         3         4     9        0.000000       -2.030957         1    ;  uncertainty k = 1.060697
         1         2         3         4     9      180.000000        1.587536         2    ;  uncertainty k = 0.393097
         1         2         3         4     9        0.000000        0.597760         3    ;  uncertainty k = 0.405866
         1         2         3         4     9      180.000000        0.089303         4    ;  uncertainty k = 0.245287
         1         2         3        23     9        0.000000       -0.241052         1    ;  uncertainty k = 1.646599
         1         2         3        23     9      180.000000        0.547838         2    ;  uncertainty k = 0.826886
         1         2         3        23     9        0.000000        1.453070         3    ;  uncertainty k = 0.436995
         1         2         3        23     9      180.000000        0.117045         4    ;  uncertainty k = 0.260293
         1         2         3        26     9        0.000000       -0.241052         1    ;  uncertainty k = 1.646599
         1         2         3        26     9      180.000000        0.547838         2    ;  uncertainty k = 0.826886
         1         2         3        26     9        0.000000        1.453070         3    ;  uncertainty k = 0.436995
         1         2         3        26     9      180.000000        0.117045         4    ;  uncertainty k = 0.260293
         1         2         6         5     9        0.000000       -3.748074         1    ;  uncertainty k = 1.911978
         1         2         6         5     9      180.000000        5.071238         2    ;  uncertainty k = 1.122945
         1         2         6         5     9        0.000000        0.834596         3    ;  uncertainty k = 0.671593
         1         2         6         5     9      180.000000        0.576568         4    ;  uncertainty k = 0.195219
         1         2         6         7     9        0.000000       -1.554525         1    ;  uncertainty k = 1.430582
         1         2         6         7     9      180.000000        3.608908         2    ;  uncertainty k = 0.388459
         1         2         6         7     9        0.000000       -0.120583         3    ;  uncertainty k = 0.287604
         1         2         6         7     9      180.000000        0.512213         4    ;  uncertainty k = 0.179535
         2         3         4         5     9        0.000000        0.023202         1    ;  uncertainty k = 2.400256
         2         3         4         5     9      180.000000        1.731069         2    ;  uncertainty k = 0.934486
         2         3         4         5     9        0.000000       -0.391436         3    ;  uncertainty k = 0.504287
         2         3         4         5     9      180.000000       -0.083077         4    ;  uncertainty k = 0.299609
         2         3         4        25     9        0.000000       -0.401779         1    ;  uncertainty k = 0.734930
         2         3         4        25     9      180.000000        1.317927         2    ;  uncertainty k = 0.647981
         2         3         4        25     9        0.000000        0.333612         3    ;  uncertainty k = 0.191404
         2         3         4        25     9      180.000000        0.169570         4    ;  uncertainty k = 0.327991
         2         3         4        30     9        0.000000       -0.321582         1    ;  uncertainty k = 0.504686
         2         3         4        30     9      180.000000        0.369810         2    ;  uncertainty k = 0.233526
         2         3         4        30     9        0.000000       -0.139434         3    ;  uncertainty k = 0.239567
         2         3         4        30     9      180.000000       -0.155816         4    ;  uncertainty k = 0.220784
         2         6         5         4     9        0.000000        0.806769         1    ;  uncertainty k = 0.929264
         2         6         5         4     9      180.000000       12.037482         2    ;  uncertainty k = 0.722031
         2         6         5         4     9        0.000000       -0.550192         3    ;  uncertainty k = 1.280798
         2         6         5         4     9      180.000000        1.269813         4    ;  uncertainty k = 0.371491
         2         6         5        10     9        0.000000        0.466342         1    ;  uncertainty k = 0.474844
         2         6         5        10     9      180.000000        8.239314         2    ;  uncertainty k = 0.395956
         2         6         5        10     9        0.000000        0.816780         3    ;  uncertainty k = 0.251256
         2         6         5        10     9      180.000000        1.243014         4    ;  uncertainty k = 0.220183
         2         6         7         8     9        0.000000        0.264080         1    ;  uncertainty k = 0.619452
         2         6         7         8     9      180.000000        6.389641         2    ;  uncertainty k = 0.500310
         2         6         7         8     9        0.000000        1.269538         3    ;  uncertainty k = 0.316523
         2         6         7         8     9      180.000000        1.644022         4    ;  uncertainty k = 0.129031
         2         6         7        20     9        0.000000        0.022753         1    ;  uncertainty k = 0.940387
         2         6         7        20     9      180.000000        7.109867         2    ;  uncertainty k = 0.429254
         2         6         7        20     9        0.000000        1.103720         3    ;  uncertainty k = 0.171960
         2         6         7        20     9      180.000000        1.204307         4    ;  uncertainty k = 0.184431
         3         2         1        28     9        0.000000       13.288604         1    ;  uncertainty k = 0.502574
         3         2         1        28     9      180.000000       -4.881158         2    ;  uncertainty k = 0.428821
         3         2         1        28     9        0.000000        0.976378         3    ;  uncertainty k = 0.193848
         3         2         1        28     9      180.000000        0.084398         4    ;  uncertainty k = 0.072575
         3         2         6         5     9        0.000000       -0.709685         1    ;  uncertainty k = 2.144985
         3         2         6         5     9      180.000000        8.729811         2    ;  uncertainty k = 1.095756
         3         2         6         5     9        0.000000       -1.051344         3    ;  uncertainty k = 0.468535
         3         2         6         5     9      180.000000        0.805525         4    ;  uncertainty k = 0.274129
         3         2         6         7     9        0.000000       -1.080336         1    ;  uncertainty k = 1.249980
         3         2         6         7     9      180.000000        3.591099         2    ;  uncertainty k = 0.713583
         3         2         6         7     9        0.000000        0.237243         3    ;  uncertainty k = 0.285364
         3         2         6         7     9      180.000000        0.632102         4    ;  uncertainty k = 0.226428
         3         4         5         6     9        0.000000       -1.786174         1    ;  uncertainty k = 2.033069
         3         4         5         6     9      180.000000        9.220898         2    ;  uncertainty k = 0.607773
         3         4         5         6     9        0.000000       -1.634183         3    ;  uncertainty k = 0.418953
         3         4         5         6     9      180.000000        0.789131         4    ;  uncertainty k = 0.263714
         3         4         5        10     9        0.000000       -0.123209         1    ;  uncertainty k = 1.269099
         3         4         5        10     9      180.000000        3.189642         2    ;  uncertainty k = 0.829502
         3         4         5        10     9        0.000000        0.015128         3    ;  uncertainty k = 0.217752
         3         4         5        10     9      180.000000        0.603960         4    ;  uncertainty k = 0.302877
         4         3         2         6     9        0.000000        0.435028         1    ;  uncertainty k = 1.434753
         4         3         2         6     9      180.000000        1.208181         2    ;  uncertainty k = 0.496173
         4         3         2         6     9        0.000000       -0.277747         3    ;  uncertainty k = 0.341764
         4         3         2         6     9      180.000000       -0.016084         4    ;  uncertainty k = 0.289010
         4         3         2        29     9        0.000000       -0.378009         1    ;  uncertainty k = 0.676251
         4         3         2        29     9      180.000000        0.314519         2    ;  uncertainty k = 0.286803
         4         3         2        29     9        0.000000       -0.025709         3    ;  uncertainty k = 0.226649
         4         3         2        29     9      180.000000       -0.134440         4    ;  uncertainty k = 0.215425
         4         5         6         7     9        0.000000        0.284272         1    ;  uncertainty k = 0.322784
         4         5         6         7     9      180.000000        8.419220         2    ;  uncertainty k = 0.496040
         4         5         6         7     9        0.000000        0.720747         3    ;  uncertainty k = 0.355786
         4         5         6         7     9      180.000000        1.281274         4    ;  uncertainty k = 0.213120
         4         5        10         9     9        0.000000        0.336589         1    ;  uncertainty k = 0.244403
         4         5        10         9     9      180.000000        6.209383         2    ;  uncertainty k = 0.355300
         4         5        10         9     9        0.000000        1.464176         3    ;  uncertainty k = 0.307976
         4         5        10         9     9      180.000000        1.696343         4    ;  uncertainty k = 0.196860
         4         5        10        11     9        0.000000       -0.072900         1    ;  uncertainty k = 0.505845
         4         5        10        11     9      180.000000        8.535521         2    ;  uncertainty k = 0.325136
         4         5        10        11     9        0.000000        1.069216         3    ;  uncertainty k = 0.305129
         4         5        10        11     9      180.000000        1.317334         4    ;  uncertainty k = 0.094162
         5         4         3        23     9        0.000000       -0.135720         1    ;  uncertainty k = 1.640870
         5         4         3        23     9      180.000000        0.840787         2    ;  uncertainty k = 0.839649
         5         4         3        23     9        0.000000        0.914249         3    ;  uncertainty k = 0.275484
         5         4         3        23     9      180.000000        0.327703         4    ;  uncertainty k = 0.177702
         5         4         3        26     9        0.000000       -0.135720         1    ;  uncertainty k = 1.640870
         5         4         3        26     9      180.000000        0.840787         2    ;  uncertainty k = 0.839649
         5         4         3        26     9        0.000000        0.914249         3    ;  uncertainty k = 0.275484
         5         4         3        26     9      180.000000        0.327703         4    ;  uncertainty k = 0.177702
         5         6         2        29     9        0.000000       -0.581751         1    ;  uncertainty k = 0.694525
         5         6         2        29     9      180.000000        3.290899         2    ;  uncertainty k = 0.700403
         5         6         2        29     9        0.000000        0.728429         3    ;  uncertainty k = 0.159294
         5         6         2        29     9      180.000000        0.251721         4    ;  uncertainty k = 0.142609
         5         6         7         8     9        0.000000       -0.357199         1    ;  uncertainty k = 0.383451
         5         6         7         8     9      180.000000        9.742338         2    ;  uncertainty k = 0.387825
         5         6         7         8     9        0.000000       -0.551001         3    ;  uncertainty k = 0.365392
         5         6         7         8     9      180.000000        0.931072         4    ;  uncertainty k = 0.213201
         5         6         7        20     9        0.000000        0.228621         1    ;  uncertainty k = 0.762160
         5         6         7        20     9      180.000000        8.133585         2    ;  uncertainty k = 0.603254
         5         6         7        20     9        0.000000        1.446668         3    ;  uncertainty k = 0.569516
         5         6         7        20     9      180.000000        1.650860         4    ;  uncertainty k = 0.183420
         5        10         9         8     9        0.000000        0.285629         1    ;  uncertainty k = 0.346707
         5        10         9         8     9      180.000000        8.829585         2    ;  uncertainty k = 0.546300
         5        10         9         8     9        0.000000        0.293953         3    ;  uncertainty k = 0.440658
         5        10         9         8     9      180.000000        1.317605         4    ;  uncertainty k = 0.322862
         5        10         9        32     9        0.000000        0.138255         1    ;  uncertainty k = 0.430897
         5        10         9        32     9      180.000000        6.953333         2    ;  uncertainty k = 0.596194
         5        10         9        32     9        0.000000        1.309187         3    ;  uncertainty k = 0.527354
         5        10         9        32     9      180.000000        1.595921         4    ;  uncertainty k = 0.159050
         5        10        11        12     9        0.000000        3.859083         1    ;  uncertainty k = 0.622894
         5        10        11        12     9      180.000000        5.521427         2    ;  uncertainty k = 0.552721
         5        10        11        12     9        0.000000        0.499646         3    ;  uncertainty k = 0.129656
         5        10        11        12     9      180.000000        0.170221         4    ;  uncertainty k = 0.035250
         6         2         1        28     9        0.000000       13.720439         1    ;  uncertainty k = 0.262439
         6         2         1        28     9      180.000000       -3.967201         2    ;  uncertainty k = 0.650288
         6         2         1        28     9        0.000000        1.031788         3    ;  uncertainty k = 0.184579
         6         2         1        28     9      180.000000        0.065917         4    ;  uncertainty k = 0.057627
         6         2         3        23     9        0.000000        0.451898         1    ;  uncertainty k = 1.365071
         6         2         3        23     9      180.000000        0.646398         2    ;  uncertainty k = 1.182276
         6         2         3        23     9        0.000000        0.827651         3    ;  uncertainty k = 0.172293
         6         2         3        23     9      180.000000        0.304863         4    ;  uncertainty k = 0.121709
         6         2         3        26     9        0.000000        0.451898         1    ;  uncertainty k = 1.365071
         6         2         3        26     9      180.000000        0.646398         2    ;  uncertainty k = 1.182276
         6         2         3        26     9        0.000000        0.827651         3    ;  uncertainty k = 0.172293
         6         2         3        26     9      180.000000        0.304863         4    ;  uncertainty k = 0.121709
         6         5         4        25     9        0.000000       -1.293926         1    ;  uncertainty k = 0.790694
         6         5         4        25     9      180.000000        3.871649         2    ;  uncertainty k = 0.578356
         6         5         4        25     9        0.000000        0.539244         3    ;  uncertainty k = 0.574580
         6         5         4        25     9      180.000000        0.598735         4    ;  uncertainty k = 0.149486
         6         5         4        30     9        0.000000       -0.276078         1    ;  uncertainty k = 0.685246
         6         5         4        30     9      180.000000        2.821532         2    ;  uncertainty k = 0.583496
         6         5         4        30     9        0.000000        0.389940         3    ;  uncertainty k = 0.216253
         6         5         4        30     9      180.000000        0.191985         4    ;  uncertainty k = 0.207789
         6         5        10         9     9        0.000000       -0.231731         1    ;  uncertainty k = 0.228376
         6         5        10         9     9      180.000000        8.091484         2    ;  uncertainty k = 0.400632
         6         5        10         9     9        0.000000       -0.413972         3    ;  uncertainty k = 0.436407
         6         5        10         9     9      180.000000        1.096992         4    ;  uncertainty k = 0.272555
         6         5        10        11     9        0.000000       -0.019254         1    ;  uncertainty k = 0.284972
         6         5        10        11     9      180.000000        9.389159         2    ;  uncertainty k = 0.252605
         6         5        10        11     9        0.000000        1.347957         3    ;  uncertainty k = 0.330353
         6         5        10        11     9      180.000000        1.535962         4    ;  uncertainty k = 0.203079
         6         7         8         9     9        0.000000       -0.167889         1    ;  uncertainty k = 0.436011
         6         7         8         9     9      180.000000       10.010178         2    ;  uncertainty k = 0.551774
         6         7         8         9     9        0.000000       -0.262802         3    ;  uncertainty k = 0.377852
         6         7         8         9     9      180.000000        1.089782         4    ;  uncertainty k = 0.349855
         6         7         8        31     9        0.000000        0.064416         1    ;  uncertainty k = 0.350638
         6         7         8        31     9      180.000000        7.294205         2    ;  uncertainty k = 0.614301
         6         7         8        31     9        0.000000        1.251746         3    ;  uncertainty k = 0.493967
         6         7         8        31     9      180.000000        1.631599         4    ;  uncertainty k = 0.097544
         6         7        20        21     9        0.000000       -1.780113         1    ;  uncertainty k = 1.241611
         6         7        20        21     9      180.000000        0.795801         2    ;  uncertainty k = 0.663794
         6         7        20        21     9        0.000000        0.733795         3    ;  uncertainty k = 0.238478
         6         7        20        21     9      180.000000        0.067324         4    ;  uncertainty k = 0.146617
         6         7        20        22     9        0.000000       -1.780113         1    ;  uncertainty k = 1.241611
         6         7        20        22     9      180.000000        0.795801         2    ;  uncertainty k = 0.663794
         6         7        20        22     9        0.000000        0.733795         3    ;  uncertainty k = 0.238478
         6         7        20        22     9      180.000000        0.067324         4    ;  uncertainty k = 0.146617
         6         7        20        27     9        0.000000        4.270850         1    ;  uncertainty k = 2.096545
         6         7        20        27     9      180.000000        0.947655         2    ;  uncertainty k = 0.868086
         6         7        20        27     9        0.000000        0.631817         3    ;  uncertainty k = 0.438687
         6         7        20        27     9      180.000000        0.391555         4    ;  uncertainty k = 0.192403
         7         6         2        29     9        0.000000        1.215890         1    ;  uncertainty k = 1.004278
         7         6         2        29     9      180.000000        2.311435         2    ;  uncertainty k = 0.893285
         7         6         2        29     9        0.000000       -0.043463         3    ;  uncertainty k = 0.079287
         7         6         2        29     9      180.000000        0.206195         4    ;  uncertainty k = 0.151757
         7         6         5        10     9        0.000000       -0.315204         1    ;  uncertainty k = 0.394885
         7         6         5        10     9      180.000000        8.584945         2    ;  uncertainty k = 0.478707
         7         6         5        10     9        0.000000        0.018467         3    ;  uncertainty k = 0.313925
         7         6         5        10     9      180.000000        1.067696         4    ;  uncertainty k = 0.284498
         7         8         9        10     9        0.000000        0.055082         1    ;  uncertainty k = 0.378420
         7         8         9        10     9      180.000000       11.831286         2    ;  uncertainty k = 0.355008
         7         8         9        10     9        0.000000       -0.869590         3    ;  uncertainty k = 0.677136
         7         8         9        10     9      180.000000        0.928783         4    ;  uncertainty k = 0.356202
         7         8         9        32     9        0.000000       -0.060644         1    ;  uncertainty k = 0.580614
         7         8         9        32     9      180.000000        8.200439         2    ;  uncertainty k = 0.238418
         7         8         9        32     9        0.000000        1.197150         3    ;  uncertainty k = 0.211618
         7         8         9        32     9      180.000000        1.681615         4    ;  uncertainty k = 0.110934
         7        20        27        36     9        0.000000        5.788735         1    ;  uncertainty k = 0.978050
         7        20        27        36     9      180.000000       -5.835039         2    ;  uncertainty k = 0.832508
         7        20        27        36     9        0.000000        0.581903         3    ;  uncertainty k = 0.166540
         7        20        27        36     9      180.000000        0.303552         4    ;  uncertainty k = 0.192519
         7        20        27        37     9        0.000000        5.788735         1    ;  uncertainty k = 0.978050
         7        20        27        37     9      180.000000       -5.835039         2    ;  uncertainty k = 0.832508
         7        20        27        37     9        0.000000        0.581903         3    ;  uncertainty k = 0.166540
         7        20        27        37     9      180.000000        0.303552         4    ;  uncertainty k = 0.192519
         8         7        20        21     9        0.000000       -0.863996         1    ;  uncertainty k = 1.513097
         8         7        20        21     9      180.000000        1.081418         2    ;  uncertainty k = 0.693962
         8         7        20        21     9        0.000000        0.467374         3    ;  uncertainty k = 0.267426
         8         7        20        21     9      180.000000        0.002767         4    ;  uncertainty k = 0.109149
         8         7        20        22     9        0.000000       -0.863996         1    ;  uncertainty k = 1.513097
         8         7        20        22     9      180.000000        1.081418         2    ;  uncertainty k = 0.693962
         8         7        20        22     9        0.000000        0.467374         3    ;  uncertainty k = 0.267426
         8         7        20        22     9      180.000000        0.002767         4    ;  uncertainty k = 0.109149
         8         7        20        27     9        0.000000        4.070920         1    ;  uncertainty k = 1.607804
         8         7        20        27     9      180.000000        1.276090         2    ;  uncertainty k = 0.634052
         8         7        20        27     9        0.000000       -0.052340         3    ;  uncertainty k = 0.412857
         8         7        20        27     9      180.000000        0.178654         4    ;  uncertainty k = 0.105130
         8         9        10        11     9        0.000000       -0.002252         1    ;  uncertainty k = 0.252814
         8         9        10        11     9      180.000000       10.871389         2    ;  uncertainty k = 0.390437
         8         9        10        11     9        0.000000        1.394707         3    ;  uncertainty k = 0.255725
         8         9        10        11     9      180.000000        1.735949         4    ;  uncertainty k = 0.197090
         9         8         7        20     9        0.000000        0.256906         1    ;  uncertainty k = 0.312191
         9         8         7        20     9      180.000000        9.428537         2    ;  uncertainty k = 0.330494
         9         8         7        20     9        0.000000        1.423917         3    ;  uncertainty k = 0.399844
         9         8         7        20     9      180.000000        1.760658         4    ;  uncertainty k = 0.175199
         9        10        11        12     9        0.000000        5.372113         1    ;  uncertainty k = 0.329461
         9        10        11        12     9      180.000000        5.777631         2    ;  uncertainty k = 0.247692
         9        10        11        12     9        0.000000        0.383997         3    ;  uncertainty k = 0.140133
         9        10        11        12     9      180.000000        0.193581         4    ;  uncertainty k = 0.077784
        10         5         4        25     9        0.000000       -0.603186         1    ;  uncertainty k = 1.289320
        10         5         4        25     9      180.000000        2.216131         2    ;  uncertainty k = 1.098328
        10         5         4        25     9        0.000000        0.510269         3    ;  uncertainty k = 0.504902
        10         5         4        25     9      180.000000        0.503282         4    ;  uncertainty k = 0.175041
        10         5         4        30     9        0.000000        0.798341         1    ;  uncertainty k = 1.191180
        10         5         4        30     9      180.000000        2.132161         2    ;  uncertainty k = 0.939353
        10         5         4        30     9        0.000000        0.216474         3    ;  uncertainty k = 0.238438
        10         5         4        30     9      180.000000        0.268254         4    ;  uncertainty k = 0.169784
        10         9         8        31     9        0.000000       -0.119708         1    ;  uncertainty k = 0.345428
        10         9         8        31     9      180.000000        7.819915         2    ;  uncertainty k = 0.159172
        10         9         8        31     9        0.000000        1.043350         3    ;  uncertainty k = 0.188939
        10         9         8        31     9      180.000000        1.703901         4    ;  uncertainty k = 0.081856
        10        11        12        13     9        0.000000        4.026820         1    ;  uncertainty k = 0.236196
        10        11        12        13     9      180.000000        5.234282         2    ;  uncertainty k = 0.336563
        10        11        12        13     9        0.000000        0.424416         3    ;  uncertainty k = 0.133532
        10        11        12        13     9      180.000000        0.169549         4    ;  uncertainty k = 0.111997
        10        11        12        19     9        0.000000        4.040141         1    ;  uncertainty k = 0.204939
        10        11        12        19     9      180.000000        5.518497         2    ;  uncertainty k = 0.319628
        10        11        12        19     9        0.000000        0.399137         3    ;  uncertainty k = 0.136589
        10        11        12        19     9      180.000000        0.153329         4    ;  uncertainty k = 0.124338
        11        10         9        32     9        0.000000       -0.051564         1    ;  uncertainty k = 0.126777
        11        10         9        32     9      180.000000        9.086129         2    ;  uncertainty k = 0.436820
        11        10         9        32     9        0.000000        0.802321         3    ;  uncertainty k = 0.228976
        11        10         9        32     9      180.000000        1.144022         4    ;  uncertainty k = 0.163903
        11        12        13        14     9        0.000000        0.100184         1    ;  uncertainty k = 0.291842
        11        12        13        14     9      180.000000       10.816374         2    ;  uncertainty k = 0.240460
        11        12        13        14     9        0.000000        1.300563         3    ;  uncertainty k = 0.162012
        11        12        13        14     9      180.000000        1.601831         4    ;  uncertainty k = 0.116723
        11        12        13        33     9        0.000000       -0.098793         1    ;  uncertainty k = 0.096880
        11        12        13        33     9      180.000000        8.366214         2    ;  uncertainty k = 0.291500
        11        12        13        33     9        0.000000        0.819579         3    ;  uncertainty k = 0.210155
        11        12        13        33     9      180.000000        1.084623         4    ;  uncertainty k = 0.086344
        11        12        19        17     9        0.000000       -0.049087         1    ;  uncertainty k = 0.265910
        11        12        19        17     9      180.000000       11.315663         2    ;  uncertainty k = 0.446747
        11        12        19        17     9        0.000000        1.192561         3    ;  uncertainty k = 0.067310
        11        12        19        17     9      180.000000        1.631086         4    ;  uncertainty k = 0.135216
        11        12        19        35     9        0.000000        0.117590         1    ;  uncertainty k = 0.182467
        11        12        19        35     9      180.000000        8.506953         2    ;  uncertainty k = 0.321953
        11        12        19        35     9        0.000000        0.839576         3    ;  uncertainty k = 0.301195
        11        12        19        35     9      180.000000        1.142539         4    ;  uncertainty k = 0.151488
        12        13        14        15     9        0.000000        0.029267         1    ;  uncertainty k = 0.076351
        12        13        14        15     9      180.000000       12.681220         2    ;  uncertainty k = 0.591249
        12        13        14        15     9        0.000000        1.486062         3    ;  uncertainty k = 0.376399
        12        13        14        15     9      180.000000        1.475435         4    ;  uncertainty k = 0.279101
        12        13        14        16     9        0.000000       -0.041312         1    ;  uncertainty k = 0.166168
        12        13        14        16     9      180.000000        8.711743         2    ;  uncertainty k = 0.535595
        12        13        14        16     9        0.000000        0.058226         3    ;  uncertainty k = 0.483440
        12        13        14        16     9      180.000000        1.296510         4    ;  uncertainty k = 0.287570
        12        19        17        16     9        0.000000       -0.126135         1    ;  uncertainty k = 0.335758
        12        19        17        16     9      180.000000       11.543728         2    ;  uncertainty k = 0.211528
        12        19        17        16     9        0.000000       -0.409273         3    ;  uncertainty k = 0.525587
        12        19        17        16     9      180.000000        1.114605         4    ;  uncertainty k = 0.265123
        12        19        17        18     9        0.000000        0.008933         1    ;  uncertainty k = 0.224406
        12        19        17        18     9      180.000000       10.110912         2    ;  uncertainty k = 0.333390
        12        19        17        18     9        0.000000        1.306913         3    ;  uncertainty k = 0.264685
        12        19        17        18     9      180.000000        1.637563         4    ;  uncertainty k = 0.199965
        13        12        19        17     9        0.000000       -0.051322         1    ;  uncertainty k = 0.175220
        13        12        19        17     9      180.000000        9.609478         2    ;  uncertainty k = 0.403633
        13        12        19        17     9        0.000000        0.176055         3    ;  uncertainty k = 0.389800
        13        12        19        17     9      180.000000        1.259071         4    ;  uncertainty k = 0.358591
        13        12        19        35     9        0.000000        0.319861         1    ;  uncertainty k = 0.231991
        13        12        19        35     9      180.000000        6.318270         2    ;  uncertainty k = 0.750341
        13        12        19        35     9        0.000000        1.465273         3    ;  uncertainty k = 0.273057
        13        12        19        35     9      180.000000        1.603175         4    ;  uncertainty k = 0.165843
        13        14        16        17     9        0.000000       -0.019167         1    ;  uncertainty k = 0.236218
        13        14        16        17     9      180.000000        9.329732         2    ;  uncertainty k = 0.304985
        13        14        16        17     9        0.000000        0.099008         3    ;  uncertainty k = 0.304607
        13        14        16        17     9      180.000000        1.274852         4    ;  uncertainty k = 0.274241
        13        14        16        34     9        0.000000       -0.000593         1    ;  uncertainty k = 0.199602
        13        14        16        34     9      180.000000        5.887325         2    ;  uncertainty k = 0.750109
        13        14        16        34     9        0.000000        1.321078         3    ;  uncertainty k = 0.278410
        13        14        16        34     9      180.000000        1.516102         4    ;  uncertainty k = 0.088176
        14        13        12        19     9        0.000000        0.083575         1    ;  uncertainty k = 0.184356
        14        13        12        19     9      180.000000        9.069038         2    ;  uncertainty k = 0.673942
        14        13        12        19     9        0.000000        0.004877         3    ;  uncertainty k = 0.505260
        14        13        12        19     9      180.000000        1.219759         4    ;  uncertainty k = 0.386904
        14        16        17        18     9        0.000000        0.042737         1    ;  uncertainty k = 0.291483
        14        16        17        18     9      180.000000        9.815526         2    ;  uncertainty k = 0.311825
        14        16        17        18     9        0.000000        1.325513         3    ;  uncertainty k = 0.249458
        14        16        17        18     9      180.000000        1.659796         4    ;  uncertainty k = 0.165102
        14        16        17        19     9        0.000000       -0.093634         1    ;  uncertainty k = 0.287446
        14        16        17        19     9      180.000000       11.524169         2    ;  uncertainty k = 0.474663
        14        16        17        19     9        0.000000       -0.540684         3    ;  uncertainty k = 0.386751
        14        16        17        19     9      180.000000        1.065656         4    ;  uncertainty k = 0.270989
        15        14        13        33     9        0.000000       -0.266165         1    ;  uncertainty k = 0.229666
        15        14        13        33     9      180.000000        8.750384         2    ;  uncertainty k = 0.391886
        15        14        13        33     9        0.000000        0.839204         3    ;  uncertainty k = 0.231015
        15        14        13        33     9      180.000000        1.056841         4    ;  uncertainty k = 0.208951
        15        14        16        17     9        0.000000       -0.039623         1    ;  uncertainty k = 0.207167
        15        14        16        17     9      180.000000       13.467148         2    ;  uncertainty k = 0.458195
        15        14        16        17     9        0.000000        1.330325         3    ;  uncertainty k = 0.272641
        15        14        16        17     9      180.000000        1.408183         4    ;  uncertainty k = 0.220523
        15        14        16        34     9        0.000000       -0.317019         1    ;  uncertainty k = 0.306342
        15        14        16        34     9      180.000000        8.994255         2    ;  uncertainty k = 0.352455
        15        14        16        34     9        0.000000        0.799840         3    ;  uncertainty k = 0.209801
        15        14        16        34     9      180.000000        1.001169         4    ;  uncertainty k = 0.172439
        16        14        13        33     9        0.000000        0.117728         1    ;  uncertainty k = 0.152876
        16        14        13        33     9      180.000000        5.739162         2    ;  uncertainty k = 0.725581
        16        14        13        33     9        0.000000        1.354805         3    ;  uncertainty k = 0.319905
        16        14        13        33     9      180.000000        1.531360         4    ;  uncertainty k = 0.102992
        16        17        18        24     9        0.000000        0.000000         1    ;  uncertainty k = 0.000000
        16        17        18        24     9      180.000000        0.000000         2    ;  uncertainty k = 0.000000
        16        17        18        24     9        0.000000        0.000000         3    ;  uncertainty k = 0.000000
        16        17        18        24     9      180.000000        0.000000         4    ;  uncertainty k = 0.000000
        16        17        19        35     9        0.000000        0.266901         1    ;  uncertainty k = 0.392933
        16        17        19        35     9      180.000000        6.702181         2    ;  uncertainty k = 0.686766
        16        17        19        35     9        0.000000        1.492380         3    ;  uncertainty k = 0.274536
        16        17        19        35     9      180.000000        1.680830         4    ;  uncertainty k = 0.134103
        18        17        16        34     9        0.000000       -0.401280         1    ;  uncertainty k = 0.467937
        18        17        16        34     9      180.000000        7.099068         2    ;  uncertainty k = 0.224071
        18        17        16        34     9        0.000000        0.520905         3    ;  uncertainty k = 0.112594
        18        17        16        34     9      180.000000        0.955860         4    ;  uncertainty k = 0.230500
        18        17        19        35     9        0.000000       -0.303371         1    ;  uncertainty k = 0.311612
        18        17        19        35     9      180.000000        7.433399         2    ;  uncertainty k = 0.295932
        18        17        19        35     9        0.000000        0.543142         3    ;  uncertainty k = 0.139134
        18        17        19        35     9      180.000000        0.967541         4    ;  uncertainty k = 0.213771
        19        12        13        33     9        0.000000        0.238077         1    ;  uncertainty k = 0.231773
        19        12        13        33     9      180.000000        5.993858         2    ;  uncertainty k = 0.765201
        19        12        13        33     9        0.000000        1.476771         3    ;  uncertainty k = 0.368309
        19        12        13        33     9      180.000000        1.569369         4    ;  uncertainty k = 0.131184
        19        17        16        34     9        0.000000        0.157284         1    ;  uncertainty k = 0.536677
        19        17        16        34     9      180.000000        6.651379         2    ;  uncertainty k = 0.604357
        19        17        16        34     9        0.000000        1.457227         3    ;  uncertainty k = 0.366961
        19        17        16        34     9      180.000000        1.599688         4    ;  uncertainty k = 0.107457
        19        17        18        24     9        0.000000        0.000000         1    ;  uncertainty k = 0.000000
        19        17        18        24     9      180.000000        0.000000         2    ;  uncertainty k = 0.000000
        19        17        18        24     9        0.000000        0.000000         3    ;  uncertainty k = 0.000000
        19        17        18        24     9      180.000000        0.000000         4    ;  uncertainty k = 0.000000
        20         7         8        31     9        0.000000       -0.150594         1    ;  uncertainty k = 0.618870
        20         7         8        31     9      180.000000        6.857443         2    ;  uncertainty k = 0.285023
        20         7         8        31     9        0.000000        0.855465         3    ;  uncertainty k = 0.220367
        20         7         8        31     9      180.000000        1.112803         4    ;  uncertainty k = 0.127921
        21        20        27        36     9        0.000000       11.304793         1    ;  uncertainty k = 0.291611
        21        20        27        36     9      180.000000        2.430962         2    ;  uncertainty k = 0.667398
        21        20        27        36     9        0.000000        0.998196         3    ;  uncertainty k = 0.163982
        21        20        27        36     9      180.000000       -0.474268         4    ;  uncertainty k = 0.090593
        21        20        27        37     9        0.000000       11.304793         1    ;  uncertainty k = 0.291611
        21        20        27        37     9      180.000000        2.430962         2    ;  uncertainty k = 0.667398
        21        20        27        37     9        0.000000        0.998196         3    ;  uncertainty k = 0.163982
        21        20        27        37     9      180.000000       -0.474268         4    ;  uncertainty k = 0.090593
        22        20        27        36     9        0.000000       11.304793         1    ;  uncertainty k = 0.291611
        22        20        27        36     9      180.000000        2.430962         2    ;  uncertainty k = 0.667398
        22        20        27        36     9        0.000000        0.998196         3    ;  uncertainty k = 0.163982
        22        20        27        36     9      180.000000       -0.474268         4    ;  uncertainty k = 0.090593
        22        20        27        37     9        0.000000       11.304793         1    ;  uncertainty k = 0.291611
        22        20        27        37     9      180.000000        2.430962         2    ;  uncertainty k = 0.667398
        22        20        27        37     9        0.000000        0.998196         3    ;  uncertainty k = 0.163982
        22        20        27        37     9      180.000000       -0.474268         4    ;  uncertainty k = 0.090593
        23         3         2        29     9        0.000000        0.439550         1    ;  uncertainty k = 0.273025
        23         3         2        29     9      180.000000       -0.701221         2    ;  uncertainty k = 0.269274
        23         3         2        29     9        0.000000        0.749452         3    ;  uncertainty k = 0.176658
        23         3         2        29     9      180.000000        0.105894         4    ;  uncertainty k = 0.128490
        23         3         4        25     9        0.000000        0.768289         1    ;  uncertainty k = 1.334630
        23         3         4        25     9      180.000000       -0.243226         2    ;  uncertainty k = 1.146852
        23         3         4        25     9        0.000000        1.332573         3    ;  uncertainty k = 0.119745
        23         3         4        25     9      180.000000        0.180562         4    ;  uncertainty k = 0.253307
        23         3         4        30     9        0.000000        0.422662         1    ;  uncertainty k = 0.609539
        23         3         4        30     9      180.000000       -0.510777         2    ;  uncertainty k = 0.240590
        23         3         4        30     9        0.000000        0.642560         3    ;  uncertainty k = 0.181821
        23         3         4        30     9      180.000000        0.039771         4    ;  uncertainty k = 0.114331
        25         4         3        26     9        0.000000        0.768289         1    ;  uncertainty k = 1.334630
        25         4         3        26     9      180.000000       -0.243226         2    ;  uncertainty k = 1.146852
        25         4         3        26     9        0.000000        1.332573         3    ;  uncertainty k = 0.119745
        25         4         3        26     9      180.000000        0.180562         4    ;  uncertainty k = 0.253307
        26         3         2        29     9        0.000000        0.439550         1    ;  uncertainty k = 0.273025
        26         3         2        29     9      180.000000       -0.701221         2    ;  uncertainty k = 0.269274
        26         3         2        29     9        0.000000        0.749452         3    ;  uncertainty k = 0.176658
        26         3         2        29     9      180.000000        0.105894         4    ;  uncertainty k = 0.128490
        26         3         4        30     9        0.000000        0.422662         1    ;  uncertainty k = 0.609539
        26         3         4        30     9      180.000000       -0.510777         2    ;  uncertainty k = 0.240590
        26         3         4        30     9        0.000000        0.642560         3    ;  uncertainty k = 0.181821
        26         3         4        30     9      180.000000        0.039771         4    ;  uncertainty k = 0.114331
        28         1         2        29     9        0.000000       11.807112         1    ;  uncertainty k = 0.732877
        28         1         2        29     9      180.000000       -0.739578         2    ;  uncertainty k = 0.315175
        28         1         2        29     9        0.000000        0.792923         3    ;  uncertainty k = 0.195921
        28         1         2        29     9      180.000000        0.174010         4    ;  uncertainty k = 0.127722
        31         8         9        32     9        0.000000       -0.211852         1    ;  uncertainty k = 0.527910
        31         8         9        32     9      180.000000        7.499533         2    ;  uncertainty k = 0.443188
        31         8         9        32     9        0.000000       -0.295926         3    ;  uncertainty k = 0.270638
        31         8         9        32     9      180.000000        0.279349         4    ;  uncertainty k = 0.106267

[ dihedrals ] ; impropers
;       ai        aj        ak        al funct           phase               k        pn
         5         4         6        10     4      180.000000        3.404895         2    ;  uncertainty k = 0.470252
         5         6        10         4     4      180.000000        3.404895         2    ;  uncertainty k = 0.470252
         5        10         4         6     4      180.000000        3.404895         2    ;  uncertainty k = 0.470252
         6         2         5         7     4      180.000000        6.841358         2    ;  uncertainty k = 0.134172
         6         5         7         2     4      180.000000        6.841358         2    ;  uncertainty k = 0.134172
         6         7         2         5     4      180.000000        6.841358         2    ;  uncertainty k = 0.134172
         7         6         8        20     4      180.000000        4.417437         2    ;  uncertainty k = 0.318605
         7         8        20         6     4      180.000000        4.417437         2    ;  uncertainty k = 0.318605
         7        20         6         8     4      180.000000        4.417437         2    ;  uncertainty k = 0.318605
         8         7         9        31     4      180.000000        5.253366         2    ;  uncertainty k = 0.124298
         8         9        31         7     4      180.000000        5.253366         2    ;  uncertainty k = 0.124298
         8        31         7         9     4      180.000000        5.253366         2    ;  uncertainty k = 0.124298
         9         8        10        32     4      180.000000        1.957296         2    ;  uncertainty k = 0.074707
         9        10        32         8     4      180.000000        1.957296         2    ;  uncertainty k = 0.074707
         9        32         8        10     4      180.000000        1.957296         2    ;  uncertainty k = 0.074707
        10         5         9        11     4      180.000000       18.683479         2    ;  uncertainty k = 0.092603
        10         9        11         5     4      180.000000       18.683479         2    ;  uncertainty k = 0.092603
        10        11         5         9     4      180.000000       18.683479         2    ;  uncertainty k = 0.092603
        12        11        13        19     4      180.000000       19.072638         2    ;  uncertainty k = 0.034727
        12        13        19        11     4      180.000000       19.072638         2    ;  uncertainty k = 0.034727
        12        19        11        13     4      180.000000       19.072638         2    ;  uncertainty k = 0.034727
        13        12        14        33     4      180.000000        1.848818         2    ;  uncertainty k = 0.255047
        13        14        33        12     4      180.000000        1.848818         2    ;  uncertainty k = 0.255047
        13        33        12        14     4      180.000000        1.848818         2    ;  uncertainty k = 0.255047
        14        13        15        16     4      180.000000       17.880537         2    ;  uncertainty k = 0.047509
        14        15        16        13     4      180.000000       17.880537         2    ;  uncertainty k = 0.047509
        14        16        13        15     4      180.000000       17.880537         2    ;  uncertainty k = 0.047509
        16        14        17        34     4      180.000000        2.461655         2    ;  uncertainty k = 0.340230
        16        17        34        14     4      180.000000        2.461655         2    ;  uncertainty k = 0.340230
        16        34        14        17     4      180.000000        2.461655         2    ;  uncertainty k = 0.340230
        17        16        18        19     4      180.000000       11.727372         2    ;  uncertainty k = 0.187314
        17        18        19        16     4      180.000000       11.727372         2    ;  uncertainty k = 0.187314
        17        19        16        18     4      180.000000       11.727372         2    ;  uncertainty k = 0.187314
        19        12        17        35     4      180.000000        2.852757         2    ;  uncertainty k = 0.269075
        19        17        35        12     4      180.000000        2.852757         2    ;  uncertainty k = 0.269075
        19        35        12        17     4      180.000000        2.852757         2    ;  uncertainty k = 0.269075
        27        20        36        37     4      180.000000        0.158670         2    ;  uncertainty k = 0.354797
        27        36        37        20     4      180.000000        0.158670         2    ;  uncertainty k = 0.354797
        27        37        20        36     4      180.000000        0.158670         2    ;  uncertainty k = 0.354797

[ pairs ]
;       ai        aj funct
         1         4     1
         1         5     1
         1         7     1
         1        23     1
         1        26     1
         2         8     1
         2        10     1
         2        20     1
         2        25     1
         2        30     1
         3         7     1
         3        10     1
         3        28     1
         4         7     1
         4         9     1
         4        11     1
         4        29     1
         5         8     1
         5        12     1
         5        20     1
         5        23     1
         5        26     1
         5        29     1
         5        32     1
         6         9     1
         6        11     1
         6        21     1
         6        22     1
         6        23     1
         6        25     1
         6        26     1
         6        27     1
         6        28     1
         6        30     1
         6        31     1
         7        10     1
         7        29     1
         7        32     1
         7        36     1
         7        37     1
         8        11     1
         8        21     1
         8        22     1
         8        27     1
         9        12     1
         9        20     1
        10        13     1
        10        19     1
        10        25     1
        10        30     1
        10        31     1
        11        14     1
        11        17     1
        11        32     1
        11        33     1
        11        35     1
        12        15     1
        12        16     1
        12        18     1
        13        17     1
        13        34     1
        13        35     1
        14        18     1
        14        19     1
        15        17     1
        15        33     1
        15        34     1
        16        24     1
        16        33     1
        16        35     1
        18        34     1
        18        35     1
        19        24     1
        19        33     1
        19        34     1
        20        31     1
        21        36     1
        21        37     1
        22        36     1
        22        37     1
        23        25     1
        23        29     1
        23        30     1
        25        26     1
        26        29     1
        26        30     1
        28        29     1
        31        32     1
