; ITP file created by ByteFF-joint-25, 2026-02-17 09:19:40.053162

[ atomtypes ]
;name           bonded.type        at.num        mass        charge   ptype           sigma         epsilon
 c0bf                                   6      0.0000       0.00000       A     3.39755e-01     4.50120e-01    ;  uncertainty sigma = 0.000025, epsilon = 0.001730
 c1bf                                   6      0.0000       0.00000       A     3.31547e-01     4.13432e-01    ;  uncertainty sigma = 0.000012, epsilon = 0.000835
 c2bf                                   6      0.0000       0.00000       A     3.31474e-01     4.13760e-01    ;  uncertainty sigma = 0.000029, epsilon = 0.001803
 c3bf                                   6      0.0000       0.00000       A     3.31542e-01     4.12989e-01    ;  uncertainty sigma = 0.000018, epsilon = 0.001200
 c4bf                                   6      0.0000       0.00000       A     3.31475e-01     4.13153e-01    ;  uncertainty sigma = 0.000028, epsilon = 0.000458
 c5bf                                   6      0.0000       0.00000       A     3.31524e-01     4.13342e-01    ;  uncertainty sigma = 0.000009, epsilon = 0.000531
 c6bf                                   6      0.0000       0.00000       A     3.31520e-01     4.13181e-01    ;  uncertainty sigma = 0.000012, epsilon = 0.001105
 o7bf                                   8      0.0000       0.00000       A     3.15614e-01     3.03601e-01    ;  uncertainty sigma = 0.000016, epsilon = 0.001335
 c8bf                                   6      0.0000       0.00000       A     3.31514e-01     4.13615e-01    ;  uncertainty sigma = 0.000010, epsilon = 0.000786
 c9bf                                   6      0.0000       0.00000       A     3.31516e-01     4.13683e-01    ;  uncertainty sigma = 0.000004, epsilon = 0.000819
 c10bf                                  6      0.0000       0.00000       A     3.31508e-01     4.13333e-01    ;  uncertainty sigma = 0.000007, epsilon = 0.000485
 c11bf                                  6      0.0000       0.00000       A     3.31534e-01     4.13575e-01    ;  uncertainty sigma = 0.000007, epsilon = 0.000519
 c12bf                                  6      0.0000       0.00000       A     3.31517e-01     4.13124e-01    ;  uncertainty sigma = 0.000007, epsilon = 0.000564
 cl13bf                                17      0.0000       0.00000       A     3.46589e-01     1.10398e+00    ;  uncertainty sigma = 0.000015, epsilon = 0.001735
 c14bf                                  6      0.0000       0.00000       A     3.31523e-01     4.13449e-01    ;  uncertainty sigma = 0.000004, epsilon = 0.000663
 s15bf                                 16      0.0000       0.00000       A     4.05864e-01     2.57945e-01    ;  uncertainty sigma = 0.000038, epsilon = 0.003720
 o16bf                                  8      0.0000       0.00000       A     3.04764e-01     6.10830e-01    ;  uncertainty sigma = 0.000053, epsilon = 0.001928
 o17bf                                  8      0.0000       0.00000       A     3.04764e-01     6.10830e-01    ;  uncertainty sigma = 0.000053, epsilon = 0.001928
 c18bf                                  6      0.0000       0.00000       A     3.39873e-01     4.51128e-01    ;  uncertainty sigma = 0.000050, epsilon = 0.003751
 f19bf                                  9      0.0000       0.00000       A     3.03560e-01     3.47317e-01    ;  uncertainty sigma = 0.000038, epsilon = 0.002442
 f20bf                                  9      0.0000       0.00000       A     3.03560e-01     3.47317e-01    ;  uncertainty sigma = 0.000038, epsilon = 0.002442
 cl21bf                                17      0.0000       0.00000       A     3.46593e-01     1.10401e+00    ;  uncertainty sigma = 0.000022, epsilon = 0.004105
 o22bf                                  8      0.0000       0.00000       A     3.24296e-01     3.88484e-01    ;  uncertainty sigma = 0.000012, epsilon = 0.001656
 f23bf                                  9      0.0000       0.00000       A     3.03419e-01     3.47947e-01    ;  uncertainty sigma = 0.000007, epsilon = 0.000666
 h24bf                                  1      0.0000       0.00000       A     2.42235e-01     8.68435e-02    ;  uncertainty sigma = 0.000040, epsilon = 0.000786
 h25bf                                  1      0.0000       0.00000       A     2.42235e-01     8.68434e-02    ;  uncertainty sigma = 0.000040, epsilon = 0.000786
 h26bf                                  1      0.0000       0.00000       A     2.62576e-01     6.73275e-02    ;  uncertainty sigma = 0.000017, epsilon = 0.000654
 h27bf                                  1      0.0000       0.00000       A     2.62548e-01     6.71018e-02    ;  uncertainty sigma = 0.000005, epsilon = 0.000443
 h28bf                                  1      0.0000       0.00000       A     2.62552e-01     6.72490e-02    ;  uncertainty sigma = 0.000007, epsilon = 0.000350
 h29bf                                  1      0.0000       0.00000       A     2.62576e-01     6.72706e-02    ;  uncertainty sigma = 0.000009, epsilon = 0.000517
 h30bf                                  1      0.0000       0.00000       A     2.62563e-01     6.72159e-02    ;  uncertainty sigma = 0.000003, epsilon = 0.000466
 h31bf                                  1      0.0000       0.00000       A     2.06482e-01     8.67290e-02    ;  uncertainty sigma = 0.000273, epsilon = 0.002988
 h32bf                                  1      0.0000       0.00000       A     5.37902e-02     1.92605e-02    ;  uncertainty sigma = 0.000133, epsilon = 0.000842

[ moleculetype ]
;name             nrexcl
 MOL                   3

[ atoms ]
;       nr            type      resi   res      atom      cgnr      charge          mass ; qtot
         1            c0bf         1   UNL        c0         1     0.16253       12.0110 ; qtot    0.163
         2            c1bf         1   UNL        c1         2    -0.00440       12.0110 ; qtot    0.158
         3            c2bf         1   UNL        c2         3     0.03721       12.0110 ; qtot    0.195
         4            c3bf         1   UNL        c3         4    -0.22780       12.0110 ; qtot   -0.032
         5            c4bf         1   UNL        c4         5    -0.01215       12.0110 ; qtot   -0.045
         6            c5bf         1   UNL        c5         6    -0.15893       12.0110 ; qtot   -0.204
         7            c6bf         1   UNL        c6         7     0.15550       12.0110 ; qtot   -0.048
         8            o7bf         1   UNL        o7         8    -0.23700       15.9990 ; qtot   -0.285
         9            c8bf         1   UNL        c8         9     0.15862       12.0110 ; qtot   -0.126
        10            c9bf         1   UNL        c9        10    -0.20186       12.0110 ; qtot   -0.328
        11           c10bf         1   UNL       c10        11     0.16392       12.0110 ; qtot   -0.164
        12           c11bf         1   UNL       c11        12    -0.17850       12.0110 ; qtot   -0.343
        13           c12bf         1   UNL       c12        13     0.07882       12.0110 ; qtot   -0.264
        14          cl13bf         1   UNL      cl13        14    -0.09983       35.4530 ; qtot   -0.364
        15           c14bf         1   UNL       c14        15    -0.16832       12.0110 ; qtot   -0.532
        16           s15bf         1   UNL       s15        16     0.94918       32.0670 ; qtot    0.417
        17           o16bf         1   UNL       o16        17    -0.54082       15.9990 ; qtot   -0.124
        18           o17bf         1   UNL       o17        18    -0.54082       15.9990 ; qtot   -0.665
        19           c18bf         1   UNL       c18        19     0.39960       12.0110 ; qtot   -0.265
        20           f19bf         1   UNL       f19        20    -0.20938       18.9980 ; qtot   -0.474
        21           f20bf         1   UNL       f20        21    -0.20938       18.9980 ; qtot   -0.684
        22          cl21bf         1   UNL      cl21        22    -0.07810       35.4530 ; qtot   -0.762
        23           o22bf         1   UNL       o22        23    -0.59068       15.9990 ; qtot   -1.353
        24           f23bf         1   UNL       f23        24    -0.13588       18.9980 ; qtot   -1.488
        25           h24bf         1   UNL       h24        25     0.06734        1.0080 ; qtot   -1.421
        26           h25bf         1   UNL       h25        26     0.06734        1.0080 ; qtot   -1.354
        27           h26bf         1   UNL       h26        27     0.17064        1.0080 ; qtot   -1.183
        28           h27bf         1   UNL       h27        28     0.16075        1.0080 ; qtot   -1.022
        29           h28bf         1   UNL       h28        29     0.17158        1.0080 ; qtot   -0.851
        30           h29bf         1   UNL       h29        30     0.17092        1.0080 ; qtot   -0.680
        31           h30bf         1   UNL       h30        31     0.16950        1.0080 ; qtot   -0.510
        32           h31bf         1   UNL       h31        32     0.09845        1.0080 ; qtot   -0.412
        33           h32bf         1   UNL       h32        33     0.41195        1.0080 ; qtot    0.000

[ bonds ]
;       ai        aj funct               r               k
         1         3     1        0.151373   218744.392480    ;  uncertainty r = 0.000102, k = 10.343145
         1        23     1        0.142664   268981.402637    ;  uncertainty r = 0.000166, k = 7.173366
         1        25     1        0.109365   309513.800488    ;  uncertainty r = 0.000052, k = 2.717037
         1        26     1        0.109365   309513.800488    ;  uncertainty r = 0.000052, k = 2.717080
         2         3     1        0.139329   325991.135107    ;  uncertainty r = 0.000139, k = 10.957964
         2         7     1        0.139675   340692.082861    ;  uncertainty r = 0.000105, k = 3.416695
         2        22     1        0.173838   186989.111890    ;  uncertainty r = 0.000060, k = 7.093487
         3         4     1        0.140134   321875.038281    ;  uncertainty r = 0.000148, k = 17.215863
         4         5     1        0.139128   343638.656689    ;  uncertainty r = 0.000105, k = 1.868940
         4        16     1        0.179052   132134.226245    ;  uncertainty r = 0.000120, k = 12.649513
         5         6     1        0.138566   370256.215625    ;  uncertainty r = 0.000063, k = 3.442462
         5        27     1        0.108402   328186.892383    ;  uncertainty r = 0.000034, k = 0.950189
         6         7     1        0.139206   358671.969922    ;  uncertainty r = 0.000121, k = 6.529342
         6        28     1        0.108741   335392.136719    ;  uncertainty r = 0.000037, k = 1.353750
         7         8     1        0.137862   316703.926855    ;  uncertainty r = 0.000078, k = 2.102517
         8         9     1        0.137801   317888.286914    ;  uncertainty r = 0.000058, k = 3.696205
         9        10     1        0.139463   361227.800439    ;  uncertainty r = 0.000025, k = 2.246729
         9        15     1        0.139431   357178.764063    ;  uncertainty r = 0.000019, k = 2.036430
        10        11     1        0.138903   362933.270752    ;  uncertainty r = 0.000022, k = 2.327830
        10        29     1        0.108796   339585.253467    ;  uncertainty r = 0.000020, k = 1.174450
        11        12     1        0.139015   361949.300391    ;  uncertainty r = 0.000049, k = 3.307020
        11        24     1        0.135256   340052.735791    ;  uncertainty r = 0.000049, k = 2.087966
        12        13     1        0.139473   365943.585205    ;  uncertainty r = 0.000030, k = 2.878139
        12        30     1        0.108675   338128.974268    ;  uncertainty r = 0.000014, k = 0.350222
        13        14     1        0.175206   198763.315381    ;  uncertainty r = 0.000067, k = 1.577622
        13        15     1        0.139323   360643.153857    ;  uncertainty r = 0.000043, k = 3.846580
        15        31     1        0.108726   338068.706689    ;  uncertainty r = 0.000011, k = 1.356540
        16        17     1        0.147027   488192.000586    ;  uncertainty r = 0.000129, k = 10.535435
        16        18     1        0.147027   488192.000586    ;  uncertainty r = 0.000129, k = 10.535413
        16        19     1        0.186539   142777.646533    ;  uncertainty r = 0.000157, k = 25.826992
        19        20     1        0.134900   311469.508936    ;  uncertainty r = 0.000150, k = 4.024953
        19        21     1        0.134900   311469.508936    ;  uncertainty r = 0.000150, k = 4.024953
        19        32     1        0.109689   322360.243359    ;  uncertainty r = 0.000138, k = 6.933357
        23        33     1        0.097061   465952.549219    ;  uncertainty r = 0.000029, k = 4.601452

[ angles ]
;       ai        aj        ak funct           theta             cth
         1         3         2     1      118.842300      382.197764    ;  uncertainty theta = 0.005130, k = 0.325970
         1         3         4     1      118.601646      374.250328    ;  uncertainty theta = 0.003283, k = 0.112055
         1        23        33     1      107.184982      459.828150    ;  uncertainty theta = 0.003216, k = 0.073465
         2         3         4     1      123.067490      434.381634    ;  uncertainty theta = 0.006396, k = 0.184379
         2         7         6     1      121.221817      353.777674    ;  uncertainty theta = 0.003775, k = 0.169297
         2         7         8     1      118.096092      399.158746    ;  uncertainty theta = 0.004350, k = 0.132322
         3         1        23     1      111.697060      664.021217    ;  uncertainty theta = 0.002163, k = 0.174528
         3         1        25     1      106.926773      407.310191    ;  uncertainty theta = 0.003278, k = 0.061385
         3         1        26     1      106.926773      407.310159    ;  uncertainty theta = 0.003278, k = 0.061384
         3         2         7     1      125.740967      356.183206    ;  uncertainty theta = 0.005698, k = 0.121013
         3         2        22     1      116.615456      402.104100    ;  uncertainty theta = 0.007053, k = 0.216229
         3         4         5     1      127.688843      428.133246    ;  uncertainty theta = 0.008307, k = 0.087016
         3         4        16     1      114.035538      320.339096    ;  uncertainty theta = 0.009165, k = 0.283086
         4         5         6     1      120.621750      487.032322    ;  uncertainty theta = 0.003526, k = 0.096549
         4         5        27     1      118.316360      258.677176    ;  uncertainty theta = 0.002258, k = 0.125193
         4        16        17     1      115.172302      611.716046    ;  uncertainty theta = 0.006251, k = 0.060413
         4        16        18     1      115.172302      611.715918    ;  uncertainty theta = 0.006251, k = 0.060413
         4        16        19     1      104.070084      503.266390    ;  uncertainty theta = 0.007293, k = 0.275709
         5         4        16     1      113.584862      361.239267    ;  uncertainty theta = 0.011140, k = 0.184606
         5         6         7     1      119.282822      502.296746    ;  uncertainty theta = 0.003568, k = 0.120404
         5         6        28     1      120.542320      274.709804    ;  uncertainty theta = 0.001510, k = 0.032193
         6         5        27     1      120.550491      282.267320    ;  uncertainty theta = 0.002044, k = 0.061882
         6         7         8     1      120.689232      433.316896    ;  uncertainty theta = 0.002944, k = 0.091359
         7         2        22     1      117.296921      436.617727    ;  uncertainty theta = 0.003919, k = 0.079179
         7         6        28     1      119.607018      275.551731    ;  uncertainty theta = 0.002650, k = 0.052931
         7         8         9     1      112.658859      459.366216    ;  uncertainty theta = 0.002175, k = 0.044450
         8         9        10     1      118.944496      416.551177    ;  uncertainty theta = 0.004821, k = 0.055519
         8         9        15     1      118.998550      412.959095    ;  uncertainty theta = 0.004259, k = 0.048912
         9        10        11     1      116.677490      503.063626    ;  uncertainty theta = 0.002750, k = 0.154769
         9        10        29     1      121.847488      273.105084    ;  uncertainty theta = 0.002364, k = 0.091267
         9        15        13     1      117.160019      514.098466    ;  uncertainty theta = 0.001155, k = 0.105738
         9        15        31     1      121.209213      274.919528    ;  uncertainty theta = 0.002009, k = 0.075596
        10         9        15     1      122.630882      386.424028    ;  uncertainty theta = 0.004187, k = 0.153685
        10        11        12     1      123.806297      364.500419    ;  uncertainty theta = 0.004306, k = 0.146256
        10        11        24     1      118.451439      494.877003    ;  uncertainty theta = 0.001652, k = 0.037194
        11        10        29     1      121.721214      284.045756    ;  uncertainty theta = 0.002101, k = 0.037191
        11        12        13     1      115.803238      478.705054    ;  uncertainty theta = 0.001376, k = 0.113134
        11        12        30     1      121.638588      280.640095    ;  uncertainty theta = 0.002111, k = 0.042509
        12        11        24     1      118.552078      502.703680    ;  uncertainty theta = 0.002488, k = 0.039641
        12        13        14     1      120.101097      446.309443    ;  uncertainty theta = 0.001191, k = 0.064103
        12        13        15     1      122.655418      367.353457    ;  uncertainty theta = 0.001241, k = 0.091485
        13        12        30     1      122.502640      281.974441    ;  uncertainty theta = 0.001614, k = 0.034256
        13        15        31     1      121.894081      287.924141    ;  uncertainty theta = 0.001267, k = 0.028231
        14        13        15     1      120.061806      441.218429    ;  uncertainty theta = 0.001566, k = 0.104726
        16        19        20     1      105.906296      510.620790    ;  uncertainty theta = 0.002742, k = 0.180912
        16        19        21     1      105.906296      510.620790    ;  uncertainty theta = 0.002742, k = 0.180912
        16        19        32     1      112.007034      381.602238    ;  uncertainty theta = 0.009999, k = 0.249698
        17        16        18     1      125.053368      863.248465    ;  uncertainty theta = 0.002205, k = 0.069139
        17        16        19     1      107.838051      524.500050    ;  uncertainty theta = 0.004700, k = 0.222275
        18        16        19     1      107.838051      524.500050    ;  uncertainty theta = 0.004700, k = 0.222275
        20        19        21     1      109.477539      835.740018    ;  uncertainty theta = 0.003850, k = 0.102696
        20        19        32     1      112.516335      472.158744    ;  uncertainty theta = 0.004961, k = 0.117406
        21        19        32     1      112.516335      472.158744    ;  uncertainty theta = 0.004961, k = 0.117406
        23         1        25     1      108.143433      493.261430    ;  uncertainty theta = 0.004047, k = 0.087977
        23         1        26     1      108.143433      493.261366    ;  uncertainty theta = 0.004047, k = 0.087978
        25         1        26     1      106.915695      317.599220    ;  uncertainty theta = 0.005862, k = 0.080482

[ dihedrals ] ; propers for gromacs 4.5 or higher, use funct 9
;       ai        aj        ak        al funct           phase               k        pn
         1         3         2         7     9        0.000000        0.128477         1    ;  uncertainty k = 0.320592
         1         3         2         7     9      180.000000        7.543877         2    ;  uncertainty k = 0.410019
         1         3         2         7     9        0.000000        1.340585         3    ;  uncertainty k = 0.245729
         1         3         2         7     9      180.000000        1.642998         4    ;  uncertainty k = 0.261101
         1         3         2        22     9        0.000000       -0.150631         1    ;  uncertainty k = 0.281177
         1         3         2        22     9      180.000000        9.562559         2    ;  uncertainty k = 0.253799
         1         3         2        22     9        0.000000        1.138315         3    ;  uncertainty k = 0.378971
         1         3         2        22     9      180.000000        1.405452         4    ;  uncertainty k = 0.412715
         1         3         4         5     9        0.000000       -0.154495         1    ;  uncertainty k = 0.451234
         1         3         4         5     9      180.000000        7.235428         2    ;  uncertainty k = 0.396036
         1         3         4         5     9        0.000000        1.055889         3    ;  uncertainty k = 0.338227
         1         3         4         5     9      180.000000        1.600650         4    ;  uncertainty k = 0.177343
         1         3         4        16     9        0.000000       -0.056460         1    ;  uncertainty k = 0.529699
         1         3         4        16     9      180.000000        8.363055         2    ;  uncertainty k = 0.242980
         1         3         4        16     9        0.000000        1.020451         3    ;  uncertainty k = 0.412722
         1         3         4        16     9      180.000000        1.312710         4    ;  uncertainty k = 0.177597
         2         3         1        23     9        0.000000        0.709643         1    ;  uncertainty k = 1.498529
         2         3         1        23     9      180.000000        3.094367         2    ;  uncertainty k = 0.895374
         2         3         1        23     9        0.000000        0.872456         3    ;  uncertainty k = 0.484645
         2         3         1        23     9      180.000000        0.663766         4    ;  uncertainty k = 0.040982
         2         3         1        25     9        0.000000        0.460535         1    ;  uncertainty k = 0.452495
         2         3         1        25     9      180.000000        3.145819         2    ;  uncertainty k = 0.530854
         2         3         1        25     9        0.000000        0.311273         3    ;  uncertainty k = 0.085510
         2         3         1        25     9      180.000000        0.270643         4    ;  uncertainty k = 0.100668
         2         3         1        26     9        0.000000        0.460536         1    ;  uncertainty k = 0.452494
         2         3         1        26     9      180.000000        3.145820         2    ;  uncertainty k = 0.530854
         2         3         1        26     9        0.000000        0.311273         3    ;  uncertainty k = 0.085510
         2         3         1        26     9      180.000000        0.270643         4    ;  uncertainty k = 0.100668
         2         3         4         5     9        0.000000        0.253466         1    ;  uncertainty k = 0.489580
         2         3         4         5     9      180.000000        7.436434         2    ;  uncertainty k = 0.870905
         2         3         4         5     9        0.000000        0.643175         3    ;  uncertainty k = 0.498052
         2         3         4         5     9      180.000000        1.195706         4    ;  uncertainty k = 0.304695
         2         3         4        16     9        0.000000        0.560196         1    ;  uncertainty k = 1.497056
         2         3         4        16     9      180.000000        7.715466         2    ;  uncertainty k = 0.324810
         2         3         4        16     9        0.000000        1.771960         3    ;  uncertainty k = 0.386293
         2         3         4        16     9      180.000000        1.712792         4    ;  uncertainty k = 0.131309
         2         7         6         5     9        0.000000        0.219166         1    ;  uncertainty k = 0.153435
         2         7         6         5     9      180.000000        8.559036         2    ;  uncertainty k = 0.432696
         2         7         6         5     9        0.000000        0.286999         3    ;  uncertainty k = 0.361501
         2         7         6         5     9      180.000000        1.343485         4    ;  uncertainty k = 0.307280
         2         7         6        28     9        0.000000        0.169999         1    ;  uncertainty k = 0.429626
         2         7         6        28     9      180.000000        6.073138         2    ;  uncertainty k = 0.611727
         2         7         6        28     9        0.000000        1.407730         3    ;  uncertainty k = 0.479193
         2         7         6        28     9      180.000000        1.681518         4    ;  uncertainty k = 0.189157
         2         7         8         9     9        0.000000        5.744085         1    ;  uncertainty k = 0.774797
         2         7         8         9     9      180.000000        4.793647         2    ;  uncertainty k = 0.346829
         2         7         8         9     9        0.000000        0.928240         3    ;  uncertainty k = 0.284369
         2         7         8         9     9      180.000000        0.093199         4    ;  uncertainty k = 0.091449
         3         1        23        33     9        0.000000       13.524335         1    ;  uncertainty k = 0.369445
         3         1        23        33     9      180.000000       -5.832904         2    ;  uncertainty k = 0.430384
         3         1        23        33     9        0.000000        0.982979         3    ;  uncertainty k = 0.207070
         3         1        23        33     9      180.000000        0.036980         4    ;  uncertainty k = 0.201366
         3         2         7         6     9        0.000000       -0.369313         1    ;  uncertainty k = 0.662277
         3         2         7         6     9      180.000000        4.950549         2    ;  uncertainty k = 1.358592
         3         2         7         6     9        0.000000        0.641586         3    ;  uncertainty k = 0.497600
         3         2         7         6     9      180.000000        1.217896         4    ;  uncertainty k = 0.375547
         3         2         7         8     9        0.000000        0.309465         1    ;  uncertainty k = 0.290323
         3         2         7         8     9      180.000000        7.743288         2    ;  uncertainty k = 0.309352
         3         2         7         8     9        0.000000        1.492372         3    ;  uncertainty k = 0.285832
         3         2         7         8     9      180.000000        1.783683         4    ;  uncertainty k = 0.148701
         3         4         5         6     9        0.000000        0.013563         1    ;  uncertainty k = 0.346120
         3         4         5         6     9      180.000000        9.470929         2    ;  uncertainty k = 0.490756
         3         4         5         6     9        0.000000       -0.069948         3    ;  uncertainty k = 0.501512
         3         4         5         6     9      180.000000        1.090033         4    ;  uncertainty k = 0.391577
         3         4         5        27     9        0.000000       -0.008199         1    ;  uncertainty k = 0.156624
         3         4         5        27     9      180.000000        6.271830         2    ;  uncertainty k = 0.596499
         3         4         5        27     9        0.000000        1.159793         3    ;  uncertainty k = 0.387409
         3         4         5        27     9      180.000000        1.550203         4    ;  uncertainty k = 0.115317
         3         4        16        17     9        0.000000       -1.699013         1    ;  uncertainty k = 1.570093
         3         4        16        17     9      180.000000        0.777314         2    ;  uncertainty k = 0.463660
         3         4        16        17     9        0.000000        0.644882         3    ;  uncertainty k = 0.217165
         3         4        16        17     9      180.000000        0.000528         4    ;  uncertainty k = 0.129982
         3         4        16        18     9        0.000000       -1.699011         1    ;  uncertainty k = 1.570094
         3         4        16        18     9      180.000000        0.777314         2    ;  uncertainty k = 0.463661
         3         4        16        18     9        0.000000        0.644881         3    ;  uncertainty k = 0.217164
         3         4        16        18     9      180.000000        0.000528         4    ;  uncertainty k = 0.129981
         3         4        16        19     9        0.000000        1.168980         1    ;  uncertainty k = 2.241724
         3         4        16        19     9      180.000000       -0.526459         2    ;  uncertainty k = 0.818102
         3         4        16        19     9        0.000000        0.153467         3    ;  uncertainty k = 0.600015
         3         4        16        19     9      180.000000        0.182880         4    ;  uncertainty k = 0.188020
         4         3         1        23     9        0.000000       -0.355652         1    ;  uncertainty k = 1.151065
         4         3         1        23     9      180.000000        3.740071         2    ;  uncertainty k = 0.822501
         4         3         1        23     9        0.000000       -0.148610         3    ;  uncertainty k = 0.648661
         4         3         1        23     9      180.000000        0.610234         4    ;  uncertainty k = 0.140492
         4         3         1        25     9        0.000000        0.958465         1    ;  uncertainty k = 0.169396
         4         3         1        25     9      180.000000        2.626344         2    ;  uncertainty k = 0.545796
         4         3         1        25     9        0.000000       -0.143574         3    ;  uncertainty k = 0.177261
         4         3         1        25     9      180.000000        0.190199         4    ;  uncertainty k = 0.151814
         4         3         1        26     9        0.000000        0.958464         1    ;  uncertainty k = 0.169397
         4         3         1        26     9      180.000000        2.626344         2    ;  uncertainty k = 0.545797
         4         3         1        26     9        0.000000       -0.143574         3    ;  uncertainty k = 0.177260
         4         3         1        26     9      180.000000        0.190199         4    ;  uncertainty k = 0.151814
         4         3         2         7     9        0.000000        0.631905         1    ;  uncertainty k = 0.944897
         4         3         2         7     9      180.000000        6.274854         2    ;  uncertainty k = 0.580309
         4         3         2         7     9        0.000000        1.042054         3    ;  uncertainty k = 0.582315
         4         3         2         7     9      180.000000        1.347100         4    ;  uncertainty k = 0.472370
         4         3         2        22     9        0.000000       -0.096030         1    ;  uncertainty k = 0.155584
         4         3         2        22     9      180.000000        9.773755         2    ;  uncertainty k = 0.365669
         4         3         2        22     9        0.000000        1.536502         3    ;  uncertainty k = 0.182031
         4         3         2        22     9      180.000000        1.522037         4    ;  uncertainty k = 0.406093
         4         5         6         7     9        0.000000       -0.006974         1    ;  uncertainty k = 0.236562
         4         5         6         7     9      180.000000       11.809558         2    ;  uncertainty k = 0.575174
         4         5         6         7     9        0.000000       -0.702766         3    ;  uncertainty k = 0.487237
         4         5         6         7     9      180.000000        0.950547         4    ;  uncertainty k = 0.394403
         4         5         6        28     9        0.000000       -0.056306         1    ;  uncertainty k = 0.436111
         4         5         6        28     9      180.000000        8.002177         2    ;  uncertainty k = 0.494924
         4         5         6        28     9        0.000000        1.126115         3    ;  uncertainty k = 0.327548
         4         5         6        28     9      180.000000        1.787830         4    ;  uncertainty k = 0.225107
         4        16        19        20     9        0.000000        1.476110         1    ;  uncertainty k = 0.816927
         4        16        19        20     9      180.000000       -1.376371         2    ;  uncertainty k = 0.333976
         4        16        19        20     9        0.000000        0.257722         3    ;  uncertainty k = 0.325367
         4        16        19        20     9      180.000000       -0.129852         4    ;  uncertainty k = 0.229347
         4        16        19        21     9        0.000000        1.476110         1    ;  uncertainty k = 0.816927
         4        16        19        21     9      180.000000       -1.376371         2    ;  uncertainty k = 0.333976
         4        16        19        21     9        0.000000        0.257722         3    ;  uncertainty k = 0.325367
         4        16        19        21     9      180.000000       -0.129852         4    ;  uncertainty k = 0.229347
         4        16        19        32     9        0.000000        1.228382         1    ;  uncertainty k = 0.575587
         4        16        19        32     9      180.000000       -1.587513         2    ;  uncertainty k = 0.944783
         4        16        19        32     9        0.000000        0.078298         3    ;  uncertainty k = 0.222218
         4        16        19        32     9      180.000000       -0.154095         4    ;  uncertainty k = 0.158066
         5         4        16        17     9        0.000000       -2.060226         1    ;  uncertainty k = 1.371320
         5         4        16        17     9      180.000000        0.934569         2    ;  uncertainty k = 0.661592
         5         4        16        17     9        0.000000        0.151188         3    ;  uncertainty k = 0.331872
         5         4        16        17     9      180.000000        0.034001         4    ;  uncertainty k = 0.208334
         5         4        16        18     9        0.000000       -2.060227         1    ;  uncertainty k = 1.371321
         5         4        16        18     9      180.000000        0.934571         2    ;  uncertainty k = 0.661591
         5         4        16        18     9        0.000000        0.151188         3    ;  uncertainty k = 0.331871
         5         4        16        18     9      180.000000        0.034002         4    ;  uncertainty k = 0.208334
         5         4        16        19     9        0.000000        2.147159         1    ;  uncertainty k = 0.908136
         5         4        16        19     9      180.000000       -0.046143         2    ;  uncertainty k = 0.489610
         5         4        16        19     9        0.000000       -0.146134         3    ;  uncertainty k = 0.745322
         5         4        16        19     9      180.000000        0.256549         4    ;  uncertainty k = 0.179093
         5         6         7         8     9        0.000000       -0.053214         1    ;  uncertainty k = 0.209644
         5         6         7         8     9      180.000000       10.882756         2    ;  uncertainty k = 0.511695
         5         6         7         8     9        0.000000        1.452958         3    ;  uncertainty k = 0.247084
         5         6         7         8     9      180.000000        1.740793         4    ;  uncertainty k = 0.204423
         6         5         4        16     9        0.000000        0.405488         1    ;  uncertainty k = 0.336008
         6         5         4        16     9      180.000000        9.289168         2    ;  uncertainty k = 0.769152
         6         5         4        16     9        0.000000        1.304582         3    ;  uncertainty k = 0.398477
         6         5         4        16     9      180.000000        1.816388         4    ;  uncertainty k = 0.168164
         6         7         2        22     9        0.000000        0.164898         1    ;  uncertainty k = 0.224021
         6         7         2        22     9      180.000000        6.971717         2    ;  uncertainty k = 0.627288
         6         7         2        22     9        0.000000        1.382735         3    ;  uncertainty k = 0.277516
         6         7         2        22     9      180.000000        1.635704         4    ;  uncertainty k = 0.162494
         6         7         8         9     9        0.000000        5.189239         1    ;  uncertainty k = 0.373286
         6         7         8         9     9      180.000000        5.927110         2    ;  uncertainty k = 0.278716
         6         7         8         9     9        0.000000        0.050365         3    ;  uncertainty k = 0.188971
         6         7         8         9     9      180.000000        0.231946         4    ;  uncertainty k = 0.067788
         7         6         5        27     9        0.000000       -0.015722         1    ;  uncertainty k = 0.237516
         7         6         5        27     9      180.000000        7.833261         2    ;  uncertainty k = 0.271674
         7         6         5        27     9        0.000000        1.121959         3    ;  uncertainty k = 0.180174
         7         6         5        27     9      180.000000        1.737646         4    ;  uncertainty k = 0.082443
         7         8         9        10     9        0.000000        4.205607         1    ;  uncertainty k = 0.243866
         7         8         9        10     9      180.000000        5.320436         2    ;  uncertainty k = 0.189391
         7         8         9        10     9        0.000000        0.499526         3    ;  uncertainty k = 0.132102
         7         8         9        10     9      180.000000        0.134210         4    ;  uncertainty k = 0.039570
         7         8         9        15     9        0.000000        4.136794         1    ;  uncertainty k = 0.238255
         7         8         9        15     9      180.000000        5.276313         2    ;  uncertainty k = 0.148546
         7         8         9        15     9        0.000000        0.513901         3    ;  uncertainty k = 0.112194
         7         8         9        15     9      180.000000        0.134949         4    ;  uncertainty k = 0.042773
         8         7         2        22     9        0.000000        0.145384         1    ;  uncertainty k = 0.246335
         8         7         2        22     9      180.000000       10.139194         2    ;  uncertainty k = 0.450134
         8         7         2        22     9        0.000000        1.116799         3    ;  uncertainty k = 0.270767
         8         7         2        22     9      180.000000        1.431694         4    ;  uncertainty k = 0.236619
         8         7         6        28     9        0.000000        0.018877         1    ;  uncertainty k = 0.119802
         8         7         6        28     9      180.000000        8.835053         2    ;  uncertainty k = 0.392826
         8         7         6        28     9        0.000000        0.829536         3    ;  uncertainty k = 0.218281
         8         7         6        28     9      180.000000        1.187506         4    ;  uncertainty k = 0.177856
         8         9        10        11     9        0.000000        0.095904         1    ;  uncertainty k = 0.177173
         8         9        10        11     9      180.000000       10.534379         2    ;  uncertainty k = 0.293093
         8         9        10        11     9        0.000000        1.307514         3    ;  uncertainty k = 0.167783
         8         9        10        11     9      180.000000        1.615606         4    ;  uncertainty k = 0.133226
         8         9        10        29     9        0.000000       -0.061177         1    ;  uncertainty k = 0.116125
         8         9        10        29     9      180.000000        8.228136         2    ;  uncertainty k = 0.281329
         8         9        10        29     9        0.000000        0.843691         3    ;  uncertainty k = 0.238038
         8         9        10        29     9      180.000000        1.096479         4    ;  uncertainty k = 0.086017
         8         9        15        13     9        0.000000        0.106191         1    ;  uncertainty k = 0.157789
         8         9        15        13     9      180.000000       10.725771         2    ;  uncertainty k = 0.311491
         8         9        15        13     9        0.000000        1.288819         3    ;  uncertainty k = 0.115235
         8         9        15        13     9      180.000000        1.600896         4    ;  uncertainty k = 0.127537
         8         9        15        31     9        0.000000       -0.067664         1    ;  uncertainty k = 0.135617
         8         9        15        31     9      180.000000        8.370528         2    ;  uncertainty k = 0.301824
         8         9        15        31     9        0.000000        0.845736         3    ;  uncertainty k = 0.246022
         8         9        15        31     9      180.000000        1.114281         4    ;  uncertainty k = 0.088223
         9        10        11        12     9        0.000000       -0.067170         1    ;  uncertainty k = 0.178951
         9        10        11        12     9      180.000000        9.150374         2    ;  uncertainty k = 0.476096
         9        10        11        12     9        0.000000        0.003391         3    ;  uncertainty k = 0.504377
         9        10        11        12     9      180.000000        1.303792         4    ;  uncertainty k = 0.254773
         9        10        11        24     9        0.000000        0.037558         1    ;  uncertainty k = 0.062702
         9        10        11        24     9      180.000000       12.636328         2    ;  uncertainty k = 0.563423
         9        10        11        24     9        0.000000        1.502619         3    ;  uncertainty k = 0.346108
         9        10        11        24     9      180.000000        1.495918         4    ;  uncertainty k = 0.244174
         9        15        13        12     9        0.000000       -0.099801         1    ;  uncertainty k = 0.232007
         9        15        13        12     9      180.000000       10.225495         2    ;  uncertainty k = 0.360741
         9        15        13        12     9        0.000000       -0.055578         3    ;  uncertainty k = 0.506577
         9        15        13        12     9      180.000000        1.248333         4    ;  uncertainty k = 0.292480
         9        15        13        14     9        0.000000       -0.030025         1    ;  uncertainty k = 0.223044
         9        15        13        14     9      180.000000        9.383247         2    ;  uncertainty k = 0.557322
         9        15        13        14     9        0.000000        1.432505         3    ;  uncertainty k = 0.432732
         9        15        13        14     9      180.000000        1.664747         4    ;  uncertainty k = 0.165613
        10         9        15        13     9        0.000000       -0.019018         1    ;  uncertainty k = 0.048822
        10         9        15        13     9      180.000000        9.814248         2    ;  uncertainty k = 0.503112
        10         9        15        13     9        0.000000       -0.166824         3    ;  uncertainty k = 0.471604
        10         9        15        13     9      180.000000        1.190393         4    ;  uncertainty k = 0.258370
        10         9        15        31     9        0.000000        0.193697         1    ;  uncertainty k = 0.294014
        10         9        15        31     9      180.000000        6.075162         2    ;  uncertainty k = 0.741923
        10         9        15        31     9        0.000000        1.463947         3    ;  uncertainty k = 0.378133
        10         9        15        31     9      180.000000        1.615481         4    ;  uncertainty k = 0.181273
        10        11        12        13     9        0.000000        0.047486         1    ;  uncertainty k = 0.248760
        10        11        12        13     9      180.000000        9.416472         2    ;  uncertainty k = 0.526005
        10        11        12        13     9        0.000000       -0.239532         3    ;  uncertainty k = 0.531742
        10        11        12        13     9      180.000000        1.226113         4    ;  uncertainty k = 0.215921
        10        11        12        30     9        0.000000       -0.008574         1    ;  uncertainty k = 0.228759
        10        11        12        30     9      180.000000        5.767531         2    ;  uncertainty k = 0.692671
        10        11        12        30     9        0.000000        1.336882         3    ;  uncertainty k = 0.331722
        10        11        12        30     9      180.000000        1.519252         4    ;  uncertainty k = 0.146559
        11        10         9        15     9        0.000000       -0.044601         1    ;  uncertainty k = 0.143591
        11        10         9        15     9      180.000000        9.407735         2    ;  uncertainty k = 0.514686
        11        10         9        15     9        0.000000       -0.103403         3    ;  uncertainty k = 0.499689
        11        10         9        15     9      180.000000        1.238766         4    ;  uncertainty k = 0.288206
        11        12        13        14     9        0.000000       -0.120810         1    ;  uncertainty k = 0.217842
        11        12        13        14     9      180.000000        9.585633         2    ;  uncertainty k = 0.591761
        11        12        13        14     9        0.000000        1.435653         3    ;  uncertainty k = 0.460779
        11        12        13        14     9      180.000000        1.610631         4    ;  uncertainty k = 0.199813
        11        12        13        15     9        0.000000       -0.074759         1    ;  uncertainty k = 0.164619
        11        12        13        15     9      180.000000       10.120848         2    ;  uncertainty k = 0.321603
        11        12        13        15     9        0.000000       -0.232417         3    ;  uncertainty k = 0.526890
        11        12        13        15     9      180.000000        1.177551         4    ;  uncertainty k = 0.278640
        12        11        10        29     9        0.000000        0.097362         1    ;  uncertainty k = 0.138155
        12        11        10        29     9      180.000000        5.789141         2    ;  uncertainty k = 0.666333
        12        11        10        29     9        0.000000        1.373190         3    ;  uncertainty k = 0.344295
        12        11        10        29     9      180.000000        1.545921         4    ;  uncertainty k = 0.139384
        12        13        15        31     9        0.000000        0.070590         1    ;  uncertainty k = 0.269502
        12        13        15        31     9      180.000000        6.364456         2    ;  uncertainty k = 0.646991
        12        13        15        31     9        0.000000        1.459776         3    ;  uncertainty k = 0.395621
        12        13        15        31     9      180.000000        1.597906         4    ;  uncertainty k = 0.181675
        13        12        11        24     9        0.000000       -0.133658         1    ;  uncertainty k = 0.245809
        13        12        11        24     9      180.000000       13.025528         2    ;  uncertainty k = 0.672205
        13        12        11        24     9        0.000000        1.510910         3    ;  uncertainty k = 0.188872
        13        12        11        24     9      180.000000        1.466769         4    ;  uncertainty k = 0.282670
        14        13        12        30     9        0.000000       -0.190971         1    ;  uncertainty k = 0.157958
        14        13        12        30     9      180.000000        7.171864         2    ;  uncertainty k = 0.264032
        14        13        12        30     9        0.000000        0.606438         3    ;  uncertainty k = 0.410119
        14        13        12        30     9      180.000000        0.951445         4    ;  uncertainty k = 0.198495
        14        13        15        31     9        0.000000       -0.223833         1    ;  uncertainty k = 0.237150
        14        13        15        31     9      180.000000        7.290616         2    ;  uncertainty k = 0.395620
        14        13        15        31     9        0.000000        0.620961         3    ;  uncertainty k = 0.413847
        14        13        15        31     9      180.000000        0.978574         4    ;  uncertainty k = 0.215978
        15         9        10        29     9        0.000000        0.210012         1    ;  uncertainty k = 0.292635
        15         9        10        29     9      180.000000        6.017900         2    ;  uncertainty k = 0.775619
        15         9        10        29     9        0.000000        1.468477         3    ;  uncertainty k = 0.380846
        15         9        10        29     9      180.000000        1.568028         4    ;  uncertainty k = 0.162307
        15        13        12        30     9        0.000000        0.045113         1    ;  uncertainty k = 0.301275
        15        13        12        30     9      180.000000        6.321343         2    ;  uncertainty k = 0.669805
        15        13        12        30     9        0.000000        1.422732         3    ;  uncertainty k = 0.416345
        15        13        12        30     9      180.000000        1.507689         4    ;  uncertainty k = 0.200107
        16         4         5        27     9        0.000000       -0.413736         1    ;  uncertainty k = 0.351771
        16         4         5        27     9      180.000000        7.263054         2    ;  uncertainty k = 0.477589
        16         4         5        27     9        0.000000        0.811165         3    ;  uncertainty k = 0.173326
        16         4         5        27     9      180.000000        1.173083         4    ;  uncertainty k = 0.199588
        17        16        19        20     9        0.000000        0.766629         1    ;  uncertainty k = 0.543626
        17        16        19        20     9      180.000000        0.209508         2    ;  uncertainty k = 0.368583
        17        16        19        20     9        0.000000        0.570258         3    ;  uncertainty k = 0.290072
        17        16        19        20     9      180.000000       -0.016630         4    ;  uncertainty k = 0.181871
        17        16        19        21     9        0.000000        0.766629         1    ;  uncertainty k = 0.543626
        17        16        19        21     9      180.000000        0.209508         2    ;  uncertainty k = 0.368583
        17        16        19        21     9        0.000000        0.570258         3    ;  uncertainty k = 0.290072
        17        16        19        21     9      180.000000       -0.016630         4    ;  uncertainty k = 0.181871
        17        16        19        32     9        0.000000        0.072702         1    ;  uncertainty k = 0.504381
        17        16        19        32     9      180.000000       -0.277001         2    ;  uncertainty k = 0.144722
        17        16        19        32     9        0.000000        0.234082         3    ;  uncertainty k = 0.126257
        17        16        19        32     9      180.000000       -0.083443         4    ;  uncertainty k = 0.122472
        18        16        19        20     9        0.000000        0.766628         1    ;  uncertainty k = 0.543626
        18        16        19        20     9      180.000000        0.209508         2    ;  uncertainty k = 0.368583
        18        16        19        20     9        0.000000        0.570258         3    ;  uncertainty k = 0.290072
        18        16        19        20     9      180.000000       -0.016630         4    ;  uncertainty k = 0.181872
        18        16        19        21     9        0.000000        0.766628         1    ;  uncertainty k = 0.543626
        18        16        19        21     9      180.000000        0.209508         2    ;  uncertainty k = 0.368583
        18        16        19        21     9        0.000000        0.570258         3    ;  uncertainty k = 0.290072
        18        16        19        21     9      180.000000       -0.016630         4    ;  uncertainty k = 0.181872
        18        16        19        32     9        0.000000        0.072701         1    ;  uncertainty k = 0.504380
        18        16        19        32     9      180.000000       -0.277001         2    ;  uncertainty k = 0.144722
        18        16        19        32     9        0.000000        0.234082         3    ;  uncertainty k = 0.126257
        18        16        19        32     9      180.000000       -0.083443         4    ;  uncertainty k = 0.122472
        24        11        10        29     9        0.000000       -0.303893         1    ;  uncertainty k = 0.235298
        24        11        10        29     9      180.000000        8.730511         2    ;  uncertainty k = 0.332123
        24        11        10        29     9        0.000000        0.825030         3    ;  uncertainty k = 0.278075
        24        11        10        29     9      180.000000        1.031686         4    ;  uncertainty k = 0.191208
        24        11        12        30     9        0.000000       -0.316626         1    ;  uncertainty k = 0.211117
        24        11        12        30     9      180.000000        8.754317         2    ;  uncertainty k = 0.309942
        24        11        12        30     9        0.000000        0.803769         3    ;  uncertainty k = 0.290383
        24        11        12        30     9      180.000000        0.987725         4    ;  uncertainty k = 0.177351
        25         1        23        33     9        0.000000        9.651918         1    ;  uncertainty k = 0.432121
        25         1        23        33     9      180.000000       -2.117621         2    ;  uncertainty k = 0.427275
        25         1        23        33     9        0.000000        0.884813         3    ;  uncertainty k = 0.151395
        25         1        23        33     9      180.000000        0.074326         4    ;  uncertainty k = 0.039872
        26         1        23        33     9        0.000000        9.651914         1    ;  uncertainty k = 0.432120
        26         1        23        33     9      180.000000       -2.117621         2    ;  uncertainty k = 0.427275
        26         1        23        33     9        0.000000        0.884813         3    ;  uncertainty k = 0.151395
        26         1        23        33     9      180.000000        0.074326         4    ;  uncertainty k = 0.039872
        27         5         6        28     9        0.000000        0.030055         1    ;  uncertainty k = 0.219577
        27         5         6        28     9      180.000000        7.829393         2    ;  uncertainty k = 0.471379
        27         5         6        28     9        0.000000       -0.390676         3    ;  uncertainty k = 0.383287
        27         5         6        28     9      180.000000        0.236871         4    ;  uncertainty k = 0.142680

[ dihedrals ] ; impropers
;       ai        aj        ak        al funct           phase               k        pn
         2         3         7        22     4      180.000000       11.498560         2    ;  uncertainty k = 0.075234
         2         7        22         3     4      180.000000       11.498560         2    ;  uncertainty k = 0.075234
         2        22         3         7     4      180.000000       11.498560         2    ;  uncertainty k = 0.075234
         3         1         2         4     4      180.000000       15.789047         2    ;  uncertainty k = 0.165218
         3         2         4         1     4      180.000000       15.789047         2    ;  uncertainty k = 0.165218
         3         4         1         2     4      180.000000       15.789047         2    ;  uncertainty k = 0.165218
         4         3         5        16     4      180.000000        6.034678         2    ;  uncertainty k = 0.324020
         4         5        16         3     4      180.000000        6.034678         2    ;  uncertainty k = 0.324020
         4        16         3         5     4      180.000000        6.034678         2    ;  uncertainty k = 0.324020
         5         4         6        27     4      180.000000        5.357280         2    ;  uncertainty k = 0.101629
         5         6        27         4     4      180.000000        5.357280         2    ;  uncertainty k = 0.101629
         5        27         4         6     4      180.000000        5.357280         2    ;  uncertainty k = 0.101629
         6         5         7        28     4      180.000000        2.142988         2    ;  uncertainty k = 0.147039
         6         7        28         5     4      180.000000        2.142988         2    ;  uncertainty k = 0.147039
         6        28         5         7     4      180.000000        2.142988         2    ;  uncertainty k = 0.147039
         7         2         6         8     4      180.000000       17.711956         2    ;  uncertainty k = 0.109880
         7         6         8         2     4      180.000000       17.711956         2    ;  uncertainty k = 0.109880
         7         8         2         6     4      180.000000       17.711956         2    ;  uncertainty k = 0.109880
         9         8        10        15     4      180.000000       18.829430         2    ;  uncertainty k = 0.035286
         9        10        15         8     4      180.000000       18.829430         2    ;  uncertainty k = 0.035286
         9        15         8        10     4      180.000000       18.829430         2    ;  uncertainty k = 0.035286
        10         9        11        29     4      180.000000        1.303668         2    ;  uncertainty k = 0.229681
        10        11        29         9     4      180.000000        1.303668         2    ;  uncertainty k = 0.229681
        10        29         9        11     4      180.000000        1.303668         2    ;  uncertainty k = 0.229681
        11        10        12        24     4      180.000000       18.155448         2    ;  uncertainty k = 0.046061
        11        12        24        10     4      180.000000       18.155448         2    ;  uncertainty k = 0.046061
        11        24        10        12     4      180.000000       18.155448         2    ;  uncertainty k = 0.046061
        12        11        13        30     4      180.000000        1.443253         2    ;  uncertainty k = 0.472598
        12        13        30        11     4      180.000000        1.443253         2    ;  uncertainty k = 0.472598
        12        30        11        13     4      180.000000        1.443253         2    ;  uncertainty k = 0.472598
        13        12        14        15     4      180.000000       14.475914         2    ;  uncertainty k = 0.105171
        13        14        15        12     4      180.000000       14.475914         2    ;  uncertainty k = 0.105171
        13        15        12        14     4      180.000000       14.475914         2    ;  uncertainty k = 0.105171
        15         9        13        31     4      180.000000        1.727094         2    ;  uncertainty k = 0.468416
        15        13        31         9     4      180.000000        1.727094         2    ;  uncertainty k = 0.468416
        15        31         9        13     4      180.000000        1.727094         2    ;  uncertainty k = 0.468416

[ pairs ]
;       ai        aj funct
         1         5     1
         1         7     1
         1        16     1
         1        22     1
         2         5     1
         2         9     1
         2        16     1
         2        23     1
         2        25     1
         2        26     1
         2        28     1
         3         6     1
         3         8     1
         3        17     1
         3        18     1
         3        19     1
         3        27     1
         3        33     1
         4         7     1
         4        20     1
         4        21     1
         4        22     1
         4        23     1
         4        25     1
         4        26     1
         4        28     1
         4        32     1
         5         8     1
         5        17     1
         5        18     1
         5        19     1
         6         9     1
         6        16     1
         6        22     1
         7        10     1
         7        15     1
         7        27     1
         8        11     1
         8        13     1
         8        22     1
         8        28     1
         8        29     1
         8        31     1
         9        12     1
         9        14     1
         9        24     1
        10        13     1
        10        30     1
        10        31     1
        11        14     1
        11        15     1
        12        29     1
        12        31     1
        13        24     1
        14        30     1
        14        31     1
        15        29     1
        15        30     1
        16        27     1
        17        20     1
        17        21     1
        17        32     1
        18        20     1
        18        21     1
        18        32     1
        24        29     1
        24        30     1
        25        33     1
        26        33     1
        27        28     1
