; ITP file created by ByteFF-joint-25, 2026-02-17 09:18:20.056667

[ atomtypes ]
;name           bonded.type        at.num        mass        charge   ptype           sigma         epsilon
 c0bf                                   6      0.0000       0.00000       A     3.39755e-01     4.50120e-01    ;  uncertainty sigma = 0.000025, epsilon = 0.001730
 c1bf                                   6      0.0000       0.00000       A     3.31547e-01     4.13432e-01    ;  uncertainty sigma = 0.000012, epsilon = 0.000835
 c2bf                                   6      0.0000       0.00000       A     3.31474e-01     4.13760e-01    ;  uncertainty sigma = 0.000029, epsilon = 0.001803
 c3bf                                   6      0.0000       0.00000       A     3.31542e-01     4.12989e-01    ;  uncertainty sigma = 0.000018, epsilon = 0.001200
 c4bf                                   6      0.0000       0.00000       A     3.31475e-01     4.13153e-01    ;  uncertainty sigma = 0.000028, epsilon = 0.000458
 c5bf                                   6      0.0000       0.00000       A     3.31524e-01     4.13342e-01    ;  uncertainty sigma = 0.000009, epsilon = 0.000531
 c6bf                                   6      0.0000       0.00000       A     3.31520e-01     4.13181e-01    ;  uncertainty sigma = 0.000012, epsilon = 0.001105
 o7bf                                   8      0.0000       0.00000       A     3.15631e-01     3.03476e-01    ;  uncertainty sigma = 0.000033, epsilon = 0.001052
 c8bf                                   6      0.0000       0.00000       A     3.31505e-01     4.13900e-01    ;  uncertainty sigma = 0.000013, epsilon = 0.001028
 c9bf                                   6      0.0000       0.00000       A     3.31513e-01     4.13418e-01    ;  uncertainty sigma = 0.000002, epsilon = 0.000609
 c10bf                                  6      0.0000       0.00000       A     3.31516e-01     4.13426e-01    ;  uncertainty sigma = 0.000004, epsilon = 0.000649
 c11bf                                  6      0.0000       0.00000       A     3.31513e-01     4.13184e-01    ;  uncertainty sigma = 0.000005, epsilon = 0.000545
 c12bf                                  6      0.0000       0.00000       A     3.31524e-01     4.13681e-01    ;  uncertainty sigma = 0.000014, epsilon = 0.000863
 c13bf                                  6      0.0000       0.00000       A     3.47930e-01     6.67891e-01    ;  uncertainty sigma = 0.000025, epsilon = 0.001371
 c14bf                                  6      0.0000       0.00000       A     3.31525e-01     4.13354e-01    ;  uncertainty sigma = 0.000009, epsilon = 0.000772
 s15bf                                 16      0.0000       0.00000       A     4.05864e-01     2.57945e-01    ;  uncertainty sigma = 0.000038, epsilon = 0.003720
 o16bf                                  8      0.0000       0.00000       A     3.04764e-01     6.10830e-01    ;  uncertainty sigma = 0.000053, epsilon = 0.001928
 o17bf                                  8      0.0000       0.00000       A     3.04764e-01     6.10830e-01    ;  uncertainty sigma = 0.000053, epsilon = 0.001928
 c18bf                                  6      0.0000       0.00000       A     3.39873e-01     4.51128e-01    ;  uncertainty sigma = 0.000050, epsilon = 0.003751
 f19bf                                  9      0.0000       0.00000       A     3.03560e-01     3.47317e-01    ;  uncertainty sigma = 0.000038, epsilon = 0.002442
 f20bf                                  9      0.0000       0.00000       A     3.03560e-01     3.47317e-01    ;  uncertainty sigma = 0.000038, epsilon = 0.002442
 cl21bf                                17      0.0000       0.00000       A     3.46593e-01     1.10401e+00    ;  uncertainty sigma = 0.000022, epsilon = 0.004105
 o22bf                                  8      0.0000       0.00000       A     3.24296e-01     3.88484e-01    ;  uncertainty sigma = 0.000012, epsilon = 0.001656
 n23bf                                  7      0.0000       0.00000       A     3.27375e-01     4.59084e-01    ;  uncertainty sigma = 0.000021, epsilon = 0.000492
 h24bf                                  1      0.0000       0.00000       A     2.42235e-01     8.68435e-02    ;  uncertainty sigma = 0.000040, epsilon = 0.000786
 h25bf                                  1      0.0000       0.00000       A     2.42235e-01     8.68435e-02    ;  uncertainty sigma = 0.000040, epsilon = 0.000786
 h26bf                                  1      0.0000       0.00000       A     2.62576e-01     6.73275e-02    ;  uncertainty sigma = 0.000017, epsilon = 0.000654
 h27bf                                  1      0.0000       0.00000       A     2.62548e-01     6.71018e-02    ;  uncertainty sigma = 0.000005, epsilon = 0.000443
 h28bf                                  1      0.0000       0.00000       A     2.62561e-01     6.71299e-02    ;  uncertainty sigma = 0.000006, epsilon = 0.000455
 h29bf                                  1      0.0000       0.00000       A     2.62568e-01     6.69720e-02    ;  uncertainty sigma = 0.000010, epsilon = 0.000464
 h30bf                                  1      0.0000       0.00000       A     2.62572e-01     6.69858e-02    ;  uncertainty sigma = 0.000015, epsilon = 0.000486
 h31bf                                  1      0.0000       0.00000       A     2.62547e-01     6.71166e-02    ;  uncertainty sigma = 0.000014, epsilon = 0.000743
 h32bf                                  1      0.0000       0.00000       A     2.06482e-01     8.67289e-02    ;  uncertainty sigma = 0.000273, epsilon = 0.002988
 h33bf                                  1      0.0000       0.00000       A     5.37902e-02     1.92605e-02    ;  uncertainty sigma = 0.000133, epsilon = 0.000842

[ moleculetype ]
;name             nrexcl
 MOL                   3

[ atoms ]
;       nr            type      resi   res      atom      cgnr      charge          mass ; qtot
         1            c0bf         1   UNL        c0         1     0.16253       12.0110 ; qtot    0.163
         2            c1bf         1   UNL        c1         2    -0.00440       12.0110 ; qtot    0.158
         3            c2bf         1   UNL        c2         3     0.03721       12.0110 ; qtot    0.195
         4            c3bf         1   UNL        c3         4    -0.22780       12.0110 ; qtot   -0.032
         5            c4bf         1   UNL        c4         5    -0.01215       12.0110 ; qtot   -0.045
         6            c5bf         1   UNL        c5         6    -0.15893       12.0110 ; qtot   -0.204
         7            c6bf         1   UNL        c6         7     0.15755       12.0110 ; qtot   -0.046
         8            o7bf         1   UNL        o7         8    -0.23991       15.9990 ; qtot   -0.286
         9            c8bf         1   UNL        c8         9     0.11728       12.0110 ; qtot   -0.169
        10            c9bf         1   UNL        c9        10    -0.13413       12.0110 ; qtot   -0.303
        11           c10bf         1   UNL       c10        11    -0.10732       12.0110 ; qtot   -0.410
        12           c11bf         1   UNL       c11        12    -0.11133       12.0110 ; qtot   -0.521
        13           c12bf         1   UNL       c12        13     0.01049       12.0110 ; qtot   -0.511
        14           c13bf         1   UNL       c13        14     0.23126       12.0110 ; qtot   -0.280
        15           c14bf         1   UNL       c14        15    -0.12419       12.0110 ; qtot   -0.404
        16           s15bf         1   UNL       s15        16     0.94918       32.0670 ; qtot    0.545
        17           o16bf         1   UNL       o16        17    -0.54082       15.9990 ; qtot    0.005
        18           o17bf         1   UNL       o17        18    -0.54082       15.9990 ; qtot   -0.536
        19           c18bf         1   UNL       c18        19     0.39960       12.0110 ; qtot   -0.137
        20           f19bf         1   UNL       f19        20    -0.20938       18.9980 ; qtot   -0.346
        21           f20bf         1   UNL       f20        21    -0.20938       18.9980 ; qtot   -0.555
        22          cl21bf         1   UNL      cl21        22    -0.07810       35.4530 ; qtot   -0.634
        23           o22bf         1   UNL       o22        23    -0.59068       15.9990 ; qtot   -1.224
        24           n23bf         1   UNL       n23        24    -0.35734       14.0070 ; qtot   -1.582
        25           h24bf         1   UNL       h24        25     0.06734        1.0080 ; qtot   -1.514
        26           h25bf         1   UNL       h25        26     0.06734        1.0080 ; qtot   -1.447
        27           h26bf         1   UNL       h26        27     0.17064        1.0080 ; qtot   -1.276
        28           h27bf         1   UNL       h27        28     0.16075        1.0080 ; qtot   -1.116
        29           h28bf         1   UNL       h28        29     0.14798        1.0080 ; qtot   -0.968
        30           h29bf         1   UNL       h29        30     0.14806        1.0080 ; qtot   -0.819
        31           h30bf         1   UNL       h30        31     0.14797        1.0080 ; qtot   -0.672
        32           h31bf         1   UNL       h31        32     0.16112        1.0080 ; qtot   -0.510
        33           h32bf         1   UNL       h32        33     0.09845        1.0080 ; qtot   -0.412
        34           h33bf         1   UNL       h33        34     0.41193        1.0080 ; qtot   -0.000

[ bonds ]
;       ai        aj funct               r               k
         1         3     1        0.151373   218744.392480    ;  uncertainty r = 0.000102, k = 10.343145
         1        23     1        0.142664   268981.402637    ;  uncertainty r = 0.000166, k = 7.173366
         1        25     1        0.109365   309513.800488    ;  uncertainty r = 0.000052, k = 2.717037
         1        26     1        0.109365   309513.800488    ;  uncertainty r = 0.000052, k = 2.717037
         2         3     1        0.139329   325991.135107    ;  uncertainty r = 0.000139, k = 10.957964
         2         7     1        0.139675   340692.082861    ;  uncertainty r = 0.000105, k = 3.416695
         2        22     1        0.173838   186989.111890    ;  uncertainty r = 0.000060, k = 7.093487
         3         4     1        0.140134   321875.038281    ;  uncertainty r = 0.000148, k = 17.215863
         4         5     1        0.139128   343638.656689    ;  uncertainty r = 0.000105, k = 1.868940
         4        16     1        0.179052   132134.226245    ;  uncertainty r = 0.000120, k = 12.649513
         5         6     1        0.138566   370256.215625    ;  uncertainty r = 0.000063, k = 3.442462
         5        27     1        0.108402   328186.892383    ;  uncertainty r = 0.000034, k = 0.950189
         6         7     1        0.139206   358671.969922    ;  uncertainty r = 0.000121, k = 6.529342
         6        28     1        0.108741   335392.136719    ;  uncertainty r = 0.000037, k = 1.353750
         7         8     1        0.137572   315829.944824    ;  uncertainty r = 0.000091, k = 5.722435
         8         9     1        0.137762   316991.730078    ;  uncertainty r = 0.000122, k = 4.879675
         9        10     1        0.139445   353093.107471    ;  uncertainty r = 0.000026, k = 3.867386
         9        15     1        0.139111   356587.937500    ;  uncertainty r = 0.000032, k = 1.556804
        10        11     1        0.139313   371545.405518    ;  uncertainty r = 0.000033, k = 3.108118
        10        29     1        0.108821   336750.966309    ;  uncertainty r = 0.000014, k = 0.848524
        11        12     1        0.139278   368932.448486    ;  uncertainty r = 0.000020, k = 0.836271
        11        30     1        0.108721   333155.239160    ;  uncertainty r = 0.000014, k = 1.465200
        12        13     1        0.140423   358778.561816    ;  uncertainty r = 0.000038, k = 1.566171
        12        31     1        0.108659   333065.450684    ;  uncertainty r = 0.000011, k = 0.708102
        13        14     1        0.143697   315283.399609    ;  uncertainty r = 0.000023, k = 4.512226
        13        15     1        0.140111   358748.300342    ;  uncertainty r = 0.000040, k = 2.814738
        14        24     1        0.116658  1127258.060547    ;  uncertainty r = 0.000026, k = 3.049491
        15        32     1        0.108709   335347.651074    ;  uncertainty r = 0.000022, k = 1.775084
        16        17     1        0.147027   488192.000586    ;  uncertainty r = 0.000129, k = 10.535435
        16        18     1        0.147027   488192.000586    ;  uncertainty r = 0.000129, k = 10.535435
        16        19     1        0.186539   142777.646533    ;  uncertainty r = 0.000157, k = 25.826992
        19        20     1        0.134900   311469.508936    ;  uncertainty r = 0.000150, k = 4.024953
        19        21     1        0.134900   311469.534473    ;  uncertainty r = 0.000150, k = 4.024942
        19        33     1        0.109689   322360.243359    ;  uncertainty r = 0.000138, k = 6.933348
        23        34     1        0.097061   465952.549219    ;  uncertainty r = 0.000029, k = 4.601452

[ angles ]
;       ai        aj        ak funct           theta             cth
         1         3         2     1      118.842300      382.197764    ;  uncertainty theta = 0.005130, k = 0.325970
         1         3         4     1      118.601646      374.250328    ;  uncertainty theta = 0.003283, k = 0.112055
         1        23        34     1      107.184982      459.828150    ;  uncertainty theta = 0.003216, k = 0.073465
         2         3         4     1      123.067490      434.381634    ;  uncertainty theta = 0.006396, k = 0.184379
         2         7         6     1      121.221817      353.777674    ;  uncertainty theta = 0.003775, k = 0.169297
         2         7         8     1      118.285324      399.595558    ;  uncertainty theta = 0.003967, k = 0.141522
         3         1        23     1      111.697060      664.021217    ;  uncertainty theta = 0.002163, k = 0.174528
         3         1        25     1      106.926773      407.310191    ;  uncertainty theta = 0.003278, k = 0.061385
         3         1        26     1      106.926773      407.310191    ;  uncertainty theta = 0.003278, k = 0.061385
         3         2         7     1      125.740967      356.183206    ;  uncertainty theta = 0.005698, k = 0.121013
         3         2        22     1      116.615456      402.104100    ;  uncertainty theta = 0.007053, k = 0.216229
         3         4         5     1      127.688843      428.133246    ;  uncertainty theta = 0.008307, k = 0.087016
         3         4        16     1      114.035538      320.339096    ;  uncertainty theta = 0.009165, k = 0.283086
         4         5         6     1      120.621750      487.032322    ;  uncertainty theta = 0.003526, k = 0.096549
         4         5        27     1      118.316360      258.677176    ;  uncertainty theta = 0.002258, k = 0.125193
         4        16        17     1      115.172302      611.716046    ;  uncertainty theta = 0.006251, k = 0.060413
         4        16        18     1      115.172302      611.716046    ;  uncertainty theta = 0.006251, k = 0.060413
         4        16        19     1      104.070084      503.266390    ;  uncertainty theta = 0.007293, k = 0.275709
         5         4        16     1      113.584862      361.239267    ;  uncertainty theta = 0.011140, k = 0.184606
         5         6         7     1      119.282822      502.296746    ;  uncertainty theta = 0.003568, k = 0.120404
         5         6        28     1      120.542320      274.709804    ;  uncertainty theta = 0.001510, k = 0.032193
         6         5        27     1      120.550491      282.267320    ;  uncertainty theta = 0.002044, k = 0.061882
         6         7         8     1      120.909645      432.112821    ;  uncertainty theta = 0.002909, k = 0.087445
         7         2        22     1      117.296921      436.617727    ;  uncertainty theta = 0.003919, k = 0.079179
         7         6        28     1      119.607018      275.551731    ;  uncertainty theta = 0.002650, k = 0.052931
         7         8         9     1      112.576698      461.676303    ;  uncertainty theta = 0.001697, k = 0.039389
         8         9        10     1      119.712952      410.606234    ;  uncertainty theta = 0.004483, k = 0.046302
         8         9        15     1      118.987709      401.434741    ;  uncertainty theta = 0.004976, k = 0.033384
         9        10        11     1      118.194809      531.272747    ;  uncertainty theta = 0.002163, k = 0.041988
         9        10        29     1      120.276733      274.686789    ;  uncertainty theta = 0.001573, k = 0.094030
         9        15        13     1      119.101791      520.356462    ;  uncertainty theta = 0.002118, k = 0.061957
         9        15        32     1      120.825195      278.343320    ;  uncertainty theta = 0.002416, k = 0.067114
        10         9        15     1      121.828049      383.288933    ;  uncertainty theta = 0.005015, k = 0.146508
        10        11        12     1      120.667091      517.015825    ;  uncertainty theta = 0.001814, k = 0.041678
        10        11        30     1      119.824585      285.456298    ;  uncertainty theta = 0.001823, k = 0.050606
        11        10        29     1      121.141846      290.387387    ;  uncertainty theta = 0.001787, k = 0.030043
        11        12        13     1      119.004944      525.277399    ;  uncertainty theta = 0.001496, k = 0.073458
        11        12        31     1      120.895203      285.103503    ;  uncertainty theta = 0.001801, k = 0.048958
        12        11        30     1      119.998390      283.188316    ;  uncertainty theta = 0.001403, k = 0.015503
        12        13        14     1      119.702896      376.155460    ;  uncertainty theta = 0.001410, k = 0.090793
        12        13        15     1      121.762619      456.783999    ;  uncertainty theta = 0.001530, k = 0.136154
        13        12        31     1      119.471947      282.614178    ;  uncertainty theta = 0.002513, k = 0.057133
        13        14        24     1      180.000000      235.218181    ;  uncertainty theta = 0.000000, k = 0.683578
        13        15        32     1      120.504135      283.709145    ;  uncertainty theta = 0.004452, k = 0.073712
        14        13        15     1      118.787682      371.925462    ;  uncertainty theta = 0.002926, k = 0.116782
        16        19        20     1      105.906296      510.620790    ;  uncertainty theta = 0.002742, k = 0.180912
        16        19        21     1      105.906296      510.620790    ;  uncertainty theta = 0.002742, k = 0.180912
        16        19        33     1      112.007034      381.602238    ;  uncertainty theta = 0.009999, k = 0.249698
        17        16        18     1      125.053368      863.248593    ;  uncertainty theta = 0.002205, k = 0.069139
        17        16        19     1      107.838051      524.500050    ;  uncertainty theta = 0.004700, k = 0.222275
        18        16        19     1      107.838051      524.500050    ;  uncertainty theta = 0.004700, k = 0.222275
        20        19        21     1      109.477539      835.740018    ;  uncertainty theta = 0.003850, k = 0.102696
        20        19        33     1      112.516335      472.158744    ;  uncertainty theta = 0.004961, k = 0.117406
        21        19        33     1      112.516335      472.158744    ;  uncertainty theta = 0.004961, k = 0.117406
        23         1        25     1      108.143433      493.261430    ;  uncertainty theta = 0.004047, k = 0.087977
        23         1        26     1      108.143433      493.261430    ;  uncertainty theta = 0.004047, k = 0.087977
        25         1        26     1      106.915695      317.599220    ;  uncertainty theta = 0.005862, k = 0.080482

[ dihedrals ] ; propers for gromacs 4.5 or higher, use funct 9
;       ai        aj        ak        al funct           phase               k        pn
         1         3         2         7     9        0.000000        0.128477         1    ;  uncertainty k = 0.320592
         1         3         2         7     9      180.000000        7.543877         2    ;  uncertainty k = 0.410019
         1         3         2         7     9        0.000000        1.340585         3    ;  uncertainty k = 0.245729
         1         3         2         7     9      180.000000        1.642998         4    ;  uncertainty k = 0.261101
         1         3         2        22     9        0.000000       -0.150631         1    ;  uncertainty k = 0.281177
         1         3         2        22     9      180.000000        9.562559         2    ;  uncertainty k = 0.253799
         1         3         2        22     9        0.000000        1.138315         3    ;  uncertainty k = 0.378971
         1         3         2        22     9      180.000000        1.405452         4    ;  uncertainty k = 0.412715
         1         3         4         5     9        0.000000       -0.154495         1    ;  uncertainty k = 0.451234
         1         3         4         5     9      180.000000        7.235428         2    ;  uncertainty k = 0.396036
         1         3         4         5     9        0.000000        1.055889         3    ;  uncertainty k = 0.338227
         1         3         4         5     9      180.000000        1.600650         4    ;  uncertainty k = 0.177343
         1         3         4        16     9        0.000000       -0.056460         1    ;  uncertainty k = 0.529699
         1         3         4        16     9      180.000000        8.363055         2    ;  uncertainty k = 0.242980
         1         3         4        16     9        0.000000        1.020451         3    ;  uncertainty k = 0.412722
         1         3         4        16     9      180.000000        1.312710         4    ;  uncertainty k = 0.177597
         2         3         1        23     9        0.000000        0.709643         1    ;  uncertainty k = 1.498529
         2         3         1        23     9      180.000000        3.094367         2    ;  uncertainty k = 0.895374
         2         3         1        23     9        0.000000        0.872456         3    ;  uncertainty k = 0.484645
         2         3         1        23     9      180.000000        0.663766         4    ;  uncertainty k = 0.040982
         2         3         1        25     9        0.000000        0.460535         1    ;  uncertainty k = 0.452495
         2         3         1        25     9      180.000000        3.145819         2    ;  uncertainty k = 0.530854
         2         3         1        25     9        0.000000        0.311273         3    ;  uncertainty k = 0.085510
         2         3         1        25     9      180.000000        0.270643         4    ;  uncertainty k = 0.100668
         2         3         1        26     9        0.000000        0.460535         1    ;  uncertainty k = 0.452495
         2         3         1        26     9      180.000000        3.145819         2    ;  uncertainty k = 0.530854
         2         3         1        26     9        0.000000        0.311273         3    ;  uncertainty k = 0.085510
         2         3         1        26     9      180.000000        0.270643         4    ;  uncertainty k = 0.100668
         2         3         4         5     9        0.000000        0.253466         1    ;  uncertainty k = 0.489580
         2         3         4         5     9      180.000000        7.436434         2    ;  uncertainty k = 0.870905
         2         3         4         5     9        0.000000        0.643175         3    ;  uncertainty k = 0.498052
         2         3         4         5     9      180.000000        1.195706         4    ;  uncertainty k = 0.304695
         2         3         4        16     9        0.000000        0.560196         1    ;  uncertainty k = 1.497056
         2         3         4        16     9      180.000000        7.715466         2    ;  uncertainty k = 0.324810
         2         3         4        16     9        0.000000        1.771960         3    ;  uncertainty k = 0.386293
         2         3         4        16     9      180.000000        1.712792         4    ;  uncertainty k = 0.131309
         2         7         6         5     9        0.000000        0.219166         1    ;  uncertainty k = 0.153435
         2         7         6         5     9      180.000000        8.559036         2    ;  uncertainty k = 0.432696
         2         7         6         5     9        0.000000        0.286999         3    ;  uncertainty k = 0.361501
         2         7         6         5     9      180.000000        1.343485         4    ;  uncertainty k = 0.307280
         2         7         6        28     9        0.000000        0.169999         1    ;  uncertainty k = 0.429626
         2         7         6        28     9      180.000000        6.073138         2    ;  uncertainty k = 0.611727
         2         7         6        28     9        0.000000        1.407730         3    ;  uncertainty k = 0.479193
         2         7         6        28     9      180.000000        1.681518         4    ;  uncertainty k = 0.189157
         2         7         8         9     9        0.000000        5.534966         1    ;  uncertainty k = 0.542690
         2         7         8         9     9      180.000000        4.788444         2    ;  uncertainty k = 0.270297
         2         7         8         9     9        0.000000        0.874450         3    ;  uncertainty k = 0.275738
         2         7         8         9     9      180.000000        0.105571         4    ;  uncertainty k = 0.056221
         3         1        23        34     9        0.000000       13.524335         1    ;  uncertainty k = 0.369445
         3         1        23        34     9      180.000000       -5.832904         2    ;  uncertainty k = 0.430384
         3         1        23        34     9        0.000000        0.982979         3    ;  uncertainty k = 0.207070
         3         1        23        34     9      180.000000        0.036980         4    ;  uncertainty k = 0.201366
         3         2         7         6     9        0.000000       -0.369313         1    ;  uncertainty k = 0.662277
         3         2         7         6     9      180.000000        4.950549         2    ;  uncertainty k = 1.358592
         3         2         7         6     9        0.000000        0.641586         3    ;  uncertainty k = 0.497600
         3         2         7         6     9      180.000000        1.217896         4    ;  uncertainty k = 0.375547
         3         2         7         8     9        0.000000        0.283196         1    ;  uncertainty k = 0.253783
         3         2         7         8     9      180.000000        7.750720         2    ;  uncertainty k = 0.366239
         3         2         7         8     9        0.000000        1.486477         3    ;  uncertainty k = 0.305709
         3         2         7         8     9      180.000000        1.768360         4    ;  uncertainty k = 0.144041
         3         4         5         6     9        0.000000        0.013563         1    ;  uncertainty k = 0.346120
         3         4         5         6     9      180.000000        9.470929         2    ;  uncertainty k = 0.490756
         3         4         5         6     9        0.000000       -0.069948         3    ;  uncertainty k = 0.501512
         3         4         5         6     9      180.000000        1.090033         4    ;  uncertainty k = 0.391577
         3         4         5        27     9        0.000000       -0.008199         1    ;  uncertainty k = 0.156624
         3         4         5        27     9      180.000000        6.271830         2    ;  uncertainty k = 0.596499
         3         4         5        27     9        0.000000        1.159793         3    ;  uncertainty k = 0.387409
         3         4         5        27     9      180.000000        1.550203         4    ;  uncertainty k = 0.115317
         3         4        16        17     9        0.000000       -1.699013         1    ;  uncertainty k = 1.570093
         3         4        16        17     9      180.000000        0.777314         2    ;  uncertainty k = 0.463660
         3         4        16        17     9        0.000000        0.644882         3    ;  uncertainty k = 0.217165
         3         4        16        17     9      180.000000        0.000528         4    ;  uncertainty k = 0.129982
         3         4        16        18     9        0.000000       -1.699013         1    ;  uncertainty k = 1.570093
         3         4        16        18     9      180.000000        0.777314         2    ;  uncertainty k = 0.463660
         3         4        16        18     9        0.000000        0.644882         3    ;  uncertainty k = 0.217165
         3         4        16        18     9      180.000000        0.000528         4    ;  uncertainty k = 0.129982
         3         4        16        19     9        0.000000        1.168980         1    ;  uncertainty k = 2.241724
         3         4        16        19     9      180.000000       -0.526459         2    ;  uncertainty k = 0.818102
         3         4        16        19     9        0.000000        0.153467         3    ;  uncertainty k = 0.600015
         3         4        16        19     9      180.000000        0.182880         4    ;  uncertainty k = 0.188020
         4         3         1        23     9        0.000000       -0.355652         1    ;  uncertainty k = 1.151065
         4         3         1        23     9      180.000000        3.740071         2    ;  uncertainty k = 0.822501
         4         3         1        23     9        0.000000       -0.148610         3    ;  uncertainty k = 0.648661
         4         3         1        23     9      180.000000        0.610234         4    ;  uncertainty k = 0.140492
         4         3         1        25     9        0.000000        0.958465         1    ;  uncertainty k = 0.169396
         4         3         1        25     9      180.000000        2.626344         2    ;  uncertainty k = 0.545796
         4         3         1        25     9        0.000000       -0.143574         3    ;  uncertainty k = 0.177261
         4         3         1        25     9      180.000000        0.190199         4    ;  uncertainty k = 0.151814
         4         3         1        26     9        0.000000        0.958465         1    ;  uncertainty k = 0.169396
         4         3         1        26     9      180.000000        2.626344         2    ;  uncertainty k = 0.545796
         4         3         1        26     9        0.000000       -0.143574         3    ;  uncertainty k = 0.177261
         4         3         1        26     9      180.000000        0.190199         4    ;  uncertainty k = 0.151814
         4         3         2         7     9        0.000000        0.631905         1    ;  uncertainty k = 0.944897
         4         3         2         7     9      180.000000        6.274854         2    ;  uncertainty k = 0.580309
         4         3         2         7     9        0.000000        1.042054         3    ;  uncertainty k = 0.582315
         4         3         2         7     9      180.000000        1.347100         4    ;  uncertainty k = 0.472370
         4         3         2        22     9        0.000000       -0.096030         1    ;  uncertainty k = 0.155584
         4         3         2        22     9      180.000000        9.773755         2    ;  uncertainty k = 0.365669
         4         3         2        22     9        0.000000        1.536502         3    ;  uncertainty k = 0.182031
         4         3         2        22     9      180.000000        1.522037         4    ;  uncertainty k = 0.406093
         4         5         6         7     9        0.000000       -0.006974         1    ;  uncertainty k = 0.236562
         4         5         6         7     9      180.000000       11.809558         2    ;  uncertainty k = 0.575174
         4         5         6         7     9        0.000000       -0.702766         3    ;  uncertainty k = 0.487237
         4         5         6         7     9      180.000000        0.950547         4    ;  uncertainty k = 0.394403
         4         5         6        28     9        0.000000       -0.056306         1    ;  uncertainty k = 0.436111
         4         5         6        28     9      180.000000        8.002177         2    ;  uncertainty k = 0.494924
         4         5         6        28     9        0.000000        1.126115         3    ;  uncertainty k = 0.327548
         4         5         6        28     9      180.000000        1.787830         4    ;  uncertainty k = 0.225107
         4        16        19        20     9        0.000000        1.476110         1    ;  uncertainty k = 0.816927
         4        16        19        20     9      180.000000       -1.376371         2    ;  uncertainty k = 0.333976
         4        16        19        20     9        0.000000        0.257722         3    ;  uncertainty k = 0.325367
         4        16        19        20     9      180.000000       -0.129852         4    ;  uncertainty k = 0.229347
         4        16        19        21     9        0.000000        1.476110         1    ;  uncertainty k = 0.816927
         4        16        19        21     9      180.000000       -1.376371         2    ;  uncertainty k = 0.333976
         4        16        19        21     9        0.000000        0.257722         3    ;  uncertainty k = 0.325367
         4        16        19        21     9      180.000000       -0.129852         4    ;  uncertainty k = 0.229347
         4        16        19        33     9        0.000000        1.228382         1    ;  uncertainty k = 0.575587
         4        16        19        33     9      180.000000       -1.587513         2    ;  uncertainty k = 0.944783
         4        16        19        33     9        0.000000        0.078298         3    ;  uncertainty k = 0.222218
         4        16        19        33     9      180.000000       -0.154095         4    ;  uncertainty k = 0.158066
         5         4        16        17     9        0.000000       -2.060226         1    ;  uncertainty k = 1.371320
         5         4        16        17     9      180.000000        0.934569         2    ;  uncertainty k = 0.661592
         5         4        16        17     9        0.000000        0.151188         3    ;  uncertainty k = 0.331872
         5         4        16        17     9      180.000000        0.034001         4    ;  uncertainty k = 0.208334
         5         4        16        18     9        0.000000       -2.060226         1    ;  uncertainty k = 1.371320
         5         4        16        18     9      180.000000        0.934569         2    ;  uncertainty k = 0.661592
         5         4        16        18     9        0.000000        0.151188         3    ;  uncertainty k = 0.331872
         5         4        16        18     9      180.000000        0.034001         4    ;  uncertainty k = 0.208334
         5         4        16        19     9        0.000000        2.147159         1    ;  uncertainty k = 0.908136
         5         4        16        19     9      180.000000       -0.046143         2    ;  uncertainty k = 0.489610
         5         4        16        19     9        0.000000       -0.146134         3    ;  uncertainty k = 0.745322
         5         4        16        19     9      180.000000        0.256549         4    ;  uncertainty k = 0.179093
         5         6         7         8     9        0.000000       -0.049970         1    ;  uncertainty k = 0.200260
         5         6         7         8     9      180.000000       10.965970         2    ;  uncertainty k = 0.529198
         5         6         7         8     9        0.000000        1.449465         3    ;  uncertainty k = 0.259583
         5         6         7         8     9      180.000000        1.724128         4    ;  uncertainty k = 0.216435
         6         5         4        16     9        0.000000        0.405488         1    ;  uncertainty k = 0.336008
         6         5         4        16     9      180.000000        9.289168         2    ;  uncertainty k = 0.769152
         6         5         4        16     9        0.000000        1.304582         3    ;  uncertainty k = 0.398477
         6         5         4        16     9      180.000000        1.816388         4    ;  uncertainty k = 0.168164
         6         7         2        22     9        0.000000        0.164898         1    ;  uncertainty k = 0.224021
         6         7         2        22     9      180.000000        6.971717         2    ;  uncertainty k = 0.627288
         6         7         2        22     9        0.000000        1.382735         3    ;  uncertainty k = 0.277516
         6         7         2        22     9      180.000000        1.635704         4    ;  uncertainty k = 0.162494
         6         7         8         9     9        0.000000        5.180684         1    ;  uncertainty k = 0.496098
         6         7         8         9     9      180.000000        5.861531         2    ;  uncertainty k = 0.299715
         6         7         8         9     9        0.000000        0.005810         3    ;  uncertainty k = 0.179327
         6         7         8         9     9      180.000000        0.224996         4    ;  uncertainty k = 0.053941
         7         6         5        27     9        0.000000       -0.015722         1    ;  uncertainty k = 0.237516
         7         6         5        27     9      180.000000        7.833261         2    ;  uncertainty k = 0.271674
         7         6         5        27     9        0.000000        1.121959         3    ;  uncertainty k = 0.180174
         7         6         5        27     9      180.000000        1.737646         4    ;  uncertainty k = 0.082443
         7         8         9        10     9        0.000000        4.101278         1    ;  uncertainty k = 0.246697
         7         8         9        10     9      180.000000        5.081376         2    ;  uncertainty k = 0.252005
         7         8         9        10     9        0.000000        0.532501         3    ;  uncertainty k = 0.050879
         7         8         9        10     9      180.000000        0.164894         4    ;  uncertainty k = 0.071535
         7         8         9        15     9        0.000000        3.942180         1    ;  uncertainty k = 0.331054
         7         8         9        15     9      180.000000        5.174909         2    ;  uncertainty k = 0.208642
         7         8         9        15     9        0.000000        0.422952         3    ;  uncertainty k = 0.092733
         7         8         9        15     9      180.000000        0.142630         4    ;  uncertainty k = 0.082212
         8         7         2        22     9        0.000000        0.183974         1    ;  uncertainty k = 0.223275
         8         7         2        22     9      180.000000       10.110858         2    ;  uncertainty k = 0.460327
         8         7         2        22     9        0.000000        1.125286         3    ;  uncertainty k = 0.254882
         8         7         2        22     9      180.000000        1.426293         4    ;  uncertainty k = 0.224582
         8         7         6        28     9        0.000000        0.029482         1    ;  uncertainty k = 0.118162
         8         7         6        28     9      180.000000        8.875820         2    ;  uncertainty k = 0.392451
         8         7         6        28     9        0.000000        0.832162         3    ;  uncertainty k = 0.206172
         8         7         6        28     9      180.000000        1.183282         4    ;  uncertainty k = 0.164118
         8         9        10        11     9        0.000000       -0.015038         1    ;  uncertainty k = 0.332324
         8         9        10        11     9      180.000000       10.892577         2    ;  uncertainty k = 0.569520
         8         9        10        11     9        0.000000        1.347849         3    ;  uncertainty k = 0.207660
         8         9        10        11     9      180.000000        1.695293         4    ;  uncertainty k = 0.207967
         8         9        10        29     9        0.000000       -0.068112         1    ;  uncertainty k = 0.190257
         8         9        10        29     9      180.000000        8.506153         2    ;  uncertainty k = 0.188954
         8         9        10        29     9        0.000000        0.828714         3    ;  uncertainty k = 0.206580
         8         9        10        29     9      180.000000        1.097075         4    ;  uncertainty k = 0.095230
         8         9        15        13     9        0.000000       -0.066947         1    ;  uncertainty k = 0.249406
         8         9        15        13     9      180.000000       11.308151         2    ;  uncertainty k = 0.443229
         8         9        15        13     9        0.000000        1.207298         3    ;  uncertainty k = 0.069024
         8         9        15        13     9      180.000000        1.624045         4    ;  uncertainty k = 0.157764
         8         9        15        32     9        0.000000        0.146974         1    ;  uncertainty k = 0.238496
         8         9        15        32     9      180.000000        8.535649         2    ;  uncertainty k = 0.275668
         8         9        15        32     9        0.000000        0.861864         3    ;  uncertainty k = 0.260987
         8         9        15        32     9      180.000000        1.145891         4    ;  uncertainty k = 0.144924
         9        10        11        12     9        0.000000       -0.273007         1    ;  uncertainty k = 0.262423
         9        10        11        12     9      180.000000       14.143037         2    ;  uncertainty k = 0.271435
         9        10        11        12     9        0.000000       -0.740110         3    ;  uncertainty k = 0.465042
         9        10        11        12     9      180.000000        0.811030         4    ;  uncertainty k = 0.205740
         9        10        11        30     9        0.000000        0.021058         1    ;  uncertainty k = 0.110818
         9        10        11        30     9      180.000000        7.969817         2    ;  uncertainty k = 0.248313
         9        10        11        30     9        0.000000        1.348922         3    ;  uncertainty k = 0.171396
         9        10        11        30     9      180.000000        1.784003         4    ;  uncertainty k = 0.116716
         9        15        13        12     9        0.000000       -0.151305         1    ;  uncertainty k = 0.271221
         9        15        13        12     9      180.000000       11.435364         2    ;  uncertainty k = 0.173182
         9        15        13        12     9        0.000000       -0.428563         3    ;  uncertainty k = 0.471058
         9        15        13        12     9      180.000000        1.083983         4    ;  uncertainty k = 0.235666
         9        15        13        14     9        0.000000       -0.014472         1    ;  uncertainty k = 0.248289
         9        15        13        14     9      180.000000       10.178719         2    ;  uncertainty k = 0.332518
         9        15        13        14     9        0.000000        1.294470         3    ;  uncertainty k = 0.281338
         9        15        13        14     9      180.000000        1.610435         4    ;  uncertainty k = 0.209383
        10         9        15        13     9        0.000000       -0.100454         1    ;  uncertainty k = 0.161304
        10         9        15        13     9      180.000000        9.559308         2    ;  uncertainty k = 0.414473
        10         9        15        13     9        0.000000        0.151544         3    ;  uncertainty k = 0.379180
        10         9        15        13     9      180.000000        1.248375         4    ;  uncertainty k = 0.355292
        10         9        15        32     9        0.000000        0.356623         1    ;  uncertainty k = 0.324180
        10         9        15        32     9      180.000000        6.309237         2    ;  uncertainty k = 0.705019
        10         9        15        32     9        0.000000        1.458990         3    ;  uncertainty k = 0.251904
        10         9        15        32     9      180.000000        1.591248         4    ;  uncertainty k = 0.190876
        10        11        12        13     9        0.000000       -0.191418         1    ;  uncertainty k = 0.085248
        10        11        12        13     9      180.000000       14.695344         2    ;  uncertainty k = 0.251111
        10        11        12        13     9        0.000000       -0.944681         3    ;  uncertainty k = 0.407108
        10        11        12        13     9      180.000000        0.668807         4    ;  uncertainty k = 0.210518
        10        11        12        31     9        0.000000        0.054849         1    ;  uncertainty k = 0.158597
        10        11        12        31     9      180.000000        7.725095         2    ;  uncertainty k = 0.316381
        10        11        12        31     9        0.000000        1.405233         3    ;  uncertainty k = 0.278317
        10        11        12        31     9      180.000000        1.816786         4    ;  uncertainty k = 0.096663
        11        10         9        15     9        0.000000        0.127656         1    ;  uncertainty k = 0.178979
        11        10         9        15     9      180.000000        9.444191         2    ;  uncertainty k = 0.616875
        11        10         9        15     9        0.000000       -0.037122         3    ;  uncertainty k = 0.421093
        11        10         9        15     9      180.000000        1.145200         4    ;  uncertainty k = 0.437926
        11        12        13        14     9        0.000000        0.227960         1    ;  uncertainty k = 0.151110
        11        12        13        14     9      180.000000        9.980152         2    ;  uncertainty k = 0.402501
        11        12        13        14     9        0.000000        1.322345         3    ;  uncertainty k = 0.259923
        11        12        13        14     9      180.000000        1.631737         4    ;  uncertainty k = 0.149444
        11        12        13        15     9        0.000000       -0.067965         1    ;  uncertainty k = 0.208497
        11        12        13        15     9      180.000000       11.826039         2    ;  uncertainty k = 0.434314
        11        12        13        15     9        0.000000       -0.856149         3    ;  uncertainty k = 0.491999
        11        12        13        15     9      180.000000        0.824528         4    ;  uncertainty k = 0.334934
        12        11        10        29     9        0.000000        0.133109         1    ;  uncertainty k = 0.113500
        12        11        10        29     9      180.000000        7.647290         2    ;  uncertainty k = 0.405610
        12        11        10        29     9        0.000000        1.532047         3    ;  uncertainty k = 0.215209
        12        11        10        29     9      180.000000        1.851311         4    ;  uncertainty k = 0.136173
        12        13        14        24     9        0.000000        0.000000         1    ;  uncertainty k = 0.000000
        12        13        14        24     9      180.000000        0.000000         2    ;  uncertainty k = 0.000000
        12        13        14        24     9        0.000000        0.000000         3    ;  uncertainty k = 0.000000
        12        13        14        24     9      180.000000        0.000000         4    ;  uncertainty k = 0.000000
        12        13        15        32     9        0.000000        0.241770         1    ;  uncertainty k = 0.339103
        12        13        15        32     9      180.000000        6.671058         2    ;  uncertainty k = 0.608798
        12        13        15        32     9        0.000000        1.450533         3    ;  uncertainty k = 0.242350
        12        13        15        32     9      180.000000        1.662846         4    ;  uncertainty k = 0.137405
        13        12        11        30     9        0.000000        0.013009         1    ;  uncertainty k = 0.170215
        13        12        11        30     9      180.000000        8.076780         2    ;  uncertainty k = 0.423363
        13        12        11        30     9        0.000000        1.347166         3    ;  uncertainty k = 0.307778
        13        12        11        30     9      180.000000        1.725624         4    ;  uncertainty k = 0.169734
        14        13        12        31     9        0.000000       -0.370593         1    ;  uncertainty k = 0.514893
        14        13        12        31     9      180.000000        7.139171         2    ;  uncertainty k = 0.087070
        14        13        12        31     9        0.000000        0.573855         3    ;  uncertainty k = 0.100783
        14        13        12        31     9      180.000000        1.007030         4    ;  uncertainty k = 0.187444
        14        13        15        32     9        0.000000       -0.316569         1    ;  uncertainty k = 0.339752
        14        13        15        32     9      180.000000        7.405316         2    ;  uncertainty k = 0.356198
        14        13        15        32     9        0.000000        0.517711         3    ;  uncertainty k = 0.132122
        14        13        15        32     9      180.000000        0.965581         4    ;  uncertainty k = 0.217219
        15         9        10        29     9        0.000000        0.231573         1    ;  uncertainty k = 0.195918
        15         9        10        29     9      180.000000        6.106930         2    ;  uncertainty k = 0.673760
        15         9        10        29     9        0.000000        1.457494         3    ;  uncertainty k = 0.380292
        15         9        10        29     9      180.000000        1.572037         4    ;  uncertainty k = 0.153578
        15        13        12        31     9        0.000000        0.131175         1    ;  uncertainty k = 0.415783
        15        13        12        31     9      180.000000        6.797926         2    ;  uncertainty k = 0.567351
        15        13        12        31     9        0.000000        1.416129         3    ;  uncertainty k = 0.340267
        15        13        12        31     9      180.000000        1.597031         4    ;  uncertainty k = 0.121930
        15        13        14        24     9        0.000000        0.000000         1    ;  uncertainty k = 0.000000
        15        13        14        24     9      180.000000        0.000000         2    ;  uncertainty k = 0.000000
        15        13        14        24     9        0.000000        0.000000         3    ;  uncertainty k = 0.000000
        15        13        14        24     9      180.000000        0.000000         4    ;  uncertainty k = 0.000000
        16         4         5        27     9        0.000000       -0.413736         1    ;  uncertainty k = 0.351771
        16         4         5        27     9      180.000000        7.263054         2    ;  uncertainty k = 0.477589
        16         4         5        27     9        0.000000        0.811165         3    ;  uncertainty k = 0.173326
        16         4         5        27     9      180.000000        1.173083         4    ;  uncertainty k = 0.199588
        17        16        19        20     9        0.000000        0.766629         1    ;  uncertainty k = 0.543626
        17        16        19        20     9      180.000000        0.209508         2    ;  uncertainty k = 0.368583
        17        16        19        20     9        0.000000        0.570258         3    ;  uncertainty k = 0.290072
        17        16        19        20     9      180.000000       -0.016630         4    ;  uncertainty k = 0.181871
        17        16        19        21     9        0.000000        0.766629         1    ;  uncertainty k = 0.543626
        17        16        19        21     9      180.000000        0.209508         2    ;  uncertainty k = 0.368583
        17        16        19        21     9        0.000000        0.570258         3    ;  uncertainty k = 0.290072
        17        16        19        21     9      180.000000       -0.016630         4    ;  uncertainty k = 0.181871
        17        16        19        33     9        0.000000        0.072702         1    ;  uncertainty k = 0.504381
        17        16        19        33     9      180.000000       -0.277001         2    ;  uncertainty k = 0.144722
        17        16        19        33     9        0.000000        0.234082         3    ;  uncertainty k = 0.126257
        17        16        19        33     9      180.000000       -0.083443         4    ;  uncertainty k = 0.122472
        18        16        19        20     9        0.000000        0.766629         1    ;  uncertainty k = 0.543626
        18        16        19        20     9      180.000000        0.209508         2    ;  uncertainty k = 0.368583
        18        16        19        20     9        0.000000        0.570258         3    ;  uncertainty k = 0.290072
        18        16        19        20     9      180.000000       -0.016630         4    ;  uncertainty k = 0.181871
        18        16        19        21     9        0.000000        0.766629         1    ;  uncertainty k = 0.543626
        18        16        19        21     9      180.000000        0.209508         2    ;  uncertainty k = 0.368583
        18        16        19        21     9        0.000000        0.570258         3    ;  uncertainty k = 0.290072
        18        16        19        21     9      180.000000       -0.016630         4    ;  uncertainty k = 0.181871
        18        16        19        33     9        0.000000        0.072702         1    ;  uncertainty k = 0.504381
        18        16        19        33     9      180.000000       -0.277001         2    ;  uncertainty k = 0.144722
        18        16        19        33     9        0.000000        0.234082         3    ;  uncertainty k = 0.126257
        18        16        19        33     9      180.000000       -0.083443         4    ;  uncertainty k = 0.122472
        25         1        23        34     9        0.000000        9.651918         1    ;  uncertainty k = 0.432121
        25         1        23        34     9      180.000000       -2.117621         2    ;  uncertainty k = 0.427275
        25         1        23        34     9        0.000000        0.884813         3    ;  uncertainty k = 0.151395
        25         1        23        34     9      180.000000        0.074326         4    ;  uncertainty k = 0.039872
        26         1        23        34     9        0.000000        9.651918         1    ;  uncertainty k = 0.432121
        26         1        23        34     9      180.000000       -2.117621         2    ;  uncertainty k = 0.427275
        26         1        23        34     9        0.000000        0.884813         3    ;  uncertainty k = 0.151395
        26         1        23        34     9      180.000000        0.074326         4    ;  uncertainty k = 0.039872
        27         5         6        28     9        0.000000        0.030055         1    ;  uncertainty k = 0.219577
        27         5         6        28     9      180.000000        7.829393         2    ;  uncertainty k = 0.471379
        27         5         6        28     9        0.000000       -0.390676         3    ;  uncertainty k = 0.383287
        27         5         6        28     9      180.000000        0.236871         4    ;  uncertainty k = 0.142680
        29        10        11        30     9        0.000000       -0.098936         1    ;  uncertainty k = 0.163320
        29        10        11        30     9      180.000000        7.826361         2    ;  uncertainty k = 0.347991
        29        10        11        30     9        0.000000       -0.405271         3    ;  uncertainty k = 0.262600
        29        10        11        30     9      180.000000        0.106690         4    ;  uncertainty k = 0.121689
        30        11        12        31     9        0.000000       -0.110663         1    ;  uncertainty k = 0.118757
        30        11        12        31     9      180.000000        7.747311         2    ;  uncertainty k = 0.569549
        30        11        12        31     9        0.000000       -0.374848         3    ;  uncertainty k = 0.251995
        30        11        12        31     9      180.000000        0.081283         4    ;  uncertainty k = 0.168610

[ dihedrals ] ; impropers
;       ai        aj        ak        al funct           phase               k        pn
         2         3         7        22     4      180.000000       11.498560         2    ;  uncertainty k = 0.075234
         2         7        22         3     4      180.000000       11.498560         2    ;  uncertainty k = 0.075234
         2        22         3         7     4      180.000000       11.498560         2    ;  uncertainty k = 0.075234
         3         1         2         4     4      180.000000       15.789047         2    ;  uncertainty k = 0.165218
         3         2         4         1     4      180.000000       15.789047         2    ;  uncertainty k = 0.165218
         3         4         1         2     4      180.000000       15.789047         2    ;  uncertainty k = 0.165218
         4         3         5        16     4      180.000000        6.034678         2    ;  uncertainty k = 0.324020
         4         5        16         3     4      180.000000        6.034678         2    ;  uncertainty k = 0.324020
         4        16         3         5     4      180.000000        6.034678         2    ;  uncertainty k = 0.324020
         5         4         6        27     4      180.000000        5.357280         2    ;  uncertainty k = 0.101629
         5         6        27         4     4      180.000000        5.357280         2    ;  uncertainty k = 0.101629
         5        27         4         6     4      180.000000        5.357280         2    ;  uncertainty k = 0.101629
         6         5         7        28     4      180.000000        2.142988         2    ;  uncertainty k = 0.147039
         6         7        28         5     4      180.000000        2.142988         2    ;  uncertainty k = 0.147039
         6        28         5         7     4      180.000000        2.142988         2    ;  uncertainty k = 0.147039
         7         2         6         8     4      180.000000       17.630621         2    ;  uncertainty k = 0.105078
         7         6         8         2     4      180.000000       17.630621         2    ;  uncertainty k = 0.105078
         7         8         2         6     4      180.000000       17.630621         2    ;  uncertainty k = 0.105078
         9         8        10        15     4      180.000000       17.954379         2    ;  uncertainty k = 0.047123
         9        10        15         8     4      180.000000       17.954379         2    ;  uncertainty k = 0.047123
         9        15         8        10     4      180.000000       17.954379         2    ;  uncertainty k = 0.047123
        10         9        11        29     4      180.000000        3.547898         2    ;  uncertainty k = 0.180730
        10        11        29         9     4      180.000000        3.547898         2    ;  uncertainty k = 0.180730
        10        29         9        11     4      180.000000        3.547898         2    ;  uncertainty k = 0.180730
        11        10        12        30     4      180.000000        4.425057         2    ;  uncertainty k = 0.210499
        11        12        30        10     4      180.000000        4.425057         2    ;  uncertainty k = 0.210499
        11        30        10        12     4      180.000000        4.425057         2    ;  uncertainty k = 0.210499
        12        11        13        31     4      180.000000        3.946077         2    ;  uncertainty k = 0.291841
        12        13        31        11     4      180.000000        3.946077         2    ;  uncertainty k = 0.291841
        12        31        11        13     4      180.000000        3.946077         2    ;  uncertainty k = 0.291841
        13        12        14        15     4      180.000000       10.873589         2    ;  uncertainty k = 0.166013
        13        14        15        12     4      180.000000       10.873589         2    ;  uncertainty k = 0.166013
        13        15        12        14     4      180.000000       10.873589         2    ;  uncertainty k = 0.166013
        15         9        13        32     4      180.000000        3.264593         2    ;  uncertainty k = 0.254224
        15        13        32         9     4      180.000000        3.264593         2    ;  uncertainty k = 0.254224
        15        32         9        13     4      180.000000        3.264593         2    ;  uncertainty k = 0.254224

[ pairs ]
;       ai        aj funct
         1         5     1
         1         7     1
         1        16     1
         1        22     1
         2         5     1
         2         9     1
         2        16     1
         2        23     1
         2        25     1
         2        26     1
         2        28     1
         3         6     1
         3         8     1
         3        17     1
         3        18     1
         3        19     1
         3        27     1
         3        34     1
         4         7     1
         4        20     1
         4        21     1
         4        22     1
         4        23     1
         4        25     1
         4        26     1
         4        28     1
         4        33     1
         5         8     1
         5        17     1
         5        18     1
         5        19     1
         6         9     1
         6        16     1
         6        22     1
         7        10     1
         7        15     1
         7        27     1
         8        11     1
         8        13     1
         8        22     1
         8        28     1
         8        29     1
         8        32     1
         9        12     1
         9        14     1
         9        30     1
        10        13     1
        10        31     1
        10        32     1
        11        14     1
        11        15     1
        12        24     1
        12        29     1
        12        32     1
        13        30     1
        14        31     1
        14        32     1
        15        24     1
        15        29     1
        15        31     1
        16        27     1
        17        20     1
        17        21     1
        17        33     1
        18        20     1
        18        21     1
        18        33     1
        25        34     1
        26        34     1
        27        28     1
        29        30     1
        30        31     1
