; ITP file created by ByteFF-joint-25, 2026-02-17 09:18:49.458624

[ atomtypes ]
;name           bonded.type        at.num        mass        charge   ptype           sigma         epsilon
 c0bf                                   6      0.0000       0.00000       A     3.39768e-01     4.50824e-01    ;  uncertainty sigma = 0.000009, epsilon = 0.000811
 c1bf                                   6      0.0000       0.00000       A     3.31471e-01     4.12188e-01    ;  uncertainty sigma = 0.000026, epsilon = 0.001655
 c2bf                                   6      0.0000       0.00000       A     3.31518e-01     4.12838e-01    ;  uncertainty sigma = 0.000023, epsilon = 0.001309
 c3bf                                   6      0.0000       0.00000       A     3.31494e-01     4.13480e-01    ;  uncertainty sigma = 0.000020, epsilon = 0.001160
 c4bf                                   6      0.0000       0.00000       A     3.31519e-01     4.13219e-01    ;  uncertainty sigma = 0.000004, epsilon = 0.000556
 c5bf                                   6      0.0000       0.00000       A     3.31511e-01     4.13448e-01    ;  uncertainty sigma = 0.000008, epsilon = 0.000571
 c6bf                                   6      0.0000       0.00000       A     3.31531e-01     4.13312e-01    ;  uncertainty sigma = 0.000006, epsilon = 0.001069
 o7bf                                   8      0.0000       0.00000       A     3.15586e-01     3.04182e-01    ;  uncertainty sigma = 0.000059, epsilon = 0.002640
 c8bf                                   6      0.0000       0.00000       A     3.31515e-01     4.13655e-01    ;  uncertainty sigma = 0.000010, epsilon = 0.000761
 c9bf                                   6      0.0000       0.00000       A     3.31516e-01     4.13683e-01    ;  uncertainty sigma = 0.000004, epsilon = 0.000819
 c10bf                                  6      0.0000       0.00000       A     3.31508e-01     4.13333e-01    ;  uncertainty sigma = 0.000007, epsilon = 0.000485
 c11bf                                  6      0.0000       0.00000       A     3.31534e-01     4.13575e-01    ;  uncertainty sigma = 0.000007, epsilon = 0.000519
 c12bf                                  6      0.0000       0.00000       A     3.31517e-01     4.13124e-01    ;  uncertainty sigma = 0.000007, epsilon = 0.000564
 cl13bf                                17      0.0000       0.00000       A     3.46589e-01     1.10398e+00    ;  uncertainty sigma = 0.000015, epsilon = 0.001735
 c14bf                                  6      0.0000       0.00000       A     3.31523e-01     4.13449e-01    ;  uncertainty sigma = 0.000004, epsilon = 0.000663
 s15bf                                 16      0.0000       0.00000       A     4.05810e-01     2.56381e-01    ;  uncertainty sigma = 0.000021, epsilon = 0.002426
 o16bf                                  8      0.0000       0.00000       A     3.04819e-01     6.11689e-01    ;  uncertainty sigma = 0.000021, epsilon = 0.001173
 c17bf                                  6      0.0000       0.00000       A     3.39780e-01     4.50622e-01    ;  uncertainty sigma = 0.000007, epsilon = 0.000962
 c18bf                                  6      0.0000       0.00000       A     3.47902e-01     6.67660e-01    ;  uncertainty sigma = 0.000037, epsilon = 0.000793
 n19bf                                  7      0.0000       0.00000       A     3.27347e-01     4.59585e-01    ;  uncertainty sigma = 0.000024, epsilon = 0.000990
 f20bf                                  9      0.0000       0.00000       A     3.03419e-01     3.47947e-01    ;  uncertainty sigma = 0.000007, epsilon = 0.000666
 o21bf                                  8      0.0000       0.00000       A     3.04819e-01     6.11689e-01    ;  uncertainty sigma = 0.000021, epsilon = 0.001173
 h22bf                                  1      0.0000       0.00000       A     2.60028e-01     8.67402e-02    ;  uncertainty sigma = 0.000006, epsilon = 0.000502
 h23bf                                  1      0.0000       0.00000       A     2.60028e-01     8.67402e-02    ;  uncertainty sigma = 0.000006, epsilon = 0.000502
 h24bf                                  1      0.0000       0.00000       A     2.60028e-01     8.67402e-02    ;  uncertainty sigma = 0.000006, epsilon = 0.000502
 h25bf                                  1      0.0000       0.00000       A     2.62576e-01     6.73276e-02    ;  uncertainty sigma = 0.000017, epsilon = 0.000654
 h26bf                                  1      0.0000       0.00000       A     2.62556e-01     6.70922e-02    ;  uncertainty sigma = 0.000006, epsilon = 0.000392
 h27bf                                  1      0.0000       0.00000       A     2.62552e-01     6.72490e-02    ;  uncertainty sigma = 0.000007, epsilon = 0.000350
 h28bf                                  1      0.0000       0.00000       A     2.62576e-01     6.72706e-02    ;  uncertainty sigma = 0.000009, epsilon = 0.000517
 h29bf                                  1      0.0000       0.00000       A     2.62563e-01     6.72159e-02    ;  uncertainty sigma = 0.000003, epsilon = 0.000466
 h30bf                                  1      0.0000       0.00000       A     2.42167e-01     8.68276e-02    ;  uncertainty sigma = 0.000012, epsilon = 0.000620
 h31bf                                  1      0.0000       0.00000       A     2.42167e-01     8.68276e-02    ;  uncertainty sigma = 0.000012, epsilon = 0.000620
 h32bf                                  1      0.0000       0.00000       A     2.42167e-01     8.68276e-02    ;  uncertainty sigma = 0.000012, epsilon = 0.000620

[ moleculetype ]
;name             nrexcl
 MOL                   3

[ atoms ]
;       nr            type      resi   res      atom      cgnr      charge          mass ; qtot
         1            c0bf         1   UNL        c0         1    -0.07790       12.0110 ; qtot   -0.078
         2            c1bf         1   UNL        c1         2    -0.06010       12.0110 ; qtot   -0.138
         3            c2bf         1   UNL        c2         3     0.09224       12.0110 ; qtot   -0.046
         4            c3bf         1   UNL        c3         4    -0.25608       12.0110 ; qtot   -0.302
         5            c4bf         1   UNL        c4         5    -0.00534       12.0110 ; qtot   -0.307
         6            c5bf         1   UNL        c5         6    -0.18281       12.0110 ; qtot   -0.490
         7            c6bf         1   UNL        c6         7     0.19922       12.0110 ; qtot   -0.291
         8            o7bf         1   UNL        o7         8    -0.23793       15.9990 ; qtot   -0.529
         9            c8bf         1   UNL        c8         9     0.15978       12.0110 ; qtot   -0.369
        10            c9bf         1   UNL        c9        10    -0.20553       12.0110 ; qtot   -0.574
        11           c10bf         1   UNL       c10        11     0.16392       12.0110 ; qtot   -0.411
        12           c11bf         1   UNL       c11        12    -0.17850       12.0110 ; qtot   -0.589
        13           c12bf         1   UNL       c12        13     0.07882       12.0110 ; qtot   -0.510
        14          cl13bf         1   UNL      cl13        14    -0.09983       35.4530 ; qtot   -0.610
        15           c14bf         1   UNL       c14        15    -0.17204       12.0110 ; qtot   -0.782
        16           s15bf         1   UNL       s15        16     1.01800       32.0670 ; qtot    0.236
        17           o16bf         1   UNL       o16        17    -0.58272       15.9990 ; qtot   -0.347
        18           c17bf         1   UNL       c17        18    -0.18832       12.0110 ; qtot   -0.535
        19           c18bf         1   UNL       c18        19     0.24145       12.0110 ; qtot   -0.294
        20           n19bf         1   UNL       n19        20    -0.35842       14.0070 ; qtot   -0.652
        21           f20bf         1   UNL       f20        21    -0.13588       18.9980 ; qtot   -0.788
        22           o21bf         1   UNL       o21        22    -0.58272       15.9990 ; qtot   -1.371
        23           h22bf         1   UNL       h22        23     0.07431        1.0080 ; qtot   -1.296
        24           h23bf         1   UNL       h23        24     0.07431        1.0080 ; qtot   -1.222
        25           h24bf         1   UNL       h24        25     0.07431        1.0080 ; qtot   -1.148
        26           h25bf         1   UNL       h25        26     0.16156        1.0080 ; qtot   -0.986
        27           h26bf         1   UNL       h26        27     0.16570        1.0080 ; qtot   -0.820
        28           h27bf         1   UNL       h27        28     0.17158        1.0080 ; qtot   -0.649
        29           h28bf         1   UNL       h28        29     0.17092        1.0080 ; qtot   -0.478
        30           h29bf         1   UNL       h29        30     0.16950        1.0080 ; qtot   -0.308
        31           h30bf         1   UNL       h30        31     0.10283        1.0080 ; qtot   -0.206
        32           h31bf         1   UNL       h31        32     0.10283        1.0080 ; qtot   -0.103
        33           h32bf         1   UNL       h32        33     0.10284        1.0080 ; qtot    0.000

[ bonds ]
;       ai        aj funct               r               k
         1         3     1        0.150622   228176.830273    ;  uncertainty r = 0.000044, k = 10.731076
         1        23     1        0.109300   310407.650391    ;  uncertainty r = 0.000037, k = 2.522952
         1        24     1        0.109300   310407.650391    ;  uncertainty r = 0.000037, k = 2.522952
         1        25     1        0.109300   310407.650391    ;  uncertainty r = 0.000037, k = 2.522952
         2         3     1        0.140661   332575.623389    ;  uncertainty r = 0.000191, k = 11.495728
         2         7     1        0.140659   328762.600977    ;  uncertainty r = 0.000153, k = 9.729588
         2        19     1        0.143393   320355.197217    ;  uncertainty r = 0.000046, k = 11.241417
         3         4     1        0.140103   326439.771045    ;  uncertainty r = 0.000080, k = 15.031885
         4         5     1        0.139450   345089.036816    ;  uncertainty r = 0.000057, k = 1.843352
         4        16     1        0.180798   142248.185645    ;  uncertainty r = 0.000145, k = 14.061135
         5         6     1        0.138714   370688.456738    ;  uncertainty r = 0.000090, k = 3.764560
         5        26     1        0.108480   328351.402441    ;  uncertainty r = 0.000035, k = 1.977807
         6         7     1        0.139126   356605.430420    ;  uncertainty r = 0.000050, k = 4.540861
         6        27     1        0.108732   335614.156348    ;  uncertainty r = 0.000043, k = 1.392564
         7         8     1        0.137578   319155.974561    ;  uncertainty r = 0.000120, k = 16.535334
         8         9     1        0.138350   316249.366309    ;  uncertainty r = 0.000074, k = 6.469286
         9        10     1        0.139528   361261.279590    ;  uncertainty r = 0.000034, k = 2.901399
         9        15     1        0.139500   357193.626660    ;  uncertainty r = 0.000019, k = 1.937531
        10        11     1        0.138903   362933.270752    ;  uncertainty r = 0.000022, k = 2.327830
        10        28     1        0.108796   339585.253467    ;  uncertainty r = 0.000020, k = 1.174450
        11        12     1        0.139015   361949.300391    ;  uncertainty r = 0.000049, k = 3.307020
        11        21     1        0.135256   340052.735791    ;  uncertainty r = 0.000049, k = 2.087966
        12        13     1        0.139473   365943.585205    ;  uncertainty r = 0.000030, k = 2.878139
        12        29     1        0.108675   338128.974268    ;  uncertainty r = 0.000014, k = 0.350222
        13        14     1        0.175206   198763.315381    ;  uncertainty r = 0.000067, k = 1.577622
        13        15     1        0.139323   360643.153857    ;  uncertainty r = 0.000043, k = 3.846580
        15        30     1        0.108726   338068.706689    ;  uncertainty r = 0.000011, k = 1.356540
        16        17     1        0.147609   518167.663867    ;  uncertainty r = 0.000057, k = 2.552051
        16        18     1        0.181453   178916.027197    ;  uncertainty r = 0.000041, k = 15.499850
        16        22     1        0.147609   518167.663867    ;  uncertainty r = 0.000057, k = 2.552130
        18        31     1        0.109290   321381.942236    ;  uncertainty r = 0.000026, k = 1.641628
        18        32     1        0.109290   321381.942236    ;  uncertainty r = 0.000026, k = 1.641628
        18        33     1        0.109290   321381.967773    ;  uncertainty r = 0.000026, k = 1.641627
        19        20     1        0.116644  1122936.262305    ;  uncertainty r = 0.000040, k = 2.944390

[ angles ]
;       ai        aj        ak funct           theta             cth
         1         3         2     1      117.297226      400.079359    ;  uncertainty theta = 0.004505, k = 0.408668
         1         3         4     1      119.345627      385.173922    ;  uncertainty theta = 0.004748, k = 0.206479
         2         3         4     1      122.205833      435.041513    ;  uncertainty theta = 0.006741, k = 0.124965
         2         7         6     1      122.451500      383.193264    ;  uncertainty theta = 0.005127, k = 0.161543
         2         7         8     1      115.438400      423.715166    ;  uncertainty theta = 0.006744, k = 0.114228
         2        19        20     1      180.000000      224.427778    ;  uncertainty theta = 0.000000, k = 0.634360
         3         1        23     1      108.968552      397.273341    ;  uncertainty theta = 0.001054, k = 0.050828
         3         1        24     1      108.968552      397.273341    ;  uncertainty theta = 0.001054, k = 0.050828
         3         1        25     1      108.968552      397.273341    ;  uncertainty theta = 0.001054, k = 0.050828
         3         2         7     1      125.143814      448.206467    ;  uncertainty theta = 0.009953, k = 0.172766
         3         2        19     1      115.882729      365.332865    ;  uncertainty theta = 0.005250, k = 0.257835
         3         4         5     1      125.464989      451.549147    ;  uncertainty theta = 0.007667, k = 0.071463
         3         4        16     1      115.016342      342.759114    ;  uncertainty theta = 0.006161, k = 0.256505
         4         5         6     1      120.993225      494.299609    ;  uncertainty theta = 0.003444, k = 0.092036
         4         5        26     1      118.419205      257.105016    ;  uncertainty theta = 0.002951, k = 0.146707
         4        16        17     1      112.663620      594.306377    ;  uncertainty theta = 0.002750, k = 0.193327
         4        16        18     1      104.721268      602.220838    ;  uncertainty theta = 0.002599, k = 0.066033
         4        16        22     1      112.663620      594.306377    ;  uncertainty theta = 0.002750, k = 0.193328
         5         4        16     1      114.881432      369.008358    ;  uncertainty theta = 0.009137, k = 0.308391
         5         6         7     1      118.796951      513.388662    ;  uncertainty theta = 0.002620, k = 0.065437
         5         6        27     1      120.929848      278.510620    ;  uncertainty theta = 0.001916, k = 0.055658
         6         5        26     1      120.176590      278.594605    ;  uncertainty theta = 0.002464, k = 0.037189
         6         7         8     1      120.395081      425.461936    ;  uncertainty theta = 0.005519, k = 0.083390
         7         2        19     1      117.692787      392.699006    ;  uncertainty theta = 0.004138, k = 0.239061
         7         6        27     1      119.997925      274.344719    ;  uncertainty theta = 0.002103, k = 0.054809
         7         8         9     1      112.669907      450.492996    ;  uncertainty theta = 0.002177, k = 0.105721
         8         9        10     1      118.520630      416.097223    ;  uncertainty theta = 0.005317, k = 0.041400
         8         9        15     1      118.534752      412.799744    ;  uncertainty theta = 0.004401, k = 0.035467
         9        10        11     1      116.721596      503.906861    ;  uncertainty theta = 0.002689, k = 0.149363
         9        10        28     1      121.896423      272.907363    ;  uncertainty theta = 0.002525, k = 0.084252
         9        15        13     1      117.207092      514.355178    ;  uncertainty theta = 0.000927, k = 0.103129
         9        15        30     1      121.266037      274.917772    ;  uncertainty theta = 0.002120, k = 0.067648
        10         9        15     1      122.516479      385.043428    ;  uncertainty theta = 0.004279, k = 0.155803
        10        11        12     1      123.806297      364.500419    ;  uncertainty theta = 0.004306, k = 0.146256
        10        11        21     1      118.451439      494.877003    ;  uncertainty theta = 0.001652, k = 0.037194
        11        10        28     1      121.721214      284.045756    ;  uncertainty theta = 0.002101, k = 0.037191
        11        12        13     1      115.803238      478.705054    ;  uncertainty theta = 0.001376, k = 0.113134
        11        12        29     1      121.638588      280.640095    ;  uncertainty theta = 0.002111, k = 0.042509
        12        11        21     1      118.552078      502.703680    ;  uncertainty theta = 0.002488, k = 0.039641
        12        13        14     1      120.101097      446.309443    ;  uncertainty theta = 0.001191, k = 0.064103
        12        13        15     1      122.655418      367.353457    ;  uncertainty theta = 0.001241, k = 0.091485
        13        12        29     1      122.502640      281.974441    ;  uncertainty theta = 0.001614, k = 0.034256
        13        15        30     1      121.894081      287.924141    ;  uncertainty theta = 0.001267, k = 0.028231
        14        13        15     1      120.061806      441.218429    ;  uncertainty theta = 0.001566, k = 0.104726
        16        18        31     1      107.372314      364.926155    ;  uncertainty theta = 0.001280, k = 0.030261
        16        18        32     1      107.372314      364.926155    ;  uncertainty theta = 0.001280, k = 0.030261
        16        18        33     1      107.372314      364.926155    ;  uncertainty theta = 0.001280, k = 0.030261
        17        16        18     1      112.315964      742.146704    ;  uncertainty theta = 0.000937, k = 0.061960
        17        16        22     1      123.343529      835.407908    ;  uncertainty theta = 0.001257, k = 0.079147
        18        16        22     1      112.315964      742.146704    ;  uncertainty theta = 0.000937, k = 0.061960
        23         1        24     1      106.774216      317.750144    ;  uncertainty theta = 0.001219, k = 0.041675
        23         1        25     1      106.774216      317.750144    ;  uncertainty theta = 0.001219, k = 0.041675
        24         1        25     1      106.774216      317.750144    ;  uncertainty theta = 0.001219, k = 0.041675
        31        18        32     1      108.785423      296.155964    ;  uncertainty theta = 0.002207, k = 0.017067
        31        18        33     1      108.785423      296.155964    ;  uncertainty theta = 0.002207, k = 0.017067
        32        18        33     1      108.785423      296.155964    ;  uncertainty theta = 0.002207, k = 0.017067

[ dihedrals ] ; propers for gromacs 4.5 or higher, use funct 9
;       ai        aj        ak        al funct           phase               k        pn
         1         3         2         7     9        0.000000       -0.178637         1    ;  uncertainty k = 0.456444
         1         3         2         7     9      180.000000        8.531192         2    ;  uncertainty k = 0.360669
         1         3         2         7     9        0.000000        1.233661         3    ;  uncertainty k = 0.218442
         1         3         2         7     9      180.000000        1.594299         4    ;  uncertainty k = 0.219274
         1         3         2        19     9        0.000000       -0.374756         1    ;  uncertainty k = 0.261776
         1         3         2        19     9      180.000000       11.212103         2    ;  uncertainty k = 0.544613
         1         3         2        19     9        0.000000        0.738013         3    ;  uncertainty k = 0.398372
         1         3         2        19     9      180.000000        1.159062         4    ;  uncertainty k = 0.192332
         1         3         4         5     9        0.000000       -0.093828         1    ;  uncertainty k = 0.282778
         1         3         4         5     9      180.000000        8.426391         2    ;  uncertainty k = 0.261419
         1         3         4         5     9        0.000000        1.157426         3    ;  uncertainty k = 0.321849
         1         3         4         5     9      180.000000        1.520435         4    ;  uncertainty k = 0.151748
         1         3         4        16     9        0.000000       -0.518798         1    ;  uncertainty k = 0.788991
         1         3         4        16     9      180.000000        9.186809         2    ;  uncertainty k = 0.314429
         1         3         4        16     9        0.000000        1.020957         3    ;  uncertainty k = 0.209749
         1         3         4        16     9      180.000000        1.355536         4    ;  uncertainty k = 0.187776
         2         3         1        23     9        0.000000        0.036949         1    ;  uncertainty k = 0.549620
         2         3         1        23     9      180.000000        3.437479         2    ;  uncertainty k = 0.292460
         2         3         1        23     9        0.000000        0.336741         3    ;  uncertainty k = 0.082615
         2         3         1        23     9      180.000000        0.396889         4    ;  uncertainty k = 0.104343
         2         3         1        24     9        0.000000        0.036949         1    ;  uncertainty k = 0.549620
         2         3         1        24     9      180.000000        3.437479         2    ;  uncertainty k = 0.292460
         2         3         1        24     9        0.000000        0.336741         3    ;  uncertainty k = 0.082615
         2         3         1        24     9      180.000000        0.396889         4    ;  uncertainty k = 0.104343
         2         3         1        25     9        0.000000        0.036949         1    ;  uncertainty k = 0.549620
         2         3         1        25     9      180.000000        3.437479         2    ;  uncertainty k = 0.292460
         2         3         1        25     9        0.000000        0.336741         3    ;  uncertainty k = 0.082615
         2         3         1        25     9      180.000000        0.396889         4    ;  uncertainty k = 0.104343
         2         3         4         5     9        0.000000       -0.073737         1    ;  uncertainty k = 0.262296
         2         3         4         5     9      180.000000        7.518511         2    ;  uncertainty k = 0.702950
         2         3         4         5     9        0.000000        0.662609         3    ;  uncertainty k = 0.159901
         2         3         4         5     9      180.000000        1.325118         4    ;  uncertainty k = 0.241462
         2         3         4        16     9        0.000000        0.549259         1    ;  uncertainty k = 0.938052
         2         3         4        16     9      180.000000        8.611060         2    ;  uncertainty k = 0.499202
         2         3         4        16     9        0.000000        1.517882         3    ;  uncertainty k = 0.351105
         2         3         4        16     9      180.000000        1.728773         4    ;  uncertainty k = 0.123427
         2         7         6         5     9        0.000000        0.200557         1    ;  uncertainty k = 0.476944
         2         7         6         5     9      180.000000        8.503861         2    ;  uncertainty k = 0.443626
         2         7         6         5     9        0.000000        0.438293         3    ;  uncertainty k = 0.247369
         2         7         6         5     9      180.000000        1.385375         4    ;  uncertainty k = 0.277867
         2         7         6        27     9        0.000000        0.151668         1    ;  uncertainty k = 0.508779
         2         7         6        27     9      180.000000        6.497969         2    ;  uncertainty k = 0.632458
         2         7         6        27     9        0.000000        1.354962         3    ;  uncertainty k = 0.377172
         2         7         6        27     9      180.000000        1.559298         4    ;  uncertainty k = 0.195141
         2         7         8         9     9        0.000000        2.325731         1    ;  uncertainty k = 0.766554
         2         7         8         9     9      180.000000        7.437390         2    ;  uncertainty k = 0.234817
         2         7         8         9     9        0.000000       -0.064563         3    ;  uncertainty k = 0.273899
         2         7         8         9     9      180.000000        0.193155         4    ;  uncertainty k = 0.105996
         3         2         7         6     9        0.000000       -0.387817         1    ;  uncertainty k = 0.686742
         3         2         7         6     9      180.000000        5.550930         2    ;  uncertainty k = 1.021190
         3         2         7         6     9        0.000000        0.585419         3    ;  uncertainty k = 0.511369
         3         2         7         6     9      180.000000        1.342172         4    ;  uncertainty k = 0.301603
         3         2         7         8     9        0.000000        0.200813         1    ;  uncertainty k = 0.267377
         3         2         7         8     9      180.000000        8.698012         2    ;  uncertainty k = 0.491200
         3         2         7         8     9        0.000000        1.318735         3    ;  uncertainty k = 0.309203
         3         2         7         8     9      180.000000        1.686240         4    ;  uncertainty k = 0.135289
         3         2        19        20     9        0.000000        0.000000         1    ;  uncertainty k = 0.000000
         3         2        19        20     9      180.000000        0.000000         2    ;  uncertainty k = 0.000000
         3         2        19        20     9        0.000000        0.000000         3    ;  uncertainty k = 0.000000
         3         2        19        20     9      180.000000        0.000000         4    ;  uncertainty k = 0.000000
         3         4         5         6     9        0.000000        0.084059         1    ;  uncertainty k = 0.204102
         3         4         5         6     9      180.000000        9.604598         2    ;  uncertainty k = 0.374342
         3         4         5         6     9        0.000000       -0.162692         3    ;  uncertainty k = 0.436837
         3         4         5         6     9      180.000000        1.080534         4    ;  uncertainty k = 0.299016
         3         4         5        26     9        0.000000       -0.138409         1    ;  uncertainty k = 0.128273
         3         4         5        26     9      180.000000        6.529236         2    ;  uncertainty k = 0.603687
         3         4         5        26     9        0.000000        1.163302         3    ;  uncertainty k = 0.410878
         3         4         5        26     9      180.000000        1.554676         4    ;  uncertainty k = 0.065364
         3         4        16        17     9        0.000000       -0.809597         1    ;  uncertainty k = 0.963924
         3         4        16        17     9      180.000000        0.626493         2    ;  uncertainty k = 0.422315
         3         4        16        17     9        0.000000        1.048717         3    ;  uncertainty k = 0.244006
         3         4        16        17     9      180.000000       -0.033103         4    ;  uncertainty k = 0.143442
         3         4        16        18     9        0.000000        0.722035         1    ;  uncertainty k = 1.591117
         3         4        16        18     9      180.000000        0.138583         2    ;  uncertainty k = 0.275455
         3         4        16        18     9        0.000000        0.480242         3    ;  uncertainty k = 0.432670
         3         4        16        18     9      180.000000        0.479249         4    ;  uncertainty k = 0.140364
         3         4        16        22     9        0.000000       -0.809599         1    ;  uncertainty k = 0.963924
         3         4        16        22     9      180.000000        0.626494         2    ;  uncertainty k = 0.422314
         3         4        16        22     9        0.000000        1.048717         3    ;  uncertainty k = 0.244006
         3         4        16        22     9      180.000000       -0.033104         4    ;  uncertainty k = 0.143442
         4         3         1        23     9        0.000000        0.209183         1    ;  uncertainty k = 0.462542
         4         3         1        23     9      180.000000        3.285919         2    ;  uncertainty k = 0.312687
         4         3         1        23     9        0.000000        0.279445         3    ;  uncertainty k = 0.134385
         4         3         1        23     9      180.000000        0.344451         4    ;  uncertainty k = 0.114290
         4         3         1        24     9        0.000000        0.209183         1    ;  uncertainty k = 0.462542
         4         3         1        24     9      180.000000        3.285919         2    ;  uncertainty k = 0.312687
         4         3         1        24     9        0.000000        0.279445         3    ;  uncertainty k = 0.134385
         4         3         1        24     9      180.000000        0.344451         4    ;  uncertainty k = 0.114290
         4         3         1        25     9        0.000000        0.209183         1    ;  uncertainty k = 0.462542
         4         3         1        25     9      180.000000        3.285919         2    ;  uncertainty k = 0.312687
         4         3         1        25     9        0.000000        0.279445         3    ;  uncertainty k = 0.134385
         4         3         1        25     9      180.000000        0.344451         4    ;  uncertainty k = 0.114290
         4         3         2         7     9        0.000000        0.304422         1    ;  uncertainty k = 0.668669
         4         3         2         7     9      180.000000        7.179967         2    ;  uncertainty k = 0.877781
         4         3         2         7     9        0.000000        0.817986         3    ;  uncertainty k = 0.293036
         4         3         2         7     9      180.000000        1.317330         4    ;  uncertainty k = 0.382757
         4         3         2        19     9        0.000000        0.317758         1    ;  uncertainty k = 0.256723
         4         3         2        19     9      180.000000       11.014796         2    ;  uncertainty k = 0.389672
         4         3         2        19     9        0.000000        1.203245         3    ;  uncertainty k = 0.254496
         4         3         2        19     9      180.000000        1.370097         4    ;  uncertainty k = 0.158430
         4         5         6         7     9        0.000000        0.012652         1    ;  uncertainty k = 0.290551
         4         5         6         7     9      180.000000       12.185976         2    ;  uncertainty k = 0.401044
         4         5         6         7     9        0.000000       -0.722458         3    ;  uncertainty k = 0.548828
         4         5         6         7     9      180.000000        0.941661         4    ;  uncertainty k = 0.413826
         4         5         6        27     9        0.000000       -0.045346         1    ;  uncertainty k = 0.532118
         4         5         6        27     9      180.000000        8.062358         2    ;  uncertainty k = 0.356231
         4         5         6        27     9        0.000000        1.125877         3    ;  uncertainty k = 0.256752
         4         5         6        27     9      180.000000        1.743490         4    ;  uncertainty k = 0.145538
         4        16        18        31     9        0.000000        2.298532         1    ;  uncertainty k = 0.537813
         4        16        18        31     9      180.000000       -2.736511         2    ;  uncertainty k = 0.611113
         4        16        18        31     9        0.000000        0.146094         3    ;  uncertainty k = 0.061312
         4        16        18        31     9      180.000000       -0.020529         4    ;  uncertainty k = 0.127940
         4        16        18        32     9        0.000000        2.298532         1    ;  uncertainty k = 0.537813
         4        16        18        32     9      180.000000       -2.736511         2    ;  uncertainty k = 0.611113
         4        16        18        32     9        0.000000        0.146094         3    ;  uncertainty k = 0.061312
         4        16        18        32     9      180.000000       -0.020529         4    ;  uncertainty k = 0.127940
         4        16        18        33     9        0.000000        2.298532         1    ;  uncertainty k = 0.537813
         4        16        18        33     9      180.000000       -2.736511         2    ;  uncertainty k = 0.611113
         4        16        18        33     9        0.000000        0.146094         3    ;  uncertainty k = 0.061312
         4        16        18        33     9      180.000000       -0.020529         4    ;  uncertainty k = 0.127940
         5         4        16        17     9        0.000000       -1.589688         1    ;  uncertainty k = 0.745642
         5         4        16        17     9      180.000000        0.938668         2    ;  uncertainty k = 0.456640
         5         4        16        17     9        0.000000        0.299630         3    ;  uncertainty k = 0.248904
         5         4        16        17     9      180.000000       -0.014392         4    ;  uncertainty k = 0.137918
         5         4        16        18     9        0.000000        1.408756         1    ;  uncertainty k = 1.241060
         5         4        16        18     9      180.000000        0.070325         2    ;  uncertainty k = 0.428355
         5         4        16        18     9        0.000000        0.034112         3    ;  uncertainty k = 0.431074
         5         4        16        18     9      180.000000        0.504082         4    ;  uncertainty k = 0.173725
         5         4        16        22     9        0.000000       -1.589687         1    ;  uncertainty k = 0.745645
         5         4        16        22     9      180.000000        0.938671         2    ;  uncertainty k = 0.456642
         5         4        16        22     9        0.000000        0.299629         3    ;  uncertainty k = 0.248904
         5         4        16        22     9      180.000000       -0.014393         4    ;  uncertainty k = 0.137919
         5         6         7         8     9        0.000000       -0.120174         1    ;  uncertainty k = 0.143809
         5         6         7         8     9      180.000000       10.682566         2    ;  uncertainty k = 0.339734
         5         6         7         8     9        0.000000        1.391134         3    ;  uncertainty k = 0.177494
         5         6         7         8     9      180.000000        1.711252         4    ;  uncertainty k = 0.188240
         6         5         4        16     9        0.000000        0.436165         1    ;  uncertainty k = 0.237607
         6         5         4        16     9      180.000000        9.369525         2    ;  uncertainty k = 0.559884
         6         5         4        16     9        0.000000        1.367630         3    ;  uncertainty k = 0.258682
         6         5         4        16     9      180.000000        1.790398         4    ;  uncertainty k = 0.197871
         6         7         2        19     9        0.000000        0.106616         1    ;  uncertainty k = 0.303896
         6         7         2        19     9      180.000000        8.839568         2    ;  uncertainty k = 0.319215
         6         7         2        19     9        0.000000        1.212935         3    ;  uncertainty k = 0.283872
         6         7         2        19     9      180.000000        1.517480         4    ;  uncertainty k = 0.209580
         6         7         8         9     9        0.000000        5.692925         1    ;  uncertainty k = 0.608078
         6         7         8         9     9      180.000000        6.745413         2    ;  uncertainty k = 0.258748
         6         7         8         9     9        0.000000        0.325195         3    ;  uncertainty k = 0.227058
         6         7         8         9     9      180.000000        0.184323         4    ;  uncertainty k = 0.124962
         7         2        19        20     9        0.000000        0.000000         1    ;  uncertainty k = 0.000000
         7         2        19        20     9      180.000000        0.000000         2    ;  uncertainty k = 0.000000
         7         2        19        20     9        0.000000        0.000000         3    ;  uncertainty k = 0.000000
         7         2        19        20     9      180.000000        0.000000         4    ;  uncertainty k = 0.000000
         7         6         5        26     9        0.000000       -0.038910         1    ;  uncertainty k = 0.223164
         7         6         5        26     9      180.000000        7.894573         2    ;  uncertainty k = 0.315576
         7         6         5        26     9        0.000000        1.121529         3    ;  uncertainty k = 0.206022
         7         6         5        26     9      180.000000        1.663264         4    ;  uncertainty k = 0.122837
         7         8         9        10     9        0.000000        4.156251         1    ;  uncertainty k = 0.304400
         7         8         9        10     9      180.000000        4.854365         2    ;  uncertainty k = 0.251089
         7         8         9        10     9        0.000000        0.492336         3    ;  uncertainty k = 0.178407
         7         8         9        10     9      180.000000        0.169881         4    ;  uncertainty k = 0.047222
         7         8         9        15     9        0.000000        4.025899         1    ;  uncertainty k = 0.302801
         7         8         9        15     9      180.000000        4.831395         2    ;  uncertainty k = 0.220269
         7         8         9        15     9        0.000000        0.504869         3    ;  uncertainty k = 0.172408
         7         8         9        15     9      180.000000        0.166704         4    ;  uncertainty k = 0.046109
         8         7         2        19     9        0.000000       -0.283441         1    ;  uncertainty k = 0.977102
         8         7         2        19     9      180.000000       11.724233         2    ;  uncertainty k = 0.366872
         8         7         2        19     9        0.000000        0.908300         3    ;  uncertainty k = 0.235640
         8         7         2        19     9      180.000000        1.241080         4    ;  uncertainty k = 0.268988
         8         7         6        27     9        0.000000       -0.026408         1    ;  uncertainty k = 0.261759
         8         7         6        27     9      180.000000        8.840910         2    ;  uncertainty k = 0.443687
         8         7         6        27     9        0.000000        0.768753         3    ;  uncertainty k = 0.239851
         8         7         6        27     9      180.000000        1.164448         4    ;  uncertainty k = 0.172111
         8         9        10        11     9        0.000000        0.056238         1    ;  uncertainty k = 0.276216
         8         9        10        11     9      180.000000       10.559962         2    ;  uncertainty k = 0.261576
         8         9        10        11     9        0.000000        1.338551         3    ;  uncertainty k = 0.165106
         8         9        10        11     9      180.000000        1.616759         4    ;  uncertainty k = 0.105756
         8         9        10        28     9        0.000000       -0.106954         1    ;  uncertainty k = 0.075689
         8         9        10        28     9      180.000000        8.149579         2    ;  uncertainty k = 0.260987
         8         9        10        28     9        0.000000        0.824753         3    ;  uncertainty k = 0.228712
         8         9        10        28     9      180.000000        1.105617         4    ;  uncertainty k = 0.089816
         8         9        15        13     9        0.000000        0.053720         1    ;  uncertainty k = 0.235839
         8         9        15        13     9      180.000000       10.758640         2    ;  uncertainty k = 0.275106
         8         9        15        13     9        0.000000        1.317830         3    ;  uncertainty k = 0.096235
         8         9        15        13     9      180.000000        1.600157         4    ;  uncertainty k = 0.085873
         8         9        15        30     9        0.000000       -0.117175         1    ;  uncertainty k = 0.083076
         8         9        15        30     9      180.000000        8.290424         2    ;  uncertainty k = 0.297668
         8         9        15        30     9        0.000000        0.827501         3    ;  uncertainty k = 0.241956
         8         9        15        30     9      180.000000        1.127117         4    ;  uncertainty k = 0.094280
         9        10        11        12     9        0.000000       -0.072952         1    ;  uncertainty k = 0.194089
         9        10        11        12     9      180.000000        9.171957         2    ;  uncertainty k = 0.472785
         9        10        11        12     9        0.000000        0.005342         3    ;  uncertainty k = 0.505155
         9        10        11        12     9      180.000000        1.304440         4    ;  uncertainty k = 0.246736
         9        10        11        21     9        0.000000        0.034163         1    ;  uncertainty k = 0.064116
         9        10        11        21     9      180.000000       12.619132         2    ;  uncertainty k = 0.563969
         9        10        11        21     9        0.000000        1.495979         3    ;  uncertainty k = 0.351941
         9        10        11        21     9      180.000000        1.496737         4    ;  uncertainty k = 0.252379
         9        15        13        12     9        0.000000       -0.105475         1    ;  uncertainty k = 0.243520
         9        15        13        12     9      180.000000       10.231596         2    ;  uncertainty k = 0.355762
         9        15        13        12     9        0.000000       -0.051106         3    ;  uncertainty k = 0.507451
         9        15        13        12     9      180.000000        1.251987         4    ;  uncertainty k = 0.284642
         9        15        13        14     9        0.000000       -0.034223         1    ;  uncertainty k = 0.242189
         9        15        13        14     9      180.000000        9.411996         2    ;  uncertainty k = 0.567129
         9        15        13        14     9        0.000000        1.422566         3    ;  uncertainty k = 0.436705
         9        15        13        14     9      180.000000        1.662708         4    ;  uncertainty k = 0.167768
        10         9        15        13     9        0.000000       -0.021462         1    ;  uncertainty k = 0.058283
        10         9        15        13     9      180.000000        9.707310         2    ;  uncertainty k = 0.491059
        10         9        15        13     9        0.000000       -0.144169         3    ;  uncertainty k = 0.485591
        10         9        15        13     9      180.000000        1.197879         4    ;  uncertainty k = 0.249688
        10         9        15        30     9        0.000000        0.178410         1    ;  uncertainty k = 0.292057
        10         9        15        30     9      180.000000        6.023481         2    ;  uncertainty k = 0.729602
        10         9        15        30     9        0.000000        1.457610         3    ;  uncertainty k = 0.375998
        10         9        15        30     9      180.000000        1.615015         4    ;  uncertainty k = 0.183710
        10        11        12        13     9        0.000000        0.047486         1    ;  uncertainty k = 0.248760
        10        11        12        13     9      180.000000        9.416472         2    ;  uncertainty k = 0.526005
        10        11        12        13     9        0.000000       -0.239532         3    ;  uncertainty k = 0.531742
        10        11        12        13     9      180.000000        1.226113         4    ;  uncertainty k = 0.215921
        10        11        12        29     9        0.000000       -0.008574         1    ;  uncertainty k = 0.228759
        10        11        12        29     9      180.000000        5.767531         2    ;  uncertainty k = 0.692671
        10        11        12        29     9        0.000000        1.336882         3    ;  uncertainty k = 0.331722
        10        11        12        29     9      180.000000        1.519252         4    ;  uncertainty k = 0.146559
        11        10         9        15     9        0.000000       -0.047045         1    ;  uncertainty k = 0.149882
        11        10         9        15     9      180.000000        9.280148         2    ;  uncertainty k = 0.510079
        11        10         9        15     9        0.000000       -0.076704         3    ;  uncertainty k = 0.515150
        11        10         9        15     9      180.000000        1.248631         4    ;  uncertainty k = 0.282599
        11        12        13        14     9        0.000000       -0.120810         1    ;  uncertainty k = 0.217842
        11        12        13        14     9      180.000000        9.585633         2    ;  uncertainty k = 0.591761
        11        12        13        14     9        0.000000        1.435653         3    ;  uncertainty k = 0.460779
        11        12        13        14     9      180.000000        1.610631         4    ;  uncertainty k = 0.199813
        11        12        13        15     9        0.000000       -0.074759         1    ;  uncertainty k = 0.164619
        11        12        13        15     9      180.000000       10.120848         2    ;  uncertainty k = 0.321603
        11        12        13        15     9        0.000000       -0.232417         3    ;  uncertainty k = 0.526890
        11        12        13        15     9      180.000000        1.177551         4    ;  uncertainty k = 0.278640
        12        11        10        28     9        0.000000        0.097362         1    ;  uncertainty k = 0.138155
        12        11        10        28     9      180.000000        5.789141         2    ;  uncertainty k = 0.666333
        12        11        10        28     9        0.000000        1.373190         3    ;  uncertainty k = 0.344295
        12        11        10        28     9      180.000000        1.545921         4    ;  uncertainty k = 0.139384
        12        13        15        30     9        0.000000        0.070590         1    ;  uncertainty k = 0.269502
        12        13        15        30     9      180.000000        6.364456         2    ;  uncertainty k = 0.646991
        12        13        15        30     9        0.000000        1.459776         3    ;  uncertainty k = 0.395621
        12        13        15        30     9      180.000000        1.597906         4    ;  uncertainty k = 0.181675
        13        12        11        21     9        0.000000       -0.133658         1    ;  uncertainty k = 0.245809
        13        12        11        21     9      180.000000       13.025528         2    ;  uncertainty k = 0.672205
        13        12        11        21     9        0.000000        1.510910         3    ;  uncertainty k = 0.188872
        13        12        11        21     9      180.000000        1.466769         4    ;  uncertainty k = 0.282670
        14        13        12        29     9        0.000000       -0.190971         1    ;  uncertainty k = 0.157958
        14        13        12        29     9      180.000000        7.171864         2    ;  uncertainty k = 0.264032
        14        13        12        29     9        0.000000        0.606438         3    ;  uncertainty k = 0.410119
        14        13        12        29     9      180.000000        0.951445         4    ;  uncertainty k = 0.198495
        14        13        15        30     9        0.000000       -0.223833         1    ;  uncertainty k = 0.237150
        14        13        15        30     9      180.000000        7.290616         2    ;  uncertainty k = 0.395620
        14        13        15        30     9        0.000000        0.620961         3    ;  uncertainty k = 0.413847
        14        13        15        30     9      180.000000        0.978574         4    ;  uncertainty k = 0.215978
        15         9        10        28     9        0.000000        0.192080         1    ;  uncertainty k = 0.292405
        15         9        10        28     9      180.000000        5.954392         2    ;  uncertainty k = 0.758274
        15         9        10        28     9        0.000000        1.460884         3    ;  uncertainty k = 0.377855
        15         9        10        28     9      180.000000        1.568697         4    ;  uncertainty k = 0.165697
        15        13        12        29     9        0.000000        0.045113         1    ;  uncertainty k = 0.301275
        15        13        12        29     9      180.000000        6.321343         2    ;  uncertainty k = 0.669805
        15        13        12        29     9        0.000000        1.422732         3    ;  uncertainty k = 0.416345
        15        13        12        29     9      180.000000        1.507689         4    ;  uncertainty k = 0.200107
        16         4         5        26     9        0.000000       -0.415044         1    ;  uncertainty k = 0.609776
        16         4         5        26     9      180.000000        7.348991         2    ;  uncertainty k = 0.431994
        16         4         5        26     9        0.000000        0.720378         3    ;  uncertainty k = 0.203465
        16         4         5        26     9      180.000000        1.071343         4    ;  uncertainty k = 0.219981
        17        16        18        31     9        0.000000       -0.104880         1    ;  uncertainty k = 0.709636
        17        16        18        31     9      180.000000       -0.352673         2    ;  uncertainty k = 0.309214
        17        16        18        31     9        0.000000        0.831696         3    ;  uncertainty k = 0.035928
        17        16        18        31     9      180.000000        0.049859         4    ;  uncertainty k = 0.113557
        17        16        18        32     9        0.000000       -0.104880         1    ;  uncertainty k = 0.709636
        17        16        18        32     9      180.000000       -0.352673         2    ;  uncertainty k = 0.309214
        17        16        18        32     9        0.000000        0.831696         3    ;  uncertainty k = 0.035928
        17        16        18        32     9      180.000000        0.049859         4    ;  uncertainty k = 0.113557
        17        16        18        33     9        0.000000       -0.104880         1    ;  uncertainty k = 0.709636
        17        16        18        33     9      180.000000       -0.352673         2    ;  uncertainty k = 0.309214
        17        16        18        33     9        0.000000        0.831696         3    ;  uncertainty k = 0.035928
        17        16        18        33     9      180.000000        0.049859         4    ;  uncertainty k = 0.113557
        21        11        10        28     9        0.000000       -0.303893         1    ;  uncertainty k = 0.235298
        21        11        10        28     9      180.000000        8.730511         2    ;  uncertainty k = 0.332123
        21        11        10        28     9        0.000000        0.825030         3    ;  uncertainty k = 0.278075
        21        11        10        28     9      180.000000        1.031686         4    ;  uncertainty k = 0.191208
        21        11        12        29     9        0.000000       -0.316626         1    ;  uncertainty k = 0.211117
        21        11        12        29     9      180.000000        8.754317         2    ;  uncertainty k = 0.309942
        21        11        12        29     9        0.000000        0.803769         3    ;  uncertainty k = 0.290383
        21        11        12        29     9      180.000000        0.987725         4    ;  uncertainty k = 0.177351
        22        16        18        31     9        0.000000       -0.104881         1    ;  uncertainty k = 0.709636
        22        16        18        31     9      180.000000       -0.352673         2    ;  uncertainty k = 0.309213
        22        16        18        31     9        0.000000        0.831696         3    ;  uncertainty k = 0.035928
        22        16        18        31     9      180.000000        0.049859         4    ;  uncertainty k = 0.113556
        22        16        18        32     9        0.000000       -0.104881         1    ;  uncertainty k = 0.709636
        22        16        18        32     9      180.000000       -0.352673         2    ;  uncertainty k = 0.309213
        22        16        18        32     9        0.000000        0.831696         3    ;  uncertainty k = 0.035928
        22        16        18        32     9      180.000000        0.049859         4    ;  uncertainty k = 0.113556
        22        16        18        33     9        0.000000       -0.104881         1    ;  uncertainty k = 0.709636
        22        16        18        33     9      180.000000       -0.352673         2    ;  uncertainty k = 0.309213
        22        16        18        33     9        0.000000        0.831696         3    ;  uncertainty k = 0.035928
        22        16        18        33     9      180.000000        0.049859         4    ;  uncertainty k = 0.113556
        26         5         6        27     9        0.000000        0.039276         1    ;  uncertainty k = 0.315628
        26         5         6        27     9      180.000000        7.598652         2    ;  uncertainty k = 0.468156
        26         5         6        27     9        0.000000       -0.371516         3    ;  uncertainty k = 0.386751
        26         5         6        27     9      180.000000        0.244285         4    ;  uncertainty k = 0.141436

[ dihedrals ] ; impropers
;       ai        aj        ak        al funct           phase               k        pn
         2         3         7        19     4      180.000000        8.629387         2    ;  uncertainty k = 0.234642
         2         7        19         3     4      180.000000        8.629387         2    ;  uncertainty k = 0.234642
         2        19         3         7     4      180.000000        8.629387         2    ;  uncertainty k = 0.234642
         3         1         2         4     4      180.000000       17.377640         2    ;  uncertainty k = 0.121266
         3         2         4         1     4      180.000000       17.377640         2    ;  uncertainty k = 0.121266
         3         4         1         2     4      180.000000       17.377640         2    ;  uncertainty k = 0.121266
         4         3         5        16     4      180.000000        4.711010         2    ;  uncertainty k = 0.498571
         4         5        16         3     4      180.000000        4.711010         2    ;  uncertainty k = 0.498571
         4        16         3         5     4      180.000000        4.711010         2    ;  uncertainty k = 0.498571
         5         4         6        26     4      180.000000        5.786184         2    ;  uncertainty k = 0.165188
         5         6        26         4     4      180.000000        5.786184         2    ;  uncertainty k = 0.165188
         5        26         4         6     4      180.000000        5.786184         2    ;  uncertainty k = 0.165188
         6         5         7        27     4      180.000000        1.652786         2    ;  uncertainty k = 0.184526
         6         7        27         5     4      180.000000        1.652786         2    ;  uncertainty k = 0.184526
         6        27         5         7     4      180.000000        1.652786         2    ;  uncertainty k = 0.184526
         7         2         6         8     4      180.000000       19.634564         2    ;  uncertainty k = 0.121374
         7         6         8         2     4      180.000000       19.634564         2    ;  uncertainty k = 0.121374
         7         8         2         6     4      180.000000       19.634564         2    ;  uncertainty k = 0.121374
         9         8        10        15     4      180.000000       19.391463         2    ;  uncertainty k = 0.037367
         9        10        15         8     4      180.000000       19.391463         2    ;  uncertainty k = 0.037367
         9        15         8        10     4      180.000000       19.391463         2    ;  uncertainty k = 0.037367
        10         9        11        28     4      180.000000        1.292525         2    ;  uncertainty k = 0.210132
        10        11        28         9     4      180.000000        1.292525         2    ;  uncertainty k = 0.210132
        10        28         9        11     4      180.000000        1.292525         2    ;  uncertainty k = 0.210132
        11        10        12        21     4      180.000000       18.155448         2    ;  uncertainty k = 0.046061
        11        12        21        10     4      180.000000       18.155448         2    ;  uncertainty k = 0.046061
        11        21        10        12     4      180.000000       18.155448         2    ;  uncertainty k = 0.046061
        12        11        13        29     4      180.000000        1.443253         2    ;  uncertainty k = 0.472598
        12        13        29        11     4      180.000000        1.443253         2    ;  uncertainty k = 0.472598
        12        29        11        13     4      180.000000        1.443253         2    ;  uncertainty k = 0.472598
        13        12        14        15     4      180.000000       14.475914         2    ;  uncertainty k = 0.105171
        13        14        15        12     4      180.000000       14.475914         2    ;  uncertainty k = 0.105171
        13        15        12        14     4      180.000000       14.475914         2    ;  uncertainty k = 0.105171
        15         9        13        30     4      180.000000        1.662425         2    ;  uncertainty k = 0.503027
        15        13        30         9     4      180.000000        1.662425         2    ;  uncertainty k = 0.503027
        15        30         9        13     4      180.000000        1.662425         2    ;  uncertainty k = 0.503027

[ pairs ]
;       ai        aj funct
         1         5     1
         1         7     1
         1        16     1
         1        19     1
         2         5     1
         2         9     1
         2        16     1
         2        23     1
         2        24     1
         2        25     1
         2        27     1
         3         6     1
         3         8     1
         3        17     1
         3        18     1
         3        20     1
         3        22     1
         3        26     1
         4         7     1
         4        19     1
         4        23     1
         4        24     1
         4        25     1
         4        27     1
         4        31     1
         4        32     1
         4        33     1
         5         8     1
         5        17     1
         5        18     1
         5        22     1
         6         9     1
         6        16     1
         6        19     1
         7        10     1
         7        15     1
         7        20     1
         7        26     1
         8        11     1
         8        13     1
         8        19     1
         8        27     1
         8        28     1
         8        30     1
         9        12     1
         9        14     1
         9        21     1
        10        13     1
        10        29     1
        10        30     1
        11        14     1
        11        15     1
        12        28     1
        12        30     1
        13        21     1
        14        29     1
        14        30     1
        15        28     1
        15        29     1
        16        26     1
        17        31     1
        17        32     1
        17        33     1
        21        28     1
        21        29     1
        22        31     1
        22        32     1
        22        33     1
        26        27     1
