; ITP file created by ByteFF-joint-25, 2026-02-17 09:18:37.137175

[ atomtypes ]
;name           bonded.type        at.num        mass        charge   ptype           sigma         epsilon
 c0bf                                   6      0.0000       0.00000       A     3.39771e-01     4.49999e-01    ;  uncertainty sigma = 0.000008, epsilon = 0.001798
 c1bf                                   6      0.0000       0.00000       A     3.31494e-01     4.14064e-01    ;  uncertainty sigma = 0.000016, epsilon = 0.002103
 c2bf                                   6      0.0000       0.00000       A     3.31494e-01     4.13777e-01    ;  uncertainty sigma = 0.000024, epsilon = 0.002175
 c3bf                                   6      0.0000       0.00000       A     3.31463e-01     4.13217e-01    ;  uncertainty sigma = 0.000028, epsilon = 0.001380
 c4bf                                   6      0.0000       0.00000       A     3.31507e-01     4.13193e-01    ;  uncertainty sigma = 0.000008, epsilon = 0.000507
 c5bf                                   6      0.0000       0.00000       A     3.31521e-01     4.13364e-01    ;  uncertainty sigma = 0.000009, epsilon = 0.000634
 c6bf                                   6      0.0000       0.00000       A     3.31536e-01     4.13114e-01    ;  uncertainty sigma = 0.000009, epsilon = 0.001227
 o7bf                                   8      0.0000       0.00000       A     3.15608e-01     3.03839e-01    ;  uncertainty sigma = 0.000011, epsilon = 0.002086
 c8bf                                   6      0.0000       0.00000       A     3.31515e-01     4.13655e-01    ;  uncertainty sigma = 0.000010, epsilon = 0.000761
 c9bf                                   6      0.0000       0.00000       A     3.31516e-01     4.13683e-01    ;  uncertainty sigma = 0.000004, epsilon = 0.000819
 c10bf                                  6      0.0000       0.00000       A     3.31508e-01     4.13333e-01    ;  uncertainty sigma = 0.000007, epsilon = 0.000485
 c11bf                                  6      0.0000       0.00000       A     3.31534e-01     4.13575e-01    ;  uncertainty sigma = 0.000007, epsilon = 0.000519
 c12bf                                  6      0.0000       0.00000       A     3.31517e-01     4.13124e-01    ;  uncertainty sigma = 0.000007, epsilon = 0.000564
 cl13bf                                17      0.0000       0.00000       A     3.46589e-01     1.10398e+00    ;  uncertainty sigma = 0.000015, epsilon = 0.001735
 c14bf                                  6      0.0000       0.00000       A     3.31523e-01     4.13449e-01    ;  uncertainty sigma = 0.000004, epsilon = 0.000663
 s15bf                                 16      0.0000       0.00000       A     4.05841e-01     2.56038e-01    ;  uncertainty sigma = 0.000016, epsilon = 0.002109
 o16bf                                  8      0.0000       0.00000       A     3.04819e-01     6.11689e-01    ;  uncertainty sigma = 0.000021, epsilon = 0.001173
 c17bf                                  6      0.0000       0.00000       A     3.39780e-01     4.50622e-01    ;  uncertainty sigma = 0.000007, epsilon = 0.000962
 c18bf                                  6      0.0000       0.00000       A     3.39724e-01     4.50236e-01    ;  uncertainty sigma = 0.000023, epsilon = 0.000749
 f19bf                                  9      0.0000       0.00000       A     3.03419e-01     3.47947e-01    ;  uncertainty sigma = 0.000007, epsilon = 0.000666
 o20bf                                  8      0.0000       0.00000       A     3.04819e-01     6.11689e-01    ;  uncertainty sigma = 0.000021, epsilon = 0.001173
 o21bf                                  8      0.0000       0.00000       A     3.24281e-01     3.88432e-01    ;  uncertainty sigma = 0.000007, epsilon = 0.001510
 f22bf                                  9      0.0000       0.00000       A     3.03464e-01     3.48197e-01    ;  uncertainty sigma = 0.000018, epsilon = 0.000472
 f23bf                                  9      0.0000       0.00000       A     3.03464e-01     3.48197e-01    ;  uncertainty sigma = 0.000018, epsilon = 0.000472
 h24bf                                  1      0.0000       0.00000       A     2.42217e-01     8.70348e-02    ;  uncertainty sigma = 0.000044, epsilon = 0.000750
 h25bf                                  1      0.0000       0.00000       A     2.42217e-01     8.70348e-02    ;  uncertainty sigma = 0.000044, epsilon = 0.000750
 h26bf                                  1      0.0000       0.00000       A     2.62576e-01     6.73277e-02    ;  uncertainty sigma = 0.000017, epsilon = 0.000654
 h27bf                                  1      0.0000       0.00000       A     2.62556e-01     6.70922e-02    ;  uncertainty sigma = 0.000006, epsilon = 0.000392
 h28bf                                  1      0.0000       0.00000       A     2.62552e-01     6.72490e-02    ;  uncertainty sigma = 0.000007, epsilon = 0.000350
 h29bf                                  1      0.0000       0.00000       A     2.62576e-01     6.72706e-02    ;  uncertainty sigma = 0.000009, epsilon = 0.000517
 h30bf                                  1      0.0000       0.00000       A     2.62563e-01     6.72159e-02    ;  uncertainty sigma = 0.000003, epsilon = 0.000466
 h31bf                                  1      0.0000       0.00000       A     2.42167e-01     8.68276e-02    ;  uncertainty sigma = 0.000012, epsilon = 0.000620
 h32bf                                  1      0.0000       0.00000       A     2.42167e-01     8.68276e-02    ;  uncertainty sigma = 0.000012, epsilon = 0.000620
 h33bf                                  1      0.0000       0.00000       A     2.42167e-01     8.68276e-02    ;  uncertainty sigma = 0.000012, epsilon = 0.000620
 h34bf                                  1      0.0000       0.00000       A     2.24473e-01     8.74445e-02    ;  uncertainty sigma = 0.000221, epsilon = 0.000878
 h35bf                                  1      0.0000       0.00000       A     5.37902e-02     1.92605e-02    ;  uncertainty sigma = 0.000133, epsilon = 0.000842

[ moleculetype ]
;name             nrexcl
 MOL                   3

[ atoms ]
;       nr            type      resi   res      atom      cgnr      charge          mass ; qtot
         1            c0bf         1   UNL        c0         1     0.15900       12.0110 ; qtot    0.159
         2            c1bf         1   UNL        c1         2    -0.17566       12.0110 ; qtot   -0.017
         3            c2bf         1   UNL        c2         3     0.05913       12.0110 ; qtot    0.042
         4            c3bf         1   UNL        c3         4    -0.23418       12.0110 ; qtot   -0.192
         5            c4bf         1   UNL        c4         5    -0.02136       12.0110 ; qtot   -0.213
         6            c5bf         1   UNL        c5         6    -0.17103       12.0110 ; qtot   -0.384
         7            c6bf         1   UNL        c6         7     0.18364       12.0110 ; qtot   -0.200
         8            o7bf         1   UNL        o7         8    -0.24783       15.9990 ; qtot   -0.448
         9            c8bf         1   UNL        c8         9     0.16216       12.0110 ; qtot   -0.286
        10            c9bf         1   UNL        c9        10    -0.20553       12.0110 ; qtot   -0.492
        11           c10bf         1   UNL       c10        11     0.16392       12.0110 ; qtot   -0.328
        12           c11bf         1   UNL       c11        12    -0.17850       12.0110 ; qtot   -0.506
        13           c12bf         1   UNL       c12        13     0.07882       12.0110 ; qtot   -0.427
        14          cl13bf         1   UNL      cl13        14    -0.09983       35.4530 ; qtot   -0.527
        15           c14bf         1   UNL       c14        15    -0.17204       12.0110 ; qtot   -0.699
        16           s15bf         1   UNL       s15        16     1.01516       32.0670 ; qtot    0.316
        17           o16bf         1   UNL       o16        17    -0.58126       15.9990 ; qtot   -0.265
        18           c17bf         1   UNL       c17        18    -0.18626       12.0110 ; qtot   -0.452
        19           c18bf         1   UNL       c18        19     0.46718       12.0110 ; qtot    0.016
        20           f19bf         1   UNL       f19        20    -0.13588       18.9980 ; qtot   -0.120
        21           o20bf         1   UNL       o20        21    -0.58126       15.9990 ; qtot   -0.702
        22           o21bf         1   UNL       o21        22    -0.59230       15.9990 ; qtot   -1.294
        23           f22bf         1   UNL       f22        23    -0.23954       18.9980 ; qtot   -1.533
        24           f23bf         1   UNL       f23        24    -0.23954       18.9980 ; qtot   -1.773
        25           h24bf         1   UNL       h24        25     0.06647        1.0080 ; qtot   -1.707
        26           h25bf         1   UNL       h25        26     0.06647        1.0080 ; qtot   -1.640
        27           h26bf         1   UNL       h26        27     0.16378        1.0080 ; qtot   -1.476
        28           h27bf         1   UNL       h27        28     0.15998        1.0080 ; qtot   -1.316
        29           h28bf         1   UNL       h28        29     0.17158        1.0080 ; qtot   -1.145
        30           h29bf         1   UNL       h29        30     0.17092        1.0080 ; qtot   -0.974
        31           h30bf         1   UNL       h30        31     0.16950        1.0080 ; qtot   -0.804
        32           h31bf         1   UNL       h31        32     0.10283        1.0080 ; qtot   -0.701
        33           h32bf         1   UNL       h32        33     0.10283        1.0080 ; qtot   -0.599
        34           h33bf         1   UNL       h33        34     0.10283        1.0080 ; qtot   -0.496
        35           h34bf         1   UNL       h34        35     0.08665        1.0080 ; qtot   -0.409
        36           h35bf         1   UNL       h35        36     0.40915        1.0080 ; qtot    0.000

[ bonds ]
;       ai        aj funct               r               k
         1         3     1        0.151592   220918.187842    ;  uncertainty r = 0.000082, k = 9.453916
         1        22     1        0.142876   269520.874072    ;  uncertainty r = 0.000148, k = 7.591327
         1        25     1        0.109376   309298.114063    ;  uncertainty r = 0.000067, k = 3.258201
         1        26     1        0.109376   309298.114063    ;  uncertainty r = 0.000067, k = 3.258201
         2         3     1        0.139483   322483.510986    ;  uncertainty r = 0.000316, k = 8.673345
         2         7     1        0.139885   332202.909277    ;  uncertainty r = 0.000117, k = 7.312560
         2        19     1        0.151038   218237.021191    ;  uncertainty r = 0.000148, k = 9.068839
         3         4     1        0.139955   320771.835156    ;  uncertainty r = 0.000357, k = 12.037526
         4         5     1        0.139182   345645.745801    ;  uncertainty r = 0.000066, k = 2.049656
         4        16     1        0.180391   144109.445093    ;  uncertainty r = 0.000034, k = 24.296396
         5         6     1        0.138559   373392.172656    ;  uncertainty r = 0.000098, k = 3.381996
         5        27     1        0.108475   328044.446387    ;  uncertainty r = 0.000042, k = 1.863234
         6         7     1        0.139280   355348.391748    ;  uncertainty r = 0.000111, k = 2.573043
         6        28     1        0.108753   335240.548437    ;  uncertainty r = 0.000038, k = 1.338106
         7         8     1        0.138373   319706.631250    ;  uncertainty r = 0.000104, k = 9.743069
         8         9     1        0.137822   318427.247607    ;  uncertainty r = 0.000038, k = 4.821423
         9        10     1        0.139528   361261.279590    ;  uncertainty r = 0.000034, k = 2.901399
         9        15     1        0.139500   357193.626660    ;  uncertainty r = 0.000019, k = 1.937531
        10        11     1        0.138903   362933.270752    ;  uncertainty r = 0.000022, k = 2.327819
        10        29     1        0.108796   339585.253467    ;  uncertainty r = 0.000020, k = 1.174450
        11        12     1        0.139015   361949.300391    ;  uncertainty r = 0.000049, k = 3.307020
        11        20     1        0.135256   340052.735791    ;  uncertainty r = 0.000049, k = 2.087966
        12        13     1        0.139473   365943.585205    ;  uncertainty r = 0.000030, k = 2.878139
        12        30     1        0.108675   338128.974268    ;  uncertainty r = 0.000014, k = 0.350222
        13        14     1        0.175206   198763.315381    ;  uncertainty r = 0.000067, k = 1.577622
        13        15     1        0.139323   360643.153857    ;  uncertainty r = 0.000043, k = 3.846580
        15        31     1        0.108726   338068.706689    ;  uncertainty r = 0.000011, k = 1.356593
        16        17     1        0.147643   516108.811035    ;  uncertainty r = 0.000054, k = 2.170350
        16        18     1        0.181301   177399.148438    ;  uncertainty r = 0.000026, k = 14.115129
        16        21     1        0.147643   516108.811035    ;  uncertainty r = 0.000054, k = 2.170361
        18        32     1        0.109290   321381.942236    ;  uncertainty r = 0.000026, k = 1.641628
        18        33     1        0.109290   321381.942236    ;  uncertainty r = 0.000026, k = 1.641628
        18        34     1        0.109290   321381.942236    ;  uncertainty r = 0.000026, k = 1.641628
        19        23     1        0.138343   308973.333105    ;  uncertainty r = 0.000174, k = 8.194558
        19        24     1        0.138343   308973.333105    ;  uncertainty r = 0.000174, k = 8.194558
        19        35     1        0.109156   318743.729004    ;  uncertainty r = 0.000076, k = 5.942724
        22        36     1        0.097072   466513.497363    ;  uncertainty r = 0.000021, k = 5.179042

[ angles ]
;       ai        aj        ak funct           theta             cth
         1         3         2     1      116.281998      379.749553    ;  uncertainty theta = 0.003018, k = 0.208590
         1         3         4     1      117.919006      382.194444    ;  uncertainty theta = 0.003685, k = 0.206239
         1        22        36     1      107.255661      457.536290    ;  uncertainty theta = 0.003677, k = 0.092624
         2         3         4     1      125.379799      443.189064    ;  uncertainty theta = 0.008765, k = 0.130252
         2         7         6     1      123.883911      380.060148    ;  uncertainty theta = 0.005544, k = 0.185317
         2         7         8     1      115.365479      438.178810    ;  uncertainty theta = 0.005577, k = 0.166160
         2        19        23     1      110.689331      660.239809    ;  uncertainty theta = 0.003268, k = 0.152448
         2        19        24     1      110.689331      660.239809    ;  uncertainty theta = 0.003268, k = 0.152448
         2        19        35     1      112.757019      378.108634    ;  uncertainty theta = 0.006973, k = 0.057784
         3         1        22     1      111.707680      665.694281    ;  uncertainty theta = 0.003918, k = 0.205592
         3         1        25     1      107.428612      404.526774    ;  uncertainty theta = 0.002277, k = 0.074261
         3         1        26     1      107.428612      404.526774    ;  uncertainty theta = 0.002277, k = 0.074261
         3         2         7     1      125.667992      437.151580    ;  uncertainty theta = 0.010559, k = 0.139661
         3         2        19     1      115.432480      376.323622    ;  uncertainty theta = 0.004840, k = 0.156617
         3         4         5     1      126.761208      438.192090    ;  uncertainty theta = 0.008251, k = 0.065483
         3         4        16     1      114.844009      329.334351    ;  uncertainty theta = 0.003977, k = 0.178661
         4         5         6     1      120.312180      485.225667    ;  uncertainty theta = 0.002726, k = 0.097655
         4         5        27     1      118.547768      257.025228    ;  uncertainty theta = 0.002335, k = 0.159836
         4        16        17     1      113.162598      590.426779    ;  uncertainty theta = 0.002152, k = 0.206617
         4        16        18     1      105.168167      590.522032    ;  uncertainty theta = 0.002981, k = 0.062448
         4        16        21     1      113.162598      590.426779    ;  uncertainty theta = 0.002152, k = 0.206616
         5         4        16     1      114.624100      371.199473    ;  uncertainty theta = 0.007129, k = 0.206444
         5         6         7     1      118.948753      504.744478    ;  uncertainty theta = 0.002322, k = 0.153973
         5         6        28     1      120.775040      277.944047    ;  uncertainty theta = 0.001536, k = 0.064952
         6         5        27     1      120.413063      279.972970    ;  uncertainty theta = 0.001999, k = 0.075268
         6         7         8     1      119.719528      437.072064    ;  uncertainty theta = 0.003742, k = 0.077595
         7         2        19     1      117.331154      418.567587    ;  uncertainty theta = 0.005096, k = 0.212174
         7         6        28     1      119.946167      276.643761    ;  uncertainty theta = 0.001152, k = 0.041086
         7         8         9     1      112.878983      458.910634    ;  uncertainty theta = 0.003839, k = 0.125934
         8         9        10     1      118.788162      414.443121    ;  uncertainty theta = 0.004147, k = 0.050389
         8         9        15     1      118.825417      410.815064    ;  uncertainty theta = 0.003583, k = 0.037915
         9        10        11     1      116.721596      503.906861    ;  uncertainty theta = 0.002689, k = 0.149363
         9        10        29     1      121.896408      272.907363    ;  uncertainty theta = 0.002525, k = 0.084252
         9        15        13     1      117.207092      514.355178    ;  uncertainty theta = 0.000927, k = 0.103129
         9        15        31     1      121.266037      274.917772    ;  uncertainty theta = 0.002120, k = 0.067648
        10         9        15     1      122.516479      385.043428    ;  uncertainty theta = 0.004279, k = 0.155803
        10        11        12     1      123.806297      364.500419    ;  uncertainty theta = 0.004306, k = 0.146256
        10        11        20     1      118.451439      494.877003    ;  uncertainty theta = 0.001652, k = 0.037194
        11        10        29     1      121.721214      284.045756    ;  uncertainty theta = 0.002101, k = 0.037191
        11        12        13     1      115.803238      478.705054    ;  uncertainty theta = 0.001376, k = 0.113134
        11        12        30     1      121.638588      280.640095    ;  uncertainty theta = 0.002111, k = 0.042509
        12        11        20     1      118.552078      502.703712    ;  uncertainty theta = 0.002488, k = 0.039641
        12        13        14     1      120.101097      446.309443    ;  uncertainty theta = 0.001191, k = 0.064103
        12        13        15     1      122.655418      367.353457    ;  uncertainty theta = 0.001241, k = 0.091485
        13        12        30     1      122.502640      281.974441    ;  uncertainty theta = 0.001614, k = 0.034256
        13        15        31     1      121.894081      287.924141    ;  uncertainty theta = 0.001267, k = 0.028231
        14        13        15     1      120.061806      441.218429    ;  uncertainty theta = 0.001566, k = 0.104726
        16        18        32     1      107.176315      365.048573    ;  uncertainty theta = 0.000839, k = 0.027457
        16        18        33     1      107.176315      365.048573    ;  uncertainty theta = 0.000839, k = 0.027457
        16        18        34     1      107.176315      365.048573    ;  uncertainty theta = 0.000839, k = 0.027457
        17        16        18     1      112.472214      740.046405    ;  uncertainty theta = 0.001815, k = 0.041589
        17        16        21     1      123.456032      836.718856    ;  uncertainty theta = 0.001565, k = 0.064407
        18        16        21     1      112.472214      740.046532    ;  uncertainty theta = 0.001815, k = 0.041589
        22         1        25     1      108.108421      490.064535    ;  uncertainty theta = 0.003522, k = 0.078094
        22         1        26     1      108.108421      490.064535    ;  uncertainty theta = 0.003522, k = 0.078094
        23        19        24     1      107.804161      838.149764    ;  uncertainty theta = 0.002805, k = 0.076332
        23        19        35     1      108.683922      508.750899    ;  uncertainty theta = 0.002091, k = 0.151552
        24        19        35     1      108.683922      508.750899    ;  uncertainty theta = 0.002091, k = 0.151552
        25         1        26     1      106.798203      318.039511    ;  uncertainty theta = 0.005830, k = 0.072903
        32        18        33     1      108.785423      296.155964    ;  uncertainty theta = 0.002207, k = 0.017067
        32        18        34     1      108.785423      296.155964    ;  uncertainty theta = 0.002207, k = 0.017067
        33        18        34     1      108.785423      296.155964    ;  uncertainty theta = 0.002207, k = 0.017067

[ dihedrals ] ; propers for gromacs 4.5 or higher, use funct 9
;       ai        aj        ak        al funct           phase               k        pn
         1         3         2         7     9        0.000000        0.079045         1    ;  uncertainty k = 0.301495
         1         3         2         7     9      180.000000        9.134023         2    ;  uncertainty k = 0.307549
         1         3         2         7     9        0.000000        1.405459         3    ;  uncertainty k = 0.332121
         1         3         2         7     9      180.000000        1.658623         4    ;  uncertainty k = 0.186642
         1         3         2        19     9        0.000000       -0.148496         1    ;  uncertainty k = 0.339160
         1         3         2        19     9      180.000000       10.807477         2    ;  uncertainty k = 0.383813
         1         3         2        19     9        0.000000        0.926942         3    ;  uncertainty k = 0.353195
         1         3         2        19     9      180.000000        1.332921         4    ;  uncertainty k = 0.364739
         1         3         4         5     9        0.000000       -0.016708         1    ;  uncertainty k = 0.521936
         1         3         4         5     9      180.000000        7.630042         2    ;  uncertainty k = 0.468194
         1         3         4         5     9        0.000000        1.117806         3    ;  uncertainty k = 0.329557
         1         3         4         5     9      180.000000        1.612188         4    ;  uncertainty k = 0.148894
         1         3         4        16     9        0.000000        0.051352         1    ;  uncertainty k = 0.573786
         1         3         4        16     9      180.000000        8.752377         2    ;  uncertainty k = 0.251917
         1         3         4        16     9        0.000000        1.073829         3    ;  uncertainty k = 0.410565
         1         3         4        16     9      180.000000        1.351608         4    ;  uncertainty k = 0.128337
         2         3         1        22     9        0.000000       -0.552138         1    ;  uncertainty k = 0.898128
         2         3         1        22     9      180.000000        4.035202         2    ;  uncertainty k = 0.590426
         2         3         1        22     9        0.000000        0.143838         3    ;  uncertainty k = 0.618195
         2         3         1        22     9      180.000000        0.582602         4    ;  uncertainty k = 0.206112
         2         3         1        25     9        0.000000        1.165317         1    ;  uncertainty k = 0.733354
         2         3         1        25     9      180.000000        2.647949         2    ;  uncertainty k = 0.436401
         2         3         1        25     9        0.000000        0.082423         3    ;  uncertainty k = 0.110736
         2         3         1        25     9      180.000000        0.188800         4    ;  uncertainty k = 0.060619
         2         3         1        26     9        0.000000        1.165317         1    ;  uncertainty k = 0.733354
         2         3         1        26     9      180.000000        2.647949         2    ;  uncertainty k = 0.436401
         2         3         1        26     9        0.000000        0.082423         3    ;  uncertainty k = 0.110736
         2         3         1        26     9      180.000000        0.188800         4    ;  uncertainty k = 0.060619
         2         3         4         5     9        0.000000        0.042760         1    ;  uncertainty k = 0.684097
         2         3         4         5     9      180.000000        6.611632         2    ;  uncertainty k = 0.967382
         2         3         4         5     9        0.000000        0.839151         3    ;  uncertainty k = 0.402428
         2         3         4         5     9      180.000000        1.260636         4    ;  uncertainty k = 0.291707
         2         3         4        16     9        0.000000        0.636951         1    ;  uncertainty k = 0.923488
         2         3         4        16     9      180.000000        8.199798         2    ;  uncertainty k = 0.365885
         2         3         4        16     9        0.000000        1.720217         3    ;  uncertainty k = 0.439858
         2         3         4        16     9      180.000000        1.645331         4    ;  uncertainty k = 0.148564
         2         7         6         5     9        0.000000        0.322015         1    ;  uncertainty k = 0.240805
         2         7         6         5     9      180.000000        7.852628         2    ;  uncertainty k = 0.761200
         2         7         6         5     9        0.000000        0.461838         3    ;  uncertainty k = 0.478760
         2         7         6         5     9      180.000000        1.362911         4    ;  uncertainty k = 0.371197
         2         7         6        28     9        0.000000        0.166890         1    ;  uncertainty k = 0.294289
         2         7         6        28     9      180.000000        5.976439         2    ;  uncertainty k = 0.607123
         2         7         6        28     9        0.000000        1.356963         3    ;  uncertainty k = 0.527235
         2         7         6        28     9      180.000000        1.593005         4    ;  uncertainty k = 0.094352
         2         7         8         9     9        0.000000        3.828397         1    ;  uncertainty k = 1.616999
         2         7         8         9     9      180.000000        6.509054         2    ;  uncertainty k = 0.558015
         2         7         8         9     9        0.000000       -0.077658         3    ;  uncertainty k = 0.491106
         2         7         8         9     9      180.000000        0.113271         4    ;  uncertainty k = 0.118839
         3         1        22        36     9        0.000000       13.720738         1    ;  uncertainty k = 0.353093
         3         1        22        36     9      180.000000       -5.608753         2    ;  uncertainty k = 0.367084
         3         1        22        36     9        0.000000        1.004096         3    ;  uncertainty k = 0.222601
         3         1        22        36     9      180.000000        0.026876         4    ;  uncertainty k = 0.150969
         3         2         7         6     9        0.000000       -0.144460         1    ;  uncertainty k = 0.740956
         3         2         7         6     9      180.000000        5.583231         2    ;  uncertainty k = 1.124324
         3         2         7         6     9        0.000000        0.885078         3    ;  uncertainty k = 0.487762
         3         2         7         6     9      180.000000        1.356115         4    ;  uncertainty k = 0.326693
         3         2         7         8     9        0.000000        0.325126         1    ;  uncertainty k = 0.334661
         3         2         7         8     9      180.000000        9.233508         2    ;  uncertainty k = 0.378123
         3         2         7         8     9        0.000000        1.560380         3    ;  uncertainty k = 0.400256
         3         2         7         8     9      180.000000        1.731926         4    ;  uncertainty k = 0.222468
         3         2        19        23     9        0.000000        0.533547         1    ;  uncertainty k = 1.072180
         3         2        19        23     9      180.000000        2.605060         2    ;  uncertainty k = 0.343858
         3         2        19        23     9        0.000000        0.047875         3    ;  uncertainty k = 0.337496
         3         2        19        23     9      180.000000        0.284524         4    ;  uncertainty k = 0.128005
         3         2        19        24     9        0.000000        0.533547         1    ;  uncertainty k = 1.072180
         3         2        19        24     9      180.000000        2.605060         2    ;  uncertainty k = 0.343858
         3         2        19        24     9        0.000000        0.047875         3    ;  uncertainty k = 0.337496
         3         2        19        24     9      180.000000        0.284524         4    ;  uncertainty k = 0.128005
         3         2        19        35     9        0.000000        1.249280         1    ;  uncertainty k = 0.599241
         3         2        19        35     9      180.000000        1.765231         2    ;  uncertainty k = 0.260124
         3         2        19        35     9        0.000000       -0.069045         3    ;  uncertainty k = 0.175179
         3         2        19        35     9      180.000000       -0.066944         4    ;  uncertainty k = 0.153993
         3         4         5         6     9        0.000000        0.066183         1    ;  uncertainty k = 0.377411
         3         4         5         6     9      180.000000        9.410850         2    ;  uncertainty k = 0.537498
         3         4         5         6     9        0.000000       -0.094145         3    ;  uncertainty k = 0.535935
         3         4         5         6     9      180.000000        1.101160         4    ;  uncertainty k = 0.365057
         3         4         5        27     9        0.000000       -0.015556         1    ;  uncertainty k = 0.112952
         3         4         5        27     9      180.000000        6.372784         2    ;  uncertainty k = 0.572032
         3         4         5        27     9        0.000000        1.184731         3    ;  uncertainty k = 0.402608
         3         4         5        27     9      180.000000        1.586427         4    ;  uncertainty k = 0.085087
         3         4        16        17     9        0.000000       -0.761693         1    ;  uncertainty k = 1.143362
         3         4        16        17     9      180.000000        0.656721         2    ;  uncertainty k = 0.303429
         3         4        16        17     9        0.000000        0.807117         3    ;  uncertainty k = 0.191937
         3         4        16        17     9      180.000000        0.021966         4    ;  uncertainty k = 0.081265
         3         4        16        18     9        0.000000        1.146969         1    ;  uncertainty k = 2.793839
         3         4        16        18     9      180.000000       -0.385925         2    ;  uncertainty k = 0.357744
         3         4        16        18     9        0.000000        0.289661         3    ;  uncertainty k = 0.527535
         3         4        16        18     9      180.000000        0.472960         4    ;  uncertainty k = 0.097740
         3         4        16        21     9        0.000000       -0.761693         1    ;  uncertainty k = 1.143363
         3         4        16        21     9      180.000000        0.656721         2    ;  uncertainty k = 0.303431
         3         4        16        21     9        0.000000        0.807118         3    ;  uncertainty k = 0.191936
         3         4        16        21     9      180.000000        0.021966         4    ;  uncertainty k = 0.081265
         4         3         1        22     9        0.000000       -1.116421         1    ;  uncertainty k = 0.905055
         4         3         1        22     9      180.000000        3.902456         2    ;  uncertainty k = 0.771423
         4         3         1        22     9        0.000000        0.054573         3    ;  uncertainty k = 0.601579
         4         3         1        22     9      180.000000        0.610487         4    ;  uncertainty k = 0.190032
         4         3         1        25     9        0.000000        1.178769         1    ;  uncertainty k = 0.540525
         4         3         1        25     9      180.000000        2.644424         2    ;  uncertainty k = 0.451575
         4         3         1        25     9        0.000000       -0.077172         3    ;  uncertainty k = 0.120227
         4         3         1        25     9      180.000000        0.226079         4    ;  uncertainty k = 0.157915
         4         3         1        26     9        0.000000        1.178769         1    ;  uncertainty k = 0.540525
         4         3         1        26     9      180.000000        2.644424         2    ;  uncertainty k = 0.451575
         4         3         1        26     9        0.000000       -0.077172         3    ;  uncertainty k = 0.120227
         4         3         1        26     9      180.000000        0.226079         4    ;  uncertainty k = 0.157915
         4         3         2         7     9        0.000000        0.199645         1    ;  uncertainty k = 0.788619
         4         3         2         7     9      180.000000        7.516144         2    ;  uncertainty k = 0.843191
         4         3         2         7     9        0.000000        1.074605         3    ;  uncertainty k = 0.364601
         4         3         2         7     9      180.000000        1.262057         4    ;  uncertainty k = 0.471091
         4         3         2        19     9        0.000000        0.193282         1    ;  uncertainty k = 0.227601
         4         3         2        19     9      180.000000        9.811052         2    ;  uncertainty k = 0.356509
         4         3         2        19     9        0.000000        1.532340         3    ;  uncertainty k = 0.306891
         4         3         2        19     9      180.000000        1.632826         4    ;  uncertainty k = 0.185993
         4         5         6         7     9        0.000000        0.020510         1    ;  uncertainty k = 0.193369
         4         5         6         7     9      180.000000       12.003505         2    ;  uncertainty k = 0.484530
         4         5         6         7     9        0.000000       -0.809889         3    ;  uncertainty k = 0.605074
         4         5         6         7     9      180.000000        0.943136         4    ;  uncertainty k = 0.374483
         4         5         6        28     9        0.000000       -0.097098         1    ;  uncertainty k = 0.530932
         4         5         6        28     9      180.000000        7.846864         2    ;  uncertainty k = 0.519662
         4         5         6        28     9        0.000000        1.127190         3    ;  uncertainty k = 0.283856
         4         5         6        28     9      180.000000        1.753371         4    ;  uncertainty k = 0.150089
         4        16        18        32     9        0.000000        2.475602         1    ;  uncertainty k = 0.738214
         4        16        18        32     9      180.000000       -2.808704         2    ;  uncertainty k = 0.575412
         4        16        18        32     9        0.000000        0.161753         3    ;  uncertainty k = 0.035813
         4        16        18        32     9      180.000000       -0.018011         4    ;  uncertainty k = 0.133812
         4        16        18        33     9        0.000000        2.475602         1    ;  uncertainty k = 0.738214
         4        16        18        33     9      180.000000       -2.808704         2    ;  uncertainty k = 0.575412
         4        16        18        33     9        0.000000        0.161753         3    ;  uncertainty k = 0.035813
         4        16        18        33     9      180.000000       -0.018011         4    ;  uncertainty k = 0.133812
         4        16        18        34     9        0.000000        2.475602         1    ;  uncertainty k = 0.738214
         4        16        18        34     9      180.000000       -2.808704         2    ;  uncertainty k = 0.575412
         4        16        18        34     9        0.000000        0.161753         3    ;  uncertainty k = 0.035813
         4        16        18        34     9      180.000000       -0.018011         4    ;  uncertainty k = 0.133812
         5         4        16        17     9        0.000000       -1.671599         1    ;  uncertainty k = 1.000959
         5         4        16        17     9      180.000000        0.813775         2    ;  uncertainty k = 0.468271
         5         4        16        17     9        0.000000        0.232154         3    ;  uncertainty k = 0.250057
         5         4        16        17     9      180.000000       -0.007704         4    ;  uncertainty k = 0.114108
         5         4        16        18     9        0.000000        1.191141         1    ;  uncertainty k = 1.600895
         5         4        16        18     9      180.000000       -0.201233         2    ;  uncertainty k = 0.395777
         5         4        16        18     9        0.000000       -0.000200         3    ;  uncertainty k = 0.444559
         5         4        16        18     9      180.000000        0.515477         4    ;  uncertainty k = 0.209591
         5         4        16        21     9        0.000000       -1.671601         1    ;  uncertainty k = 1.000958
         5         4        16        21     9      180.000000        0.813774         2    ;  uncertainty k = 0.468273
         5         4        16        21     9        0.000000        0.232153         3    ;  uncertainty k = 0.250058
         5         4        16        21     9      180.000000       -0.007704         4    ;  uncertainty k = 0.114109
         5         6         7         8     9        0.000000       -0.072909         1    ;  uncertainty k = 0.158041
         5         6         7         8     9      180.000000       10.944569         2    ;  uncertainty k = 0.395404
         5         6         7         8     9        0.000000        1.406394         3    ;  uncertainty k = 0.210269
         5         6         7         8     9      180.000000        1.723526         4    ;  uncertainty k = 0.159979
         6         5         4        16     9        0.000000        0.423433         1    ;  uncertainty k = 0.297675
         6         5         4        16     9      180.000000        9.295011         2    ;  uncertainty k = 0.635588
         6         5         4        16     9        0.000000        1.411095         3    ;  uncertainty k = 0.370142
         6         5         4        16     9      180.000000        1.790846         4    ;  uncertainty k = 0.164281
         6         7         2        19     9        0.000000        0.411964         1    ;  uncertainty k = 0.252442
         6         7         2        19     9      180.000000        7.923602         2    ;  uncertainty k = 0.454749
         6         7         2        19     9        0.000000        1.250607         3    ;  uncertainty k = 0.343942
         6         7         2        19     9      180.000000        1.824377         4    ;  uncertainty k = 0.169217
         6         7         8         9     9        0.000000        5.632077         1    ;  uncertainty k = 0.310187
         6         7         8         9     9      180.000000        6.307747         2    ;  uncertainty k = 0.244035
         6         7         8         9     9        0.000000        0.213715         3    ;  uncertainty k = 0.111456
         6         7         8         9     9      180.000000        0.218519         4    ;  uncertainty k = 0.079995
         7         2        19        23     9        0.000000       -0.964044         1    ;  uncertainty k = 1.128497
         7         2        19        23     9      180.000000        2.574451         2    ;  uncertainty k = 0.461897
         7         2        19        23     9        0.000000        0.469417         3    ;  uncertainty k = 0.276932
         7         2        19        23     9      180.000000        0.259892         4    ;  uncertainty k = 0.195278
         7         2        19        24     9        0.000000       -0.964044         1    ;  uncertainty k = 1.128497
         7         2        19        24     9      180.000000        2.574451         2    ;  uncertainty k = 0.461897
         7         2        19        24     9        0.000000        0.469417         3    ;  uncertainty k = 0.276932
         7         2        19        24     9      180.000000        0.259892         4    ;  uncertainty k = 0.195278
         7         2        19        35     9        0.000000        1.886332         1    ;  uncertainty k = 0.970968
         7         2        19        35     9      180.000000        1.822888         2    ;  uncertainty k = 0.279155
         7         2        19        35     9        0.000000        0.059980         3    ;  uncertainty k = 0.371585
         7         2        19        35     9      180.000000        0.048991         4    ;  uncertainty k = 0.215194
         7         6         5        27     9        0.000000       -0.060300         1    ;  uncertainty k = 0.128844
         7         6         5        27     9      180.000000        7.834174         2    ;  uncertainty k = 0.311683
         7         6         5        27     9        0.000000        1.069529         3    ;  uncertainty k = 0.181029
         7         6         5        27     9      180.000000        1.704763         4    ;  uncertainty k = 0.112630
         7         8         9        10     9        0.000000        4.479617         1    ;  uncertainty k = 0.279030
         7         8         9        10     9      180.000000        5.107063         2    ;  uncertainty k = 0.257744
         7         8         9        10     9        0.000000        0.444819         3    ;  uncertainty k = 0.142048
         7         8         9        10     9      180.000000        0.155632         4    ;  uncertainty k = 0.074661
         7         8         9        15     9        0.000000        4.406914         1    ;  uncertainty k = 0.307086
         7         8         9        15     9      180.000000        5.069651         2    ;  uncertainty k = 0.224562
         7         8         9        15     9        0.000000        0.450381         3    ;  uncertainty k = 0.102254
         7         8         9        15     9      180.000000        0.153178         4    ;  uncertainty k = 0.069585
         8         7         2        19     9        0.000000        0.307861         1    ;  uncertainty k = 0.155545
         8         7         2        19     9      180.000000       12.349828         2    ;  uncertainty k = 0.571449
         8         7         2        19     9        0.000000        1.004689         3    ;  uncertainty k = 0.272097
         8         7         2        19     9      180.000000        1.423793         4    ;  uncertainty k = 0.455920
         8         7         6        28     9        0.000000        0.034883         1    ;  uncertainty k = 0.169506
         8         7         6        28     9      180.000000        9.071826         2    ;  uncertainty k = 0.445265
         8         7         6        28     9        0.000000        0.793586         3    ;  uncertainty k = 0.206495
         8         7         6        28     9      180.000000        1.185417         4    ;  uncertainty k = 0.154835
         8         9        10        11     9        0.000000        0.054922         1    ;  uncertainty k = 0.233891
         8         9        10        11     9      180.000000       10.507979         2    ;  uncertainty k = 0.291668
         8         9        10        11     9        0.000000        1.335511         3    ;  uncertainty k = 0.174266
         8         9        10        11     9      180.000000        1.628825         4    ;  uncertainty k = 0.116957
         8         9        10        29     9        0.000000       -0.096412         1    ;  uncertainty k = 0.068542
         8         9        10        29     9      180.000000        8.225153         2    ;  uncertainty k = 0.261533
         8         9        10        29     9        0.000000        0.815209         3    ;  uncertainty k = 0.242357
         8         9        10        29     9      180.000000        1.085969         4    ;  uncertainty k = 0.083441
         8         9        15        13     9        0.000000        0.069132         1    ;  uncertainty k = 0.189899
         8         9        15        13     9      180.000000       10.711102         2    ;  uncertainty k = 0.305465
         8         9        15        13     9        0.000000        1.316181         3    ;  uncertainty k = 0.119022
         8         9        15        13     9      180.000000        1.608318         4    ;  uncertainty k = 0.105852
         8         9        15        31     9        0.000000       -0.102209         1    ;  uncertainty k = 0.081784
         8         9        15        31     9      180.000000        8.373655         2    ;  uncertainty k = 0.303466
         8         9        15        31     9        0.000000        0.818422         3    ;  uncertainty k = 0.253239
         8         9        15        31     9      180.000000        1.107235         4    ;  uncertainty k = 0.088284
         9        10        11        12     9        0.000000       -0.072952         1    ;  uncertainty k = 0.194089
         9        10        11        12     9      180.000000        9.171957         2    ;  uncertainty k = 0.472785
         9        10        11        12     9        0.000000        0.005342         3    ;  uncertainty k = 0.505155
         9        10        11        12     9      180.000000        1.304440         4    ;  uncertainty k = 0.246736
         9        10        11        20     9        0.000000        0.034163         1    ;  uncertainty k = 0.064116
         9        10        11        20     9      180.000000       12.619132         2    ;  uncertainty k = 0.563969
         9        10        11        20     9        0.000000        1.495979         3    ;  uncertainty k = 0.351941
         9        10        11        20     9      180.000000        1.496737         4    ;  uncertainty k = 0.252379
         9        15        13        12     9        0.000000       -0.105475         1    ;  uncertainty k = 0.243520
         9        15        13        12     9      180.000000       10.231596         2    ;  uncertainty k = 0.355762
         9        15        13        12     9        0.000000       -0.051106         3    ;  uncertainty k = 0.507451
         9        15        13        12     9      180.000000        1.251987         4    ;  uncertainty k = 0.284642
         9        15        13        14     9        0.000000       -0.034223         1    ;  uncertainty k = 0.242189
         9        15        13        14     9      180.000000        9.411996         2    ;  uncertainty k = 0.567129
         9        15        13        14     9        0.000000        1.422566         3    ;  uncertainty k = 0.436705
         9        15        13        14     9      180.000000        1.662708         4    ;  uncertainty k = 0.167768
        10         9        15        13     9        0.000000       -0.021462         1    ;  uncertainty k = 0.058283
        10         9        15        13     9      180.000000        9.707310         2    ;  uncertainty k = 0.491059
        10         9        15        13     9        0.000000       -0.144169         3    ;  uncertainty k = 0.485591
        10         9        15        13     9      180.000000        1.197879         4    ;  uncertainty k = 0.249688
        10         9        15        31     9        0.000000        0.178410         1    ;  uncertainty k = 0.292057
        10         9        15        31     9      180.000000        6.023481         2    ;  uncertainty k = 0.729602
        10         9        15        31     9        0.000000        1.457610         3    ;  uncertainty k = 0.375998
        10         9        15        31     9      180.000000        1.615015         4    ;  uncertainty k = 0.183710
        10        11        12        13     9        0.000000        0.047486         1    ;  uncertainty k = 0.248760
        10        11        12        13     9      180.000000        9.416472         2    ;  uncertainty k = 0.526005
        10        11        12        13     9        0.000000       -0.239532         3    ;  uncertainty k = 0.531742
        10        11        12        13     9      180.000000        1.226113         4    ;  uncertainty k = 0.215921
        10        11        12        30     9        0.000000       -0.008574         1    ;  uncertainty k = 0.228759
        10        11        12        30     9      180.000000        5.767531         2    ;  uncertainty k = 0.692671
        10        11        12        30     9        0.000000        1.336882         3    ;  uncertainty k = 0.331722
        10        11        12        30     9      180.000000        1.519252         4    ;  uncertainty k = 0.146559
        11        10         9        15     9        0.000000       -0.047045         1    ;  uncertainty k = 0.149882
        11        10         9        15     9      180.000000        9.280148         2    ;  uncertainty k = 0.510079
        11        10         9        15     9        0.000000       -0.076704         3    ;  uncertainty k = 0.515150
        11        10         9        15     9      180.000000        1.248631         4    ;  uncertainty k = 0.282599
        11        12        13        14     9        0.000000       -0.120810         1    ;  uncertainty k = 0.217842
        11        12        13        14     9      180.000000        9.585633         2    ;  uncertainty k = 0.591761
        11        12        13        14     9        0.000000        1.435653         3    ;  uncertainty k = 0.460779
        11        12        13        14     9      180.000000        1.610631         4    ;  uncertainty k = 0.199813
        11        12        13        15     9        0.000000       -0.074759         1    ;  uncertainty k = 0.164619
        11        12        13        15     9      180.000000       10.120848         2    ;  uncertainty k = 0.321603
        11        12        13        15     9        0.000000       -0.232417         3    ;  uncertainty k = 0.526890
        11        12        13        15     9      180.000000        1.177551         4    ;  uncertainty k = 0.278640
        12        11        10        29     9        0.000000        0.097362         1    ;  uncertainty k = 0.138155
        12        11        10        29     9      180.000000        5.789141         2    ;  uncertainty k = 0.666333
        12        11        10        29     9        0.000000        1.373190         3    ;  uncertainty k = 0.344295
        12        11        10        29     9      180.000000        1.545921         4    ;  uncertainty k = 0.139384
        12        13        15        31     9        0.000000        0.070590         1    ;  uncertainty k = 0.269502
        12        13        15        31     9      180.000000        6.364456         2    ;  uncertainty k = 0.646991
        12        13        15        31     9        0.000000        1.459776         3    ;  uncertainty k = 0.395621
        12        13        15        31     9      180.000000        1.597906         4    ;  uncertainty k = 0.181675
        13        12        11        20     9        0.000000       -0.133658         1    ;  uncertainty k = 0.245809
        13        12        11        20     9      180.000000       13.025528         2    ;  uncertainty k = 0.672205
        13        12        11        20     9        0.000000        1.510910         3    ;  uncertainty k = 0.188872
        13        12        11        20     9      180.000000        1.466769         4    ;  uncertainty k = 0.282670
        14        13        12        30     9        0.000000       -0.190971         1    ;  uncertainty k = 0.157958
        14        13        12        30     9      180.000000        7.171864         2    ;  uncertainty k = 0.264032
        14        13        12        30     9        0.000000        0.606438         3    ;  uncertainty k = 0.410119
        14        13        12        30     9      180.000000        0.951445         4    ;  uncertainty k = 0.198495
        14        13        15        31     9        0.000000       -0.223833         1    ;  uncertainty k = 0.237150
        14        13        15        31     9      180.000000        7.290616         2    ;  uncertainty k = 0.395620
        14        13        15        31     9        0.000000        0.620961         3    ;  uncertainty k = 0.413847
        14        13        15        31     9      180.000000        0.978574         4    ;  uncertainty k = 0.215978
        15         9        10        29     9        0.000000        0.192080         1    ;  uncertainty k = 0.292405
        15         9        10        29     9      180.000000        5.954392         2    ;  uncertainty k = 0.758274
        15         9        10        29     9        0.000000        1.460884         3    ;  uncertainty k = 0.377855
        15         9        10        29     9      180.000000        1.568697         4    ;  uncertainty k = 0.165697
        15        13        12        30     9        0.000000        0.045113         1    ;  uncertainty k = 0.301275
        15        13        12        30     9      180.000000        6.321343         2    ;  uncertainty k = 0.669805
        15        13        12        30     9        0.000000        1.422732         3    ;  uncertainty k = 0.416345
        15        13        12        30     9      180.000000        1.507689         4    ;  uncertainty k = 0.200107
        16         4         5        27     9        0.000000       -0.360217         1    ;  uncertainty k = 0.509595
        16         4         5        27     9      180.000000        7.380901         2    ;  uncertainty k = 0.444882
        16         4         5        27     9        0.000000        0.748882         3    ;  uncertainty k = 0.224948
        16         4         5        27     9      180.000000        1.149682         4    ;  uncertainty k = 0.209142
        17        16        18        32     9        0.000000       -0.112997         1    ;  uncertainty k = 0.626312
        17        16        18        32     9      180.000000       -0.355525         2    ;  uncertainty k = 0.327529
        17        16        18        32     9        0.000000        0.828194         3    ;  uncertainty k = 0.035198
        17        16        18        32     9      180.000000        0.039893         4    ;  uncertainty k = 0.099374
        17        16        18        33     9        0.000000       -0.112997         1    ;  uncertainty k = 0.626312
        17        16        18        33     9      180.000000       -0.355525         2    ;  uncertainty k = 0.327529
        17        16        18        33     9        0.000000        0.828194         3    ;  uncertainty k = 0.035198
        17        16        18        33     9      180.000000        0.039893         4    ;  uncertainty k = 0.099374
        17        16        18        34     9        0.000000       -0.112997         1    ;  uncertainty k = 0.626312
        17        16        18        34     9      180.000000       -0.355525         2    ;  uncertainty k = 0.327529
        17        16        18        34     9        0.000000        0.828194         3    ;  uncertainty k = 0.035198
        17        16        18        34     9      180.000000        0.039893         4    ;  uncertainty k = 0.099374
        20        11        10        29     9        0.000000       -0.303893         1    ;  uncertainty k = 0.235298
        20        11        10        29     9      180.000000        8.730511         2    ;  uncertainty k = 0.332123
        20        11        10        29     9        0.000000        0.825030         3    ;  uncertainty k = 0.278075
        20        11        10        29     9      180.000000        1.031686         4    ;  uncertainty k = 0.191208
        20        11        12        30     9        0.000000       -0.316626         1    ;  uncertainty k = 0.211117
        20        11        12        30     9      180.000000        8.754317         2    ;  uncertainty k = 0.309942
        20        11        12        30     9        0.000000        0.803769         3    ;  uncertainty k = 0.290383
        20        11        12        30     9      180.000000        0.987725         4    ;  uncertainty k = 0.177351
        21        16        18        32     9        0.000000       -0.112997         1    ;  uncertainty k = 0.626312
        21        16        18        32     9      180.000000       -0.355522         2    ;  uncertainty k = 0.327531
        21        16        18        32     9        0.000000        0.828194         3    ;  uncertainty k = 0.035199
        21        16        18        32     9      180.000000        0.039892         4    ;  uncertainty k = 0.099374
        21        16        18        33     9        0.000000       -0.112997         1    ;  uncertainty k = 0.626312
        21        16        18        33     9      180.000000       -0.355522         2    ;  uncertainty k = 0.327531
        21        16        18        33     9        0.000000        0.828194         3    ;  uncertainty k = 0.035199
        21        16        18        33     9      180.000000        0.039892         4    ;  uncertainty k = 0.099374
        21        16        18        34     9        0.000000       -0.112997         1    ;  uncertainty k = 0.626312
        21        16        18        34     9      180.000000       -0.355522         2    ;  uncertainty k = 0.327531
        21        16        18        34     9        0.000000        0.828194         3    ;  uncertainty k = 0.035199
        21        16        18        34     9      180.000000        0.039892         4    ;  uncertainty k = 0.099374
        25         1        22        36     9        0.000000        9.734141         1    ;  uncertainty k = 0.421842
        25         1        22        36     9      180.000000       -2.135355         2    ;  uncertainty k = 0.511323
        25         1        22        36     9        0.000000        0.885429         3    ;  uncertainty k = 0.139836
        25         1        22        36     9      180.000000        0.067644         4    ;  uncertainty k = 0.044189
        26         1        22        36     9        0.000000        9.734141         1    ;  uncertainty k = 0.421842
        26         1        22        36     9      180.000000       -2.135355         2    ;  uncertainty k = 0.511323
        26         1        22        36     9        0.000000        0.885429         3    ;  uncertainty k = 0.139836
        26         1        22        36     9      180.000000        0.067644         4    ;  uncertainty k = 0.044189
        27         5         6        28     9        0.000000        0.024431         1    ;  uncertainty k = 0.267049
        27         5         6        28     9      180.000000        7.658224         2    ;  uncertainty k = 0.440968
        27         5         6        28     9        0.000000       -0.388084         3    ;  uncertainty k = 0.375288
        27         5         6        28     9      180.000000        0.224531         4    ;  uncertainty k = 0.148760

[ dihedrals ] ; impropers
;       ai        aj        ak        al funct           phase               k        pn
         2         3         7        19     4      180.000000        9.158159         2    ;  uncertainty k = 0.097613
         2         7        19         3     4      180.000000        9.158159         2    ;  uncertainty k = 0.097613
         2        19         3         7     4      180.000000        9.158159         2    ;  uncertainty k = 0.097613
         3         1         2         4     4      180.000000       15.828362         2    ;  uncertainty k = 0.060851
         3         2         4         1     4      180.000000       15.828362         2    ;  uncertainty k = 0.060851
         3         4         1         2     4      180.000000       15.828362         2    ;  uncertainty k = 0.060851
         4         3         5        16     4      180.000000        6.048655         2    ;  uncertainty k = 0.278373
         4         5        16         3     4      180.000000        6.048655         2    ;  uncertainty k = 0.278373
         4        16         3         5     4      180.000000        6.048655         2    ;  uncertainty k = 0.278373
         5         4         6        27     4      180.000000        4.955888         2    ;  uncertainty k = 0.104961
         5         6        27         4     4      180.000000        4.955888         2    ;  uncertainty k = 0.104961
         5        27         4         6     4      180.000000        4.955888         2    ;  uncertainty k = 0.104961
         6         5         7        28     4      180.000000        1.971668         2    ;  uncertainty k = 0.129204
         6         7        28         5     4      180.000000        1.971668         2    ;  uncertainty k = 0.129204
         6        28         5         7     4      180.000000        1.971668         2    ;  uncertainty k = 0.129204
         7         2         6         8     4      180.000000       19.031758         2    ;  uncertainty k = 0.129466
         7         6         8         2     4      180.000000       19.031758         2    ;  uncertainty k = 0.129466
         7         8         2         6     4      180.000000       19.031758         2    ;  uncertainty k = 0.129466
         9         8        10        15     4      180.000000       19.174307         2    ;  uncertainty k = 0.029324
         9        10        15         8     4      180.000000       19.174307         2    ;  uncertainty k = 0.029324
         9        15         8        10     4      180.000000       19.174307         2    ;  uncertainty k = 0.029324
        10         9        11        29     4      180.000000        1.292525         2    ;  uncertainty k = 0.210132
        10        11        29         9     4      180.000000        1.292525         2    ;  uncertainty k = 0.210132
        10        29         9        11     4      180.000000        1.292525         2    ;  uncertainty k = 0.210132
        11        10        12        20     4      180.000000       18.155448         2    ;  uncertainty k = 0.046061
        11        12        20        10     4      180.000000       18.155448         2    ;  uncertainty k = 0.046061
        11        20        10        12     4      180.000000       18.155448         2    ;  uncertainty k = 0.046061
        12        11        13        30     4      180.000000        1.443253         2    ;  uncertainty k = 0.472598
        12        13        30        11     4      180.000000        1.443253         2    ;  uncertainty k = 0.472598
        12        30        11        13     4      180.000000        1.443253         2    ;  uncertainty k = 0.472598
        13        12        14        15     4      180.000000       14.475914         2    ;  uncertainty k = 0.105171
        13        14        15        12     4      180.000000       14.475914         2    ;  uncertainty k = 0.105171
        13        15        12        14     4      180.000000       14.475914         2    ;  uncertainty k = 0.105171
        15         9        13        31     4      180.000000        1.662425         2    ;  uncertainty k = 0.503027
        15        13        31         9     4      180.000000        1.662425         2    ;  uncertainty k = 0.503027
        15        31         9        13     4      180.000000        1.662425         2    ;  uncertainty k = 0.503027

[ pairs ]
;       ai        aj funct
         1         5     1
         1         7     1
         1        16     1
         1        19     1
         2         5     1
         2         9     1
         2        16     1
         2        22     1
         2        25     1
         2        26     1
         2        28     1
         3         6     1
         3         8     1
         3        17     1
         3        18     1
         3        21     1
         3        23     1
         3        24     1
         3        27     1
         3        35     1
         3        36     1
         4         7     1
         4        19     1
         4        22     1
         4        25     1
         4        26     1
         4        28     1
         4        32     1
         4        33     1
         4        34     1
         5         8     1
         5        17     1
         5        18     1
         5        21     1
         6         9     1
         6        16     1
         6        19     1
         7        10     1
         7        15     1
         7        23     1
         7        24     1
         7        27     1
         7        35     1
         8        11     1
         8        13     1
         8        19     1
         8        28     1
         8        29     1
         8        31     1
         9        12     1
         9        14     1
         9        20     1
        10        13     1
        10        30     1
        10        31     1
        11        14     1
        11        15     1
        12        29     1
        12        31     1
        13        20     1
        14        30     1
        14        31     1
        15        29     1
        15        30     1
        16        27     1
        17        32     1
        17        33     1
        17        34     1
        20        29     1
        20        30     1
        21        32     1
        21        33     1
        21        34     1
        25        36     1
        26        36     1
        27        28     1
