; ITP file created by ByteFF-joint-25, 2026-02-17 09:19:17.850683

[ atomtypes ]
;name           bonded.type        at.num        mass        charge   ptype           sigma         epsilon
 o0bf                                   8      0.0000       0.00000       A     3.24330e-01     3.89311e-01    ;  uncertainty sigma = 0.000018, epsilon = 0.001661
 c1bf                                   6      0.0000       0.00000       A     3.39703e-01     4.51586e-01    ;  uncertainty sigma = 0.000021, epsilon = 0.001556
 c2bf                                   6      0.0000       0.00000       A     3.39773e-01     4.50315e-01    ;  uncertainty sigma = 0.000014, epsilon = 0.000914
 c3bf                                   6      0.0000       0.00000       A     3.39746e-01     4.50556e-01    ;  uncertainty sigma = 0.000010, epsilon = 0.000500
 c4bf                                   6      0.0000       0.00000       A     3.31554e-01     4.13563e-01    ;  uncertainty sigma = 0.000006, epsilon = 0.000820
 c5bf                                   6      0.0000       0.00000       A     3.31574e-01     4.12492e-01    ;  uncertainty sigma = 0.000027, epsilon = 0.001307
 c6bf                                   6      0.0000       0.00000       A     3.31546e-01     4.13053e-01    ;  uncertainty sigma = 0.000018, epsilon = 0.001803
 c7bf                                   6      0.0000       0.00000       A     3.31477e-01     4.13298e-01    ;  uncertainty sigma = 0.000019, epsilon = 0.000254
 c8bf                                   6      0.0000       0.00000       A     3.31528e-01     4.13628e-01    ;  uncertainty sigma = 0.000009, epsilon = 0.000546
 c9bf                                   6      0.0000       0.00000       A     3.31530e-01     4.13165e-01    ;  uncertainty sigma = 0.000014, epsilon = 0.000565
 o10bf                                  8      0.0000       0.00000       A     3.15560e-01     3.01903e-01    ;  uncertainty sigma = 0.000035, epsilon = 0.001496
 c11bf                                  6      0.0000       0.00000       A     3.31495e-01     4.13941e-01    ;  uncertainty sigma = 0.000010, epsilon = 0.001010
 c12bf                                  6      0.0000       0.00000       A     3.31520e-01     4.13586e-01    ;  uncertainty sigma = 0.000002, epsilon = 0.000805
 c13bf                                  6      0.0000       0.00000       A     3.31497e-01     4.13352e-01    ;  uncertainty sigma = 0.000008, epsilon = 0.000492
 f14bf                                  9      0.0000       0.00000       A     3.03420e-01     3.47893e-01    ;  uncertainty sigma = 0.000010, epsilon = 0.000765
 c15bf                                  6      0.0000       0.00000       A     3.31510e-01     4.13401e-01    ;  uncertainty sigma = 0.000009, epsilon = 0.000546
 c16bf                                  6      0.0000       0.00000       A     3.31508e-01     4.13715e-01    ;  uncertainty sigma = 0.000016, epsilon = 0.000826
 c17bf                                  6      0.0000       0.00000       A     3.47927e-01     6.68046e-01    ;  uncertainty sigma = 0.000023, epsilon = 0.001608
 c18bf                                  6      0.0000       0.00000       A     3.31520e-01     4.13321e-01    ;  uncertainty sigma = 0.000008, epsilon = 0.000748
 s19bf                                 16      0.0000       0.00000       A     4.06004e-01     2.59145e-01    ;  uncertainty sigma = 0.000053, epsilon = 0.004837
 o20bf                                  8      0.0000       0.00000       A     3.04749e-01     6.10527e-01    ;  uncertainty sigma = 0.000044, epsilon = 0.000831
 o21bf                                  8      0.0000       0.00000       A     3.04749e-01     6.10527e-01    ;  uncertainty sigma = 0.000044, epsilon = 0.000831
 c22bf                                  6      0.0000       0.00000       A     3.39832e-01     4.48835e-01    ;  uncertainty sigma = 0.000062, epsilon = 0.002447
 f23bf                                  9      0.0000       0.00000       A     3.03427e-01     3.48313e-01    ;  uncertainty sigma = 0.000031, epsilon = 0.002325
 f24bf                                  9      0.0000       0.00000       A     3.03427e-01     3.48313e-01    ;  uncertainty sigma = 0.000031, epsilon = 0.002325
 n25bf                                  7      0.0000       0.00000       A     3.27375e-01     4.59084e-01    ;  uncertainty sigma = 0.000021, epsilon = 0.000492
 f26bf                                  9      0.0000       0.00000       A     3.03427e-01     3.48313e-01    ;  uncertainty sigma = 0.000031, epsilon = 0.002325
 h27bf                                  1      0.0000       0.00000       A     5.37915e-02     1.95462e-02    ;  uncertainty sigma = 0.000136, epsilon = 0.000884
 h28bf                                  1      0.0000       0.00000       A     2.42240e-01     8.61663e-02    ;  uncertainty sigma = 0.000028, epsilon = 0.001739
 h29bf                                  1      0.0000       0.00000       A     2.60017e-01     8.68074e-02    ;  uncertainty sigma = 0.000016, epsilon = 0.000716
 h30bf                                  1      0.0000       0.00000       A     2.60017e-01     8.68074e-02    ;  uncertainty sigma = 0.000016, epsilon = 0.000716
 h31bf                                  1      0.0000       0.00000       A     2.60038e-01     8.69412e-02    ;  uncertainty sigma = 0.000014, epsilon = 0.000529
 h32bf                                  1      0.0000       0.00000       A     2.60038e-01     8.69412e-02    ;  uncertainty sigma = 0.000014, epsilon = 0.000529
 h33bf                                  1      0.0000       0.00000       A     2.62567e-01     6.72430e-02    ;  uncertainty sigma = 0.000020, epsilon = 0.000765
 h34bf                                  1      0.0000       0.00000       A     2.62556e-01     6.70855e-02    ;  uncertainty sigma = 0.000006, epsilon = 0.000381
 h35bf                                  1      0.0000       0.00000       A     2.62552e-01     6.72491e-02    ;  uncertainty sigma = 0.000007, epsilon = 0.000350
 h36bf                                  1      0.0000       0.00000       A     2.62545e-01     6.70248e-02    ;  uncertainty sigma = 0.000017, epsilon = 0.000507
 h37bf                                  1      0.0000       0.00000       A     2.62547e-01     6.71166e-02    ;  uncertainty sigma = 0.000014, epsilon = 0.000743

[ moleculetype ]
;name             nrexcl
 MOL                   3

[ atoms ]
;       nr            type      resi   res      atom      cgnr      charge          mass ; qtot
         1            o0bf         1   UNL        o0         1    -0.59206       15.9990 ; qtot   -0.592
         2            c1bf         1   UNL        c1         2     0.18389       12.0110 ; qtot   -0.408
         3            c2bf         1   UNL        c2         3    -0.09696       12.0110 ; qtot   -0.505
         4            c3bf         1   UNL        c3         4    -0.02413       12.0110 ; qtot   -0.529
         5            c4bf         1   UNL        c4         5    -0.10119       12.0110 ; qtot   -0.630
         6            c5bf         1   UNL        c5         6     0.01142       12.0110 ; qtot   -0.619
         7            c6bf         1   UNL        c6         7    -0.22769       12.0110 ; qtot   -0.847
         8            c7bf         1   UNL        c7         8     0.00277       12.0110 ; qtot   -0.844
         9            c8bf         1   UNL        c8         9    -0.17756       12.0110 ; qtot   -1.022
        10            c9bf         1   UNL        c9        10     0.15603       12.0110 ; qtot   -0.865
        11           o10bf         1   UNL       o10        11    -0.24772       15.9990 ; qtot   -1.113
        12           c11bf         1   UNL       c11        12     0.15098       12.0110 ; qtot   -0.962
        13           c12bf         1   UNL       c12        13    -0.18271       12.0110 ; qtot   -1.145
        14           c13bf         1   UNL       c13        14     0.15843       12.0110 ; qtot   -0.987
        15           f14bf         1   UNL       f14        15    -0.12713       18.9980 ; qtot   -1.114
        16           c15bf         1   UNL       c15        16    -0.15485       12.0110 ; qtot   -1.268
        17           c16bf         1   UNL       c16        17     0.03943       12.0110 ; qtot   -1.229
        18           c17bf         1   UNL       c17        18     0.22805       12.0110 ; qtot   -1.001
        19           c18bf         1   UNL       c18        19    -0.13883       12.0110 ; qtot   -1.140
        20           s19bf         1   UNL       s19        20     0.97305       32.0670 ; qtot   -0.167
        21           o20bf         1   UNL       o20        21    -0.52245       15.9990 ; qtot   -0.689
        22           o21bf         1   UNL       o21        22    -0.52245       15.9990 ; qtot   -1.212
        23           c22bf         1   UNL       c22        23     0.64625       12.0110 ; qtot   -0.565
        24           f23bf         1   UNL       f23        24    -0.21182       18.9980 ; qtot   -0.777
        25           f24bf         1   UNL       f24        25    -0.21182       18.9980 ; qtot   -0.989
        26           n25bf         1   UNL       n25        26    -0.34869       14.0070 ; qtot   -1.338
        27           f26bf         1   UNL       f26        27    -0.21182       18.9980 ; qtot   -1.550
        28           h27bf         1   UNL       h27        28     0.40718        1.0080 ; qtot   -1.142
        29           h28bf         1   UNL       h28        29     0.07414        1.0080 ; qtot   -1.068
        30           h29bf         1   UNL       h29        30     0.05823        1.0080 ; qtot   -1.010
        31           h30bf         1   UNL       h30        31     0.05823        1.0080 ; qtot   -0.952
        32           h31bf         1   UNL       h31        32     0.06200        1.0080 ; qtot   -0.890
        33           h32bf         1   UNL       h32        33     0.06200        1.0080 ; qtot   -0.828
        34           h33bf         1   UNL       h33        34     0.16869        1.0080 ; qtot   -0.659
        35           h34bf         1   UNL       h34        35     0.15782        1.0080 ; qtot   -0.501
        36           h35bf         1   UNL       h35        36     0.16858        1.0080 ; qtot   -0.333
        37           h36bf         1   UNL       h36        37     0.16624        1.0080 ; qtot   -0.166
        38           h37bf         1   UNL       h37        38     0.16647        1.0080 ; qtot   -0.000

[ bonds ]
;       ai        aj funct               r               k
         1         2     1        0.143533   257069.617969    ;  uncertainty r = 0.000166, k = 4.670764
         1        28     1        0.097172   466410.174219    ;  uncertainty r = 0.000041, k = 3.930961
         2         3     1        0.154518   209733.827734    ;  uncertainty r = 0.000061, k = 10.764843
         2         6     1        0.152141   244891.430176    ;  uncertainty r = 0.000149, k = 29.440266
         2        29     1        0.109431   307339.060254    ;  uncertainty r = 0.000027, k = 2.137466
         3         4     1        0.154975   222428.171582    ;  uncertainty r = 0.000050, k = 7.178791
         3        30     1        0.109435   308683.359229    ;  uncertainty r = 0.000016, k = 3.034269
         3        31     1        0.109435   308683.359229    ;  uncertainty r = 0.000016, k = 3.034269
         4         5     1        0.151314   253636.740967    ;  uncertainty r = 0.000070, k = 17.146147
         4        32     1        0.109543   308088.753174    ;  uncertainty r = 0.000021, k = 1.530882
         4        33     1        0.109543   308088.753174    ;  uncertainty r = 0.000021, k = 1.530882
         5         6     1        0.139608   360872.732471    ;  uncertainty r = 0.000120, k = 19.696043
         5        10     1        0.138936   352617.785254    ;  uncertainty r = 0.000105, k = 4.458738
         6         7     1        0.139549   333780.694043    ;  uncertainty r = 0.000190, k = 11.972372
         7         8     1        0.139293   346867.492188    ;  uncertainty r = 0.000169, k = 4.946288
         7        20     1        0.177295   132306.767725    ;  uncertainty r = 0.000264, k = 14.891550
         8         9     1        0.139018   365346.093457    ;  uncertainty r = 0.000101, k = 4.837206
         8        34     1        0.108435   328776.697461    ;  uncertainty r = 0.000020, k = 0.903406
         9        10     1        0.139726   353381.038379    ;  uncertainty r = 0.000053, k = 5.868546
         9        35     1        0.108753   336163.893701    ;  uncertainty r = 0.000031, k = 1.172871
        10        11     1        0.138461   316719.146973    ;  uncertainty r = 0.000123, k = 10.455219
        11        12     1        0.137077   316895.097656    ;  uncertainty r = 0.000110, k = 9.258264
        12        13     1        0.139427   359163.303906    ;  uncertainty r = 0.000040, k = 4.028925
        12        19     1        0.139179   355512.646436    ;  uncertainty r = 0.000043, k = 0.656935
        13        14     1        0.138903   360755.951270    ;  uncertainty r = 0.000040, k = 3.414912
        13        36     1        0.108801   339525.062500    ;  uncertainty r = 0.000019, k = 1.519211
        14        15     1        0.134939   340193.470801    ;  uncertainty r = 0.000095, k = 3.973496
        14        16     1        0.138772   359379.322314    ;  uncertainty r = 0.000049, k = 1.285215
        16        17     1        0.140293   363423.557715    ;  uncertainty r = 0.000073, k = 1.983955
        16        37     1        0.108643   335847.029248    ;  uncertainty r = 0.000020, k = 0.933262
        17        18     1        0.143666   316064.886230    ;  uncertainty r = 0.000041, k = 3.494324
        17        19     1        0.140042   357603.165283    ;  uncertainty r = 0.000048, k = 4.155025
        18        26     1        0.116625  1127949.809766    ;  uncertainty r = 0.000026, k = 2.900562
        19        38     1        0.108681   335495.357715    ;  uncertainty r = 0.000025, k = 1.572342
        20        21     1        0.146502   482333.991992    ;  uncertainty r = 0.000060, k = 8.765423
        20        22     1        0.146502   482333.991992    ;  uncertainty r = 0.000060, k = 8.765423
        20        23     1        0.186690   146980.237549    ;  uncertainty r = 0.000185, k = 14.369171
        23        24     1        0.133044   300000.410059    ;  uncertainty r = 0.000105, k = 4.973886
        23        25     1        0.133044   300000.410059    ;  uncertainty r = 0.000105, k = 4.973886
        23        27     1        0.133044   300000.410059    ;  uncertainty r = 0.000105, k = 4.973886

[ angles ]
;       ai        aj        ak funct           theta             cth
         1         2         3     1      111.449783      673.121494    ;  uncertainty theta = 0.002674, k = 0.263806
         1         2         6     1      111.832626      650.389699    ;  uncertainty theta = 0.004291, k = 0.194231
         1         2        29     1      106.891518      437.961937    ;  uncertainty theta = 0.007090, k = 0.137106
         2         1        28     1      107.588623      459.544465    ;  uncertainty theta = 0.004020, k = 0.056400
         2         3         4     1      106.715515      678.485819    ;  uncertainty theta = 0.004376, k = 0.218757
         2         3        30     1      107.842712      397.967152    ;  uncertainty theta = 0.002119, k = 0.040321
         2         3        31     1      107.842712      397.967152    ;  uncertainty theta = 0.002119, k = 0.040321
         2         6         5     1      115.323753      493.896825    ;  uncertainty theta = 0.004716, k = 0.262972
         2         6         7     1      125.384117      365.614635    ;  uncertainty theta = 0.006100, k = 0.076185
         3         2         6     1      105.229843      723.340474    ;  uncertainty theta = 0.000880, k = 0.220245
         3         2        29     1      109.649307      387.426200    ;  uncertainty theta = 0.002973, k = 0.166893
         3         4         5     1      104.344833      718.666162    ;  uncertainty theta = 0.001502, k = 0.113715
         3         4        32     1      109.754356      400.758709    ;  uncertainty theta = 0.001435, k = 0.054483
         3         4        33     1      109.754356      400.758709    ;  uncertainty theta = 0.001435, k = 0.054483
         4         3        30     1      109.660057      409.426324    ;  uncertainty theta = 0.002536, k = 0.043240
         4         3        31     1      109.660057      409.426324    ;  uncertainty theta = 0.002536, k = 0.043240
         4         5         6     1      115.228989      525.826128    ;  uncertainty theta = 0.002637, k = 0.228566
         4         5        10     1      126.998001      389.468594    ;  uncertainty theta = 0.004444, k = 0.194784
         5         4        32     1      109.538185      391.019909    ;  uncertainty theta = 0.001716, k = 0.094266
         5         4        33     1      109.538185      391.019909    ;  uncertainty theta = 0.001716, k = 0.094266
         5         6         7     1      121.142456      431.909386    ;  uncertainty theta = 0.005832, k = 0.186094
         5        10         9     1      120.704590      383.635280    ;  uncertainty theta = 0.003907, k = 0.219189
         5        10        11     1      118.136330      406.394175    ;  uncertainty theta = 0.008672, k = 0.375366
         6         2        29     1      108.581688      381.655866    ;  uncertainty theta = 0.003289, k = 0.123988
         6         5        10     1      119.323059      421.792828    ;  uncertainty theta = 0.001990, k = 0.104845
         6         7         8     1      123.692993      443.019465    ;  uncertainty theta = 0.005664, k = 0.190830
         6         7        20     1      116.564636      333.762326    ;  uncertainty theta = 0.009783, k = 0.369147
         7         8         9     1      121.411011      491.498188    ;  uncertainty theta = 0.006679, k = 0.120152
         7         8        34     1      118.645950      262.447842    ;  uncertainty theta = 0.003424, k = 0.121599
         7        20        21     1      116.074509      633.575173    ;  uncertainty theta = 0.008461, k = 0.042235
         7        20        22     1      116.074509      633.575173    ;  uncertainty theta = 0.008461, k = 0.042235
         7        20        23     1      102.883888      476.121879    ;  uncertainty theta = 0.010041, k = 0.283312
         8         7        20     1      115.542892      346.811757    ;  uncertainty theta = 0.010565, k = 0.277281
         8         9        10     1      119.910316      509.779119    ;  uncertainty theta = 0.002495, k = 0.040437
         8         9        35     1      120.002647      276.826798    ;  uncertainty theta = 0.001626, k = 0.037699
         9         8        34     1      120.483727      283.888575    ;  uncertainty theta = 0.002460, k = 0.074860
         9        10        11     1      120.757835      433.874116    ;  uncertainty theta = 0.002811, k = 0.202239
        10         9        35     1      120.292114      276.044724    ;  uncertainty theta = 0.002649, k = 0.068495
        10        11        12     1      112.731567      472.909279    ;  uncertainty theta = 0.002270, k = 0.090985
        11        12        13     1      119.026627      419.851465    ;  uncertainty theta = 0.002706, k = 0.052294
        11        12        19     1      119.290588      404.135418    ;  uncertainty theta = 0.003651, k = 0.053296
        12        13        14     1      117.038597      502.569227    ;  uncertainty theta = 0.003445, k = 0.110867
        12        13        36     1      121.702477      272.440034    ;  uncertainty theta = 0.003455, k = 0.132527
        12        19        17     1      118.761208      522.894787    ;  uncertainty theta = 0.001489, k = 0.068180
        12        19        38     1      120.905983      280.332437    ;  uncertainty theta = 0.002004, k = 0.062093
        13        12        19     1      122.428162      385.560203    ;  uncertainty theta = 0.005403, k = 0.175952
        13        14        15     1      118.267052      494.604714    ;  uncertainty theta = 0.001988, k = 0.058359
        13        14        16     1      123.726730      369.147375    ;  uncertainty theta = 0.006010, k = 0.127235
        14        13        36     1      121.505081      285.104493    ;  uncertainty theta = 0.003243, k = 0.069272
        14        16        17     1      117.400681      493.697380    ;  uncertainty theta = 0.001506, k = 0.173040
        14        16        37     1      121.339279      286.173157    ;  uncertainty theta = 0.003120, k = 0.038569
        15        14        16     1      118.689796      499.274046    ;  uncertainty theta = 0.003051, k = 0.052524
        16        17        18     1      119.117836      375.204905    ;  uncertainty theta = 0.002733, k = 0.097877
        16        17        19     1      122.566833      457.580470    ;  uncertainty theta = 0.002293, k = 0.135282
        17        16        37     1      121.185242      278.472122    ;  uncertainty theta = 0.003138, k = 0.095958
        17        18        26     1      180.000000      233.555922    ;  uncertainty theta = 0.000000, k = 0.675784
        17        19        38     1      120.586197      284.638441    ;  uncertainty theta = 0.004219, k = 0.089604
        18        17        19     1      118.919228      375.151182    ;  uncertainty theta = 0.002637, k = 0.097444
        20        23        24     1      107.987816      427.841995    ;  uncertainty theta = 0.004368, k = 0.138495
        20        23        25     1      107.987816      427.841995    ;  uncertainty theta = 0.004368, k = 0.138495
        20        23        27     1      107.987816      427.841995    ;  uncertainty theta = 0.004368, k = 0.138495
        21        20        22     1      125.478783      852.302430    ;  uncertainty theta = 0.003251, k = 0.080370
        21        20        23     1      104.730919      472.750981    ;  uncertainty theta = 0.011537, k = 0.291825
        22        20        23     1      104.730919      472.750981    ;  uncertainty theta = 0.011537, k = 0.291825
        24        23        25     1      110.914780      787.015533    ;  uncertainty theta = 0.002242, k = 0.073348
        24        23        27     1      110.914780      787.015533    ;  uncertainty theta = 0.002242, k = 0.073348
        25        23        27     1      110.914780      787.015533    ;  uncertainty theta = 0.002242, k = 0.073348
        30         3        31     1      106.018265      313.348089    ;  uncertainty theta = 0.003981, k = 0.146063
        32         4        33     1      104.182007      294.463333    ;  uncertainty theta = 0.002010, k = 0.058192

[ dihedrals ] ; propers for gromacs 4.5 or higher, use funct 9
;       ai        aj        ak        al funct           phase               k        pn
         1         2         3         4     9        0.000000       -3.342062         1    ;  uncertainty k = 1.578877
         1         2         3         4     9      180.000000        0.863846         2    ;  uncertainty k = 0.843811
         1         2         3         4     9        0.000000        1.531305         3    ;  uncertainty k = 0.199465
         1         2         3         4     9      180.000000       -0.088753         4    ;  uncertainty k = 0.065010
         1         2         3        30     9        0.000000       -0.901222         1    ;  uncertainty k = 0.547698
         1         2         3        30     9      180.000000       -0.254161         2    ;  uncertainty k = 0.170661
         1         2         3        30     9        0.000000        1.261862         3    ;  uncertainty k = 0.067842
         1         2         3        30     9      180.000000        0.077065         4    ;  uncertainty k = 0.084589
         1         2         3        31     9        0.000000       -0.901222         1    ;  uncertainty k = 0.547698
         1         2         3        31     9      180.000000       -0.254161         2    ;  uncertainty k = 0.170661
         1         2         3        31     9        0.000000        1.261862         3    ;  uncertainty k = 0.067842
         1         2         3        31     9      180.000000        0.077065         4    ;  uncertainty k = 0.084589
         1         2         6         5     9        0.000000       -4.379542         1    ;  uncertainty k = 1.096047
         1         2         6         5     9      180.000000        4.420235         2    ;  uncertainty k = 0.938946
         1         2         6         5     9        0.000000        1.188648         3    ;  uncertainty k = 0.573625
         1         2         6         5     9      180.000000        0.680305         4    ;  uncertainty k = 0.147523
         1         2         6         7     9        0.000000       -0.546881         1    ;  uncertainty k = 1.596298
         1         2         6         7     9      180.000000        3.842831         2    ;  uncertainty k = 0.299459
         1         2         6         7     9        0.000000       -0.148011         3    ;  uncertainty k = 0.196348
         1         2         6         7     9      180.000000        0.552765         4    ;  uncertainty k = 0.263872
         2         3         4         5     9        0.000000       -0.684299         1    ;  uncertainty k = 1.594146
         2         3         4         5     9      180.000000        4.030407         2    ;  uncertainty k = 1.227423
         2         3         4         5     9        0.000000       -0.006086         3    ;  uncertainty k = 0.543343
         2         3         4         5     9      180.000000       -1.342367         4    ;  uncertainty k = 0.437537
         2         3         4        32     9        0.000000       -0.760454         1    ;  uncertainty k = 0.349584
         2         3         4        32     9      180.000000       -0.549408         2    ;  uncertainty k = 0.110970
         2         3         4        32     9        0.000000        0.498132         3    ;  uncertainty k = 0.225801
         2         3         4        32     9      180.000000        0.222890         4    ;  uncertainty k = 0.087989
         2         3         4        33     9        0.000000       -0.760454         1    ;  uncertainty k = 0.349584
         2         3         4        33     9      180.000000       -0.549408         2    ;  uncertainty k = 0.110970
         2         3         4        33     9        0.000000        0.498132         3    ;  uncertainty k = 0.225801
         2         3         4        33     9      180.000000        0.222890         4    ;  uncertainty k = 0.087989
         2         6         5         4     9        0.000000        0.457907         1    ;  uncertainty k = 0.888330
         2         6         5         4     9      180.000000       12.500785         2    ;  uncertainty k = 0.879076
         2         6         5         4     9        0.000000       -0.511150         3    ;  uncertainty k = 0.477999
         2         6         5         4     9      180.000000        1.311532         4    ;  uncertainty k = 0.212946
         2         6         5        10     9        0.000000        0.467375         1    ;  uncertainty k = 0.454478
         2         6         5        10     9      180.000000        8.639215         2    ;  uncertainty k = 0.336601
         2         6         5        10     9        0.000000        0.682071         3    ;  uncertainty k = 0.425756
         2         6         5        10     9      180.000000        1.354702         4    ;  uncertainty k = 0.101182
         2         6         7         8     9        0.000000        0.340587         1    ;  uncertainty k = 0.413061
         2         6         7         8     9      180.000000        6.477066         2    ;  uncertainty k = 0.277072
         2         6         7         8     9        0.000000        1.143282         3    ;  uncertainty k = 0.313897
         2         6         7         8     9      180.000000        1.611070         4    ;  uncertainty k = 0.130232
         2         6         7        20     9        0.000000        0.199032         1    ;  uncertainty k = 0.364568
         2         6         7        20     9      180.000000        6.584587         2    ;  uncertainty k = 0.663394
         2         6         7        20     9        0.000000        1.017466         3    ;  uncertainty k = 0.191860
         2         6         7        20     9      180.000000        1.203101         4    ;  uncertainty k = 0.174221
         3         2         1        28     9        0.000000       13.805087         1    ;  uncertainty k = 0.571622
         3         2         1        28     9      180.000000       -2.266191         2    ;  uncertainty k = 0.366169
         3         2         1        28     9        0.000000        1.130772         3    ;  uncertainty k = 0.169732
         3         2         1        28     9      180.000000        0.349907         4    ;  uncertainty k = 0.090577
         3         2         6         5     9        0.000000       -2.450873         1    ;  uncertainty k = 1.682134
         3         2         6         5     9      180.000000        9.223097         2    ;  uncertainty k = 0.769965
         3         2         6         5     9        0.000000       -0.765329         3    ;  uncertainty k = 0.410311
         3         2         6         5     9      180.000000        0.883012         4    ;  uncertainty k = 0.115118
         3         2         6         7     9        0.000000       -1.682995         1    ;  uncertainty k = 1.403111
         3         2         6         7     9      180.000000        3.216821         2    ;  uncertainty k = 0.499979
         3         2         6         7     9        0.000000        0.415704         3    ;  uncertainty k = 0.492031
         3         2         6         7     9      180.000000        0.568646         4    ;  uncertainty k = 0.108639
         3         4         5         6     9        0.000000       -1.904246         1    ;  uncertainty k = 2.044437
         3         4         5         6     9      180.000000       10.507933         2    ;  uncertainty k = 0.620364
         3         4         5         6     9        0.000000       -1.524724         3    ;  uncertainty k = 0.375969
         3         4         5         6     9      180.000000        0.763728         4    ;  uncertainty k = 0.238966
         3         4         5        10     9        0.000000       -1.161648         1    ;  uncertainty k = 0.921489
         3         4         5        10     9      180.000000        2.437251         2    ;  uncertainty k = 0.205727
         3         4         5        10     9        0.000000        0.566258         3    ;  uncertainty k = 0.315840
         3         4         5        10     9      180.000000        0.576992         4    ;  uncertainty k = 0.156603
         4         3         2         6     9        0.000000       -0.462046         1    ;  uncertainty k = 1.128141
         4         3         2         6     9      180.000000        3.611341         2    ;  uncertainty k = 1.029589
         4         3         2         6     9        0.000000        0.143904         3    ;  uncertainty k = 0.380045
         4         3         2         6     9      180.000000       -1.009935         4    ;  uncertainty k = 0.509819
         4         3         2        29     9        0.000000       -1.418650         1    ;  uncertainty k = 0.646272
         4         3         2        29     9      180.000000        0.816216         2    ;  uncertainty k = 0.436171
         4         3         2        29     9        0.000000        0.532242         3    ;  uncertainty k = 0.277440
         4         3         2        29     9      180.000000       -0.034024         4    ;  uncertainty k = 0.120488
         4         5         6         7     9        0.000000        0.115599         1    ;  uncertainty k = 0.773842
         4         5         6         7     9      180.000000        8.703335         2    ;  uncertainty k = 0.514858
         4         5         6         7     9        0.000000        0.657073         3    ;  uncertainty k = 0.525107
         4         5         6         7     9      180.000000        1.217080         4    ;  uncertainty k = 0.190285
         4         5        10         9     9        0.000000        0.370449         1    ;  uncertainty k = 0.382720
         4         5        10         9     9      180.000000        6.005683         2    ;  uncertainty k = 0.329698
         4         5        10         9     9        0.000000        1.325238         3    ;  uncertainty k = 0.234944
         4         5        10         9     9      180.000000        1.655461         4    ;  uncertainty k = 0.256702
         4         5        10        11     9        0.000000       -0.107851         1    ;  uncertainty k = 0.416558
         4         5        10        11     9      180.000000        8.900310         2    ;  uncertainty k = 0.289328
         4         5        10        11     9        0.000000        0.990025         3    ;  uncertainty k = 0.103547
         4         5        10        11     9      180.000000        1.321184         4    ;  uncertainty k = 0.212051
         5         4         3        30     9        0.000000       -0.910347         1    ;  uncertainty k = 0.467044
         5         4         3        30     9      180.000000       -0.234195         2    ;  uncertainty k = 0.201434
         5         4         3        30     9        0.000000        0.719507         3    ;  uncertainty k = 0.104728
         5         4         3        30     9      180.000000        0.032904         4    ;  uncertainty k = 0.100554
         5         4         3        31     9        0.000000       -0.910347         1    ;  uncertainty k = 0.467044
         5         4         3        31     9      180.000000       -0.234195         2    ;  uncertainty k = 0.201434
         5         4         3        31     9        0.000000        0.719507         3    ;  uncertainty k = 0.104728
         5         4         3        31     9      180.000000        0.032904         4    ;  uncertainty k = 0.100554
         5         6         2        29     9        0.000000       -0.295045         1    ;  uncertainty k = 0.599316
         5         6         2        29     9      180.000000        3.063425         2    ;  uncertainty k = 0.663451
         5         6         2        29     9        0.000000        0.671181         3    ;  uncertainty k = 0.154838
         5         6         2        29     9      180.000000        0.245596         4    ;  uncertainty k = 0.140532
         5         6         7         8     9        0.000000       -0.221880         1    ;  uncertainty k = 0.538420
         5         6         7         8     9      180.000000        9.849197         2    ;  uncertainty k = 0.562567
         5         6         7         8     9        0.000000       -0.643145         3    ;  uncertainty k = 0.472934
         5         6         7         8     9      180.000000        0.893036         4    ;  uncertainty k = 0.228465
         5         6         7        20     9        0.000000        0.542023         1    ;  uncertainty k = 0.832698
         5         6         7        20     9      180.000000        7.821112         2    ;  uncertainty k = 0.797708
         5         6         7        20     9        0.000000        1.394520         3    ;  uncertainty k = 0.409022
         5         6         7        20     9      180.000000        1.636270         4    ;  uncertainty k = 0.216614
         5        10         9         8     9        0.000000        0.231856         1    ;  uncertainty k = 0.149860
         5        10         9         8     9      180.000000        9.032845         2    ;  uncertainty k = 0.413479
         5        10         9         8     9        0.000000        0.213835         3    ;  uncertainty k = 0.400103
         5        10         9         8     9      180.000000        1.302285         4    ;  uncertainty k = 0.301191
         5        10         9        35     9        0.000000        0.191103         1    ;  uncertainty k = 0.285076
         5        10         9        35     9      180.000000        6.713350         2    ;  uncertainty k = 0.491896
         5        10         9        35     9        0.000000        1.376908         3    ;  uncertainty k = 0.474513
         5        10         9        35     9      180.000000        1.630376         4    ;  uncertainty k = 0.119823
         5        10        11        12     9        0.000000        4.574535         1    ;  uncertainty k = 0.575013
         5        10        11        12     9      180.000000        4.729841         2    ;  uncertainty k = 0.354519
         5        10        11        12     9        0.000000        0.799970         3    ;  uncertainty k = 0.048477
         5        10        11        12     9      180.000000        0.165581         4    ;  uncertainty k = 0.088410
         6         2         1        28     9        0.000000       15.088646         1    ;  uncertainty k = 0.592945
         6         2         1        28     9      180.000000       -4.269962         2    ;  uncertainty k = 0.436208
         6         2         1        28     9        0.000000        1.007232         3    ;  uncertainty k = 0.117107
         6         2         1        28     9      180.000000        0.018919         4    ;  uncertainty k = 0.099035
         6         2         3        30     9        0.000000       -0.730830         1    ;  uncertainty k = 0.446856
         6         2         3        30     9      180.000000       -0.349470         2    ;  uncertainty k = 0.296672
         6         2         3        30     9        0.000000        0.585655         3    ;  uncertainty k = 0.085530
         6         2         3        30     9      180.000000       -0.032552         4    ;  uncertainty k = 0.078755
         6         2         3        31     9        0.000000       -0.730830         1    ;  uncertainty k = 0.446856
         6         2         3        31     9      180.000000       -0.349470         2    ;  uncertainty k = 0.296672
         6         2         3        31     9        0.000000        0.585655         3    ;  uncertainty k = 0.085530
         6         2         3        31     9      180.000000       -0.032552         4    ;  uncertainty k = 0.078755
         6         5         4        32     9        0.000000       -0.115128         1    ;  uncertainty k = 0.545788
         6         5         4        32     9      180.000000        1.705074         2    ;  uncertainty k = 0.316656
         6         5         4        32     9        0.000000        0.267773         3    ;  uncertainty k = 0.128307
         6         5         4        32     9      180.000000        0.275243         4    ;  uncertainty k = 0.108792
         6         5         4        33     9        0.000000       -0.115128         1    ;  uncertainty k = 0.545788
         6         5         4        33     9      180.000000        1.705074         2    ;  uncertainty k = 0.316656
         6         5         4        33     9        0.000000        0.267773         3    ;  uncertainty k = 0.128307
         6         5         4        33     9      180.000000        0.275243         4    ;  uncertainty k = 0.108792
         6         5        10         9     9        0.000000       -0.180441         1    ;  uncertainty k = 0.113478
         6         5        10         9     9      180.000000        8.152897         2    ;  uncertainty k = 0.485529
         6         5        10         9     9        0.000000       -0.440831         3    ;  uncertainty k = 0.449862
         6         5        10         9     9      180.000000        1.078924         4    ;  uncertainty k = 0.286378
         6         5        10        11     9        0.000000        0.103436         1    ;  uncertainty k = 0.226764
         6         5        10        11     9      180.000000        9.657377         2    ;  uncertainty k = 0.304779
         6         5        10        11     9        0.000000        1.404484         3    ;  uncertainty k = 0.280606
         6         5        10        11     9      180.000000        1.553148         4    ;  uncertainty k = 0.152276
         6         7         8         9     9        0.000000       -0.266774         1    ;  uncertainty k = 0.307297
         6         7         8         9     9      180.000000       10.432257         2    ;  uncertainty k = 0.577606
         6         7         8         9     9        0.000000       -0.360279         3    ;  uncertainty k = 0.486267
         6         7         8         9     9      180.000000        1.009052         4    ;  uncertainty k = 0.465943
         6         7         8        34     9        0.000000       -0.034862         1    ;  uncertainty k = 0.360521
         6         7         8        34     9      180.000000        7.297850         2    ;  uncertainty k = 0.550849
         6         7         8        34     9        0.000000        1.236790         3    ;  uncertainty k = 0.435945
         6         7         8        34     9      180.000000        1.582191         4    ;  uncertainty k = 0.045125
         6         7        20        21     9        0.000000       -2.310128         1    ;  uncertainty k = 2.512786
         6         7        20        21     9      180.000000        0.977349         2    ;  uncertainty k = 0.590428
         6         7        20        21     9        0.000000        0.411027         3    ;  uncertainty k = 0.422440
         6         7        20        21     9      180.000000        0.012615         4    ;  uncertainty k = 0.190340
         6         7        20        22     9        0.000000       -2.310128         1    ;  uncertainty k = 2.512786
         6         7        20        22     9      180.000000        0.977349         2    ;  uncertainty k = 0.590428
         6         7        20        22     9        0.000000        0.411027         3    ;  uncertainty k = 0.422440
         6         7        20        22     9      180.000000        0.012615         4    ;  uncertainty k = 0.190340
         6         7        20        23     9        0.000000        3.087725         1    ;  uncertainty k = 2.030635
         6         7        20        23     9      180.000000       -0.800260         2    ;  uncertainty k = 0.526717
         6         7        20        23     9        0.000000        0.095386         3    ;  uncertainty k = 0.527762
         6         7        20        23     9      180.000000        0.151400         4    ;  uncertainty k = 0.181913
         7         6         2        29     9        0.000000        2.054799         1    ;  uncertainty k = 0.660628
         7         6         2        29     9      180.000000        1.877053         2    ;  uncertainty k = 0.650537
         7         6         2        29     9        0.000000       -0.153772         3    ;  uncertainty k = 0.123773
         7         6         2        29     9      180.000000        0.186570         4    ;  uncertainty k = 0.182984
         7         6         5        10     9        0.000000        0.115723         1    ;  uncertainty k = 0.571048
         7         6         5        10     9      180.000000        8.208627         2    ;  uncertainty k = 0.361521
         7         6         5        10     9        0.000000        0.133605         3    ;  uncertainty k = 0.222144
         7         6         5        10     9      180.000000        1.177924         4    ;  uncertainty k = 0.273840
         7         8         9        10     9        0.000000        0.071918         1    ;  uncertainty k = 0.388720
         7         8         9        10     9      180.000000       12.201065         2    ;  uncertainty k = 0.432364
         7         8         9        10     9        0.000000       -0.847214         3    ;  uncertainty k = 0.666059
         7         8         9        10     9      180.000000        0.877099         4    ;  uncertainty k = 0.374958
         7         8         9        35     9        0.000000       -0.058213         1    ;  uncertainty k = 0.458149
         7         8         9        35     9      180.000000        8.388257         2    ;  uncertainty k = 0.214271
         7         8         9        35     9        0.000000        1.197045         3    ;  uncertainty k = 0.240385
         7         8         9        35     9      180.000000        1.718388         4    ;  uncertainty k = 0.127933
         7        20        23        24     9        0.000000        0.682413         1    ;  uncertainty k = 1.018303
         7        20        23        24     9      180.000000       -0.407418         2    ;  uncertainty k = 0.693000
         7        20        23        24     9        0.000000        0.251355         3    ;  uncertainty k = 0.236032
         7        20        23        24     9      180.000000       -0.251764         4    ;  uncertainty k = 0.125329
         7        20        23        25     9        0.000000        0.682413         1    ;  uncertainty k = 1.018303
         7        20        23        25     9      180.000000       -0.407418         2    ;  uncertainty k = 0.693000
         7        20        23        25     9        0.000000        0.251355         3    ;  uncertainty k = 0.236032
         7        20        23        25     9      180.000000       -0.251764         4    ;  uncertainty k = 0.125329
         7        20        23        27     9        0.000000        0.682413         1    ;  uncertainty k = 1.018303
         7        20        23        27     9      180.000000       -0.407418         2    ;  uncertainty k = 0.693000
         7        20        23        27     9        0.000000        0.251355         3    ;  uncertainty k = 0.236032
         7        20        23        27     9      180.000000       -0.251764         4    ;  uncertainty k = 0.125329
         8         7        20        21     9        0.000000       -1.397248         1    ;  uncertainty k = 1.282090
         8         7        20        21     9      180.000000        1.163596         2    ;  uncertainty k = 0.923137
         8         7        20        21     9        0.000000        0.164990         3    ;  uncertainty k = 0.306823
         8         7        20        21     9      180.000000        0.039306         4    ;  uncertainty k = 0.218050
         8         7        20        22     9        0.000000       -1.397248         1    ;  uncertainty k = 1.282090
         8         7        20        22     9      180.000000        1.163596         2    ;  uncertainty k = 0.923137
         8         7        20        22     9        0.000000        0.164990         3    ;  uncertainty k = 0.306823
         8         7        20        22     9      180.000000        0.039306         4    ;  uncertainty k = 0.218050
         8         7        20        23     9        0.000000        3.104059         1    ;  uncertainty k = 1.174371
         8         7        20        23     9      180.000000       -0.284139         2    ;  uncertainty k = 0.685340
         8         7        20        23     9        0.000000       -0.001383         3    ;  uncertainty k = 0.656208
         8         7        20        23     9      180.000000        0.152650         4    ;  uncertainty k = 0.148690
         8         9        10        11     9        0.000000       -0.017539         1    ;  uncertainty k = 0.307763
         8         9        10        11     9      180.000000       10.948777         2    ;  uncertainty k = 0.482822
         8         9        10        11     9        0.000000        1.504598         3    ;  uncertainty k = 0.308413
         8         9        10        11     9      180.000000        1.724437         4    ;  uncertainty k = 0.264662
         9         8         7        20     9        0.000000        0.467813         1    ;  uncertainty k = 0.199201
         9         8         7        20     9      180.000000        9.037118         2    ;  uncertainty k = 0.660606
         9         8         7        20     9        0.000000        1.336146         3    ;  uncertainty k = 0.345983
         9         8         7        20     9      180.000000        1.870462         4    ;  uncertainty k = 0.177659
         9        10        11        12     9        0.000000        5.063441         1    ;  uncertainty k = 0.349980
         9        10        11        12     9      180.000000        5.517291         2    ;  uncertainty k = 0.168889
         9        10        11        12     9        0.000000        0.371955         3    ;  uncertainty k = 0.110094
         9        10        11        12     9      180.000000        0.198556         4    ;  uncertainty k = 0.080755
        10         5         4        32     9        0.000000        0.848574         1    ;  uncertainty k = 0.331442
        10         5         4        32     9      180.000000        1.575034         2    ;  uncertainty k = 0.739757
        10         5         4        32     9        0.000000        0.112942         3    ;  uncertainty k = 0.240332
        10         5         4        32     9      180.000000        0.266171         4    ;  uncertainty k = 0.138592
        10         5         4        33     9        0.000000        0.848574         1    ;  uncertainty k = 0.331442
        10         5         4        33     9      180.000000        1.575034         2    ;  uncertainty k = 0.739757
        10         5         4        33     9        0.000000        0.112942         3    ;  uncertainty k = 0.240332
        10         5         4        33     9      180.000000        0.266171         4    ;  uncertainty k = 0.138592
        10         9         8        34     9        0.000000       -0.101052         1    ;  uncertainty k = 0.368603
        10         9         8        34     9      180.000000        7.941114         2    ;  uncertainty k = 0.158737
        10         9         8        34     9        0.000000        1.042636         3    ;  uncertainty k = 0.233715
        10         9         8        34     9      180.000000        1.714158         4    ;  uncertainty k = 0.067032
        10        11        12        13     9        0.000000        4.224174         1    ;  uncertainty k = 0.385339
        10        11        12        13     9      180.000000        5.453712         2    ;  uncertainty k = 0.264298
        10        11        12        13     9        0.000000        0.428637         3    ;  uncertainty k = 0.155519
        10        11        12        13     9      180.000000        0.160154         4    ;  uncertainty k = 0.094859
        10        11        12        19     9        0.000000        4.263509         1    ;  uncertainty k = 0.404419
        10        11        12        19     9      180.000000        5.708795         2    ;  uncertainty k = 0.256924
        10        11        12        19     9        0.000000        0.384330         3    ;  uncertainty k = 0.170537
        10        11        12        19     9      180.000000        0.140727         4    ;  uncertainty k = 0.118265
        11        10         9        35     9        0.000000       -0.019447         1    ;  uncertainty k = 0.162532
        11        10         9        35     9      180.000000        9.039640         2    ;  uncertainty k = 0.355013
        11        10         9        35     9        0.000000        0.850702         3    ;  uncertainty k = 0.237824
        11        10         9        35     9      180.000000        1.130885         4    ;  uncertainty k = 0.140139
        11        12        13        14     9        0.000000        0.110616         1    ;  uncertainty k = 0.280260
        11        12        13        14     9      180.000000       10.825049         2    ;  uncertainty k = 0.268023
        11        12        13        14     9        0.000000        1.291452         3    ;  uncertainty k = 0.181954
        11        12        13        14     9      180.000000        1.601789         4    ;  uncertainty k = 0.123424
        11        12        13        36     9        0.000000       -0.096546         1    ;  uncertainty k = 0.131039
        11        12        13        36     9      180.000000        8.372996         2    ;  uncertainty k = 0.282068
        11        12        13        36     9        0.000000        0.828749         3    ;  uncertainty k = 0.203572
        11        12        13        36     9      180.000000        1.093044         4    ;  uncertainty k = 0.104496
        11        12        19        17     9        0.000000       -0.066703         1    ;  uncertainty k = 0.256317
        11        12        19        17     9      180.000000       11.317502         2    ;  uncertainty k = 0.454829
        11        12        19        17     9        0.000000        1.188762         3    ;  uncertainty k = 0.073630
        11        12        19        17     9      180.000000        1.617869         4    ;  uncertainty k = 0.138905
        11        12        19        38     9        0.000000        0.114391         1    ;  uncertainty k = 0.181010
        11        12        19        38     9      180.000000        8.496717         2    ;  uncertainty k = 0.306846
        11        12        19        38     9        0.000000        0.848986         3    ;  uncertainty k = 0.295991
        11        12        19        38     9      180.000000        1.147922         4    ;  uncertainty k = 0.169207
        12        13        14        15     9        0.000000        0.029267         1    ;  uncertainty k = 0.076351
        12        13        14        15     9      180.000000       12.681220         2    ;  uncertainty k = 0.591249
        12        13        14        15     9        0.000000        1.486062         3    ;  uncertainty k = 0.376399
        12        13        14        15     9      180.000000        1.475435         4    ;  uncertainty k = 0.279101
        12        13        14        16     9        0.000000       -0.041312         1    ;  uncertainty k = 0.166168
        12        13        14        16     9      180.000000        8.711743         2    ;  uncertainty k = 0.535595
        12        13        14        16     9        0.000000        0.058226         3    ;  uncertainty k = 0.483440
        12        13        14        16     9      180.000000        1.296510         4    ;  uncertainty k = 0.287570
        12        19        17        16     9        0.000000       -0.126135         1    ;  uncertainty k = 0.335758
        12        19        17        16     9      180.000000       11.543728         2    ;  uncertainty k = 0.211528
        12        19        17        16     9        0.000000       -0.409273         3    ;  uncertainty k = 0.525587
        12        19        17        16     9      180.000000        1.114605         4    ;  uncertainty k = 0.265123
        12        19        17        18     9        0.000000        0.008933         1    ;  uncertainty k = 0.224406
        12        19        17        18     9      180.000000       10.110912         2    ;  uncertainty k = 0.333390
        12        19        17        18     9        0.000000        1.306913         3    ;  uncertainty k = 0.264685
        12        19        17        18     9      180.000000        1.637563         4    ;  uncertainty k = 0.199965
        13        12        19        17     9        0.000000       -0.051322         1    ;  uncertainty k = 0.175220
        13        12        19        17     9      180.000000        9.609478         2    ;  uncertainty k = 0.403633
        13        12        19        17     9        0.000000        0.176055         3    ;  uncertainty k = 0.389800
        13        12        19        17     9      180.000000        1.259071         4    ;  uncertainty k = 0.358591
        13        12        19        38     9        0.000000        0.319861         1    ;  uncertainty k = 0.231991
        13        12        19        38     9      180.000000        6.318270         2    ;  uncertainty k = 0.750341
        13        12        19        38     9        0.000000        1.465273         3    ;  uncertainty k = 0.273057
        13        12        19        38     9      180.000000        1.603175         4    ;  uncertainty k = 0.165843
        13        14        16        17     9        0.000000       -0.019167         1    ;  uncertainty k = 0.236218
        13        14        16        17     9      180.000000        9.329732         2    ;  uncertainty k = 0.304985
        13        14        16        17     9        0.000000        0.099008         3    ;  uncertainty k = 0.304607
        13        14        16        17     9      180.000000        1.274852         4    ;  uncertainty k = 0.274241
        13        14        16        37     9        0.000000       -0.000593         1    ;  uncertainty k = 0.199602
        13        14        16        37     9      180.000000        5.887325         2    ;  uncertainty k = 0.750109
        13        14        16        37     9        0.000000        1.321078         3    ;  uncertainty k = 0.278410
        13        14        16        37     9      180.000000        1.516102         4    ;  uncertainty k = 0.088176
        14        13        12        19     9        0.000000        0.083575         1    ;  uncertainty k = 0.184356
        14        13        12        19     9      180.000000        9.069038         2    ;  uncertainty k = 0.673942
        14        13        12        19     9        0.000000        0.004877         3    ;  uncertainty k = 0.505260
        14        13        12        19     9      180.000000        1.219759         4    ;  uncertainty k = 0.386904
        14        16        17        18     9        0.000000        0.042737         1    ;  uncertainty k = 0.291483
        14        16        17        18     9      180.000000        9.815526         2    ;  uncertainty k = 0.311825
        14        16        17        18     9        0.000000        1.325513         3    ;  uncertainty k = 0.249458
        14        16        17        18     9      180.000000        1.659796         4    ;  uncertainty k = 0.165102
        14        16        17        19     9        0.000000       -0.093634         1    ;  uncertainty k = 0.287446
        14        16        17        19     9      180.000000       11.524169         2    ;  uncertainty k = 0.474663
        14        16        17        19     9        0.000000       -0.540684         3    ;  uncertainty k = 0.386751
        14        16        17        19     9      180.000000        1.065656         4    ;  uncertainty k = 0.270989
        15        14        13        36     9        0.000000       -0.266165         1    ;  uncertainty k = 0.229666
        15        14        13        36     9      180.000000        8.750384         2    ;  uncertainty k = 0.391886
        15        14        13        36     9        0.000000        0.839204         3    ;  uncertainty k = 0.231015
        15        14        13        36     9      180.000000        1.056841         4    ;  uncertainty k = 0.208951
        15        14        16        17     9        0.000000       -0.039623         1    ;  uncertainty k = 0.207167
        15        14        16        17     9      180.000000       13.467148         2    ;  uncertainty k = 0.458195
        15        14        16        17     9        0.000000        1.330325         3    ;  uncertainty k = 0.272641
        15        14        16        17     9      180.000000        1.408183         4    ;  uncertainty k = 0.220523
        15        14        16        37     9        0.000000       -0.317019         1    ;  uncertainty k = 0.306342
        15        14        16        37     9      180.000000        8.994255         2    ;  uncertainty k = 0.352455
        15        14        16        37     9        0.000000        0.799840         3    ;  uncertainty k = 0.209801
        15        14        16        37     9      180.000000        1.001169         4    ;  uncertainty k = 0.172439
        16        14        13        36     9        0.000000        0.117728         1    ;  uncertainty k = 0.152876
        16        14        13        36     9      180.000000        5.739162         2    ;  uncertainty k = 0.725581
        16        14        13        36     9        0.000000        1.354805         3    ;  uncertainty k = 0.319905
        16        14        13        36     9      180.000000        1.531360         4    ;  uncertainty k = 0.102992
        16        17        18        26     9        0.000000        0.000000         1    ;  uncertainty k = 0.000000
        16        17        18        26     9      180.000000        0.000000         2    ;  uncertainty k = 0.000000
        16        17        18        26     9        0.000000        0.000000         3    ;  uncertainty k = 0.000000
        16        17        18        26     9      180.000000        0.000000         4    ;  uncertainty k = 0.000000
        16        17        19        38     9        0.000000        0.266901         1    ;  uncertainty k = 0.392933
        16        17        19        38     9      180.000000        6.702181         2    ;  uncertainty k = 0.686766
        16        17        19        38     9        0.000000        1.492380         3    ;  uncertainty k = 0.274536
        16        17        19        38     9      180.000000        1.680830         4    ;  uncertainty k = 0.134103
        18        17        16        37     9        0.000000       -0.401280         1    ;  uncertainty k = 0.467937
        18        17        16        37     9      180.000000        7.099068         2    ;  uncertainty k = 0.224071
        18        17        16        37     9        0.000000        0.520905         3    ;  uncertainty k = 0.112594
        18        17        16        37     9      180.000000        0.955860         4    ;  uncertainty k = 0.230500
        18        17        19        38     9        0.000000       -0.303371         1    ;  uncertainty k = 0.311612
        18        17        19        38     9      180.000000        7.433399         2    ;  uncertainty k = 0.295932
        18        17        19        38     9        0.000000        0.543142         3    ;  uncertainty k = 0.139134
        18        17        19        38     9      180.000000        0.967541         4    ;  uncertainty k = 0.213771
        19        12        13        36     9        0.000000        0.238077         1    ;  uncertainty k = 0.231773
        19        12        13        36     9      180.000000        5.993858         2    ;  uncertainty k = 0.765201
        19        12        13        36     9        0.000000        1.476771         3    ;  uncertainty k = 0.368309
        19        12        13        36     9      180.000000        1.569369         4    ;  uncertainty k = 0.131184
        19        17        16        37     9        0.000000        0.157284         1    ;  uncertainty k = 0.536677
        19        17        16        37     9      180.000000        6.651379         2    ;  uncertainty k = 0.604357
        19        17        16        37     9        0.000000        1.457227         3    ;  uncertainty k = 0.366961
        19        17        16        37     9      180.000000        1.599688         4    ;  uncertainty k = 0.107457
        19        17        18        26     9        0.000000        0.000000         1    ;  uncertainty k = 0.000000
        19        17        18        26     9      180.000000        0.000000         2    ;  uncertainty k = 0.000000
        19        17        18        26     9        0.000000        0.000000         3    ;  uncertainty k = 0.000000
        19        17        18        26     9      180.000000        0.000000         4    ;  uncertainty k = 0.000000
        20         7         8        34     9        0.000000       -0.288877         1    ;  uncertainty k = 0.394515
        20         7         8        34     9      180.000000        6.627265         2    ;  uncertainty k = 0.450077
        20         7         8        34     9        0.000000        0.810678         3    ;  uncertainty k = 0.197779
        20         7         8        34     9      180.000000        1.177314         4    ;  uncertainty k = 0.146705
        21        20        23        24     9        0.000000        1.240387         1    ;  uncertainty k = 0.704630
        21        20        23        24     9      180.000000       -0.465947         2    ;  uncertainty k = 0.475076
        21        20        23        24     9        0.000000        0.429513         3    ;  uncertainty k = 0.131938
        21        20        23        24     9      180.000000       -0.011191         4    ;  uncertainty k = 0.163591
        21        20        23        25     9        0.000000        1.240387         1    ;  uncertainty k = 0.704630
        21        20        23        25     9      180.000000       -0.465947         2    ;  uncertainty k = 0.475076
        21        20        23        25     9        0.000000        0.429513         3    ;  uncertainty k = 0.131938
        21        20        23        25     9      180.000000       -0.011191         4    ;  uncertainty k = 0.163591
        21        20        23        27     9        0.000000        1.240387         1    ;  uncertainty k = 0.704630
        21        20        23        27     9      180.000000       -0.465947         2    ;  uncertainty k = 0.475076
        21        20        23        27     9        0.000000        0.429513         3    ;  uncertainty k = 0.131938
        21        20        23        27     9      180.000000       -0.011191         4    ;  uncertainty k = 0.163591
        22        20        23        24     9        0.000000        1.240387         1    ;  uncertainty k = 0.704630
        22        20        23        24     9      180.000000       -0.465947         2    ;  uncertainty k = 0.475076
        22        20        23        24     9        0.000000        0.429513         3    ;  uncertainty k = 0.131938
        22        20        23        24     9      180.000000       -0.011191         4    ;  uncertainty k = 0.163591
        22        20        23        25     9        0.000000        1.240387         1    ;  uncertainty k = 0.704630
        22        20        23        25     9      180.000000       -0.465947         2    ;  uncertainty k = 0.475076
        22        20        23        25     9        0.000000        0.429513         3    ;  uncertainty k = 0.131938
        22        20        23        25     9      180.000000       -0.011191         4    ;  uncertainty k = 0.163591
        22        20        23        27     9        0.000000        1.240387         1    ;  uncertainty k = 0.704630
        22        20        23        27     9      180.000000       -0.465947         2    ;  uncertainty k = 0.475076
        22        20        23        27     9        0.000000        0.429513         3    ;  uncertainty k = 0.131938
        22        20        23        27     9      180.000000       -0.011191         4    ;  uncertainty k = 0.163591
        28         1         2        29     9        0.000000       10.854878         1    ;  uncertainty k = 0.649091
        28         1         2        29     9      180.000000       -1.586978         2    ;  uncertainty k = 0.391083
        28         1         2        29     9        0.000000        0.917564         3    ;  uncertainty k = 0.113424
        28         1         2        29     9      180.000000        0.158654         4    ;  uncertainty k = 0.107591
        29         2         3        30     9        0.000000        0.725597         1    ;  uncertainty k = 0.153292
        29         2         3        30     9      180.000000       -0.598048         2    ;  uncertainty k = 0.185183
        29         2         3        30     9        0.000000        0.658388         3    ;  uncertainty k = 0.022633
        29         2         3        30     9      180.000000        0.092971         4    ;  uncertainty k = 0.057888
        29         2         3        31     9        0.000000        0.725597         1    ;  uncertainty k = 0.153292
        29         2         3        31     9      180.000000       -0.598048         2    ;  uncertainty k = 0.185183
        29         2         3        31     9        0.000000        0.658388         3    ;  uncertainty k = 0.022633
        29         2         3        31     9      180.000000        0.092971         4    ;  uncertainty k = 0.057888
        30         3         4        32     9        0.000000        1.132922         1    ;  uncertainty k = 0.276104
        30         3         4        32     9      180.000000       -0.153614         2    ;  uncertainty k = 0.086338
        30         3         4        32     9        0.000000        0.760977         3    ;  uncertainty k = 0.007636
        30         3         4        32     9      180.000000        0.101358         4    ;  uncertainty k = 0.038765
        30         3         4        33     9        0.000000        1.132922         1    ;  uncertainty k = 0.276104
        30         3         4        33     9      180.000000       -0.153614         2    ;  uncertainty k = 0.086338
        30         3         4        33     9        0.000000        0.760977         3    ;  uncertainty k = 0.007636
        30         3         4        33     9      180.000000        0.101358         4    ;  uncertainty k = 0.038765
        31         3         4        32     9        0.000000        1.132922         1    ;  uncertainty k = 0.276104
        31         3         4        32     9      180.000000       -0.153614         2    ;  uncertainty k = 0.086338
        31         3         4        32     9        0.000000        0.760977         3    ;  uncertainty k = 0.007636
        31         3         4        32     9      180.000000        0.101358         4    ;  uncertainty k = 0.038765
        31         3         4        33     9        0.000000        1.132922         1    ;  uncertainty k = 0.276104
        31         3         4        33     9      180.000000       -0.153614         2    ;  uncertainty k = 0.086338
        31         3         4        33     9        0.000000        0.760977         3    ;  uncertainty k = 0.007636
        31         3         4        33     9      180.000000        0.101358         4    ;  uncertainty k = 0.038765
        34         8         9        35     9        0.000000       -0.165486         1    ;  uncertainty k = 0.419786
        34         8         9        35     9      180.000000        7.643531         2    ;  uncertainty k = 0.379022
        34         8         9        35     9        0.000000       -0.326619         3    ;  uncertainty k = 0.321270
        34         8         9        35     9      180.000000        0.277569         4    ;  uncertainty k = 0.115780

[ dihedrals ] ; impropers
;       ai        aj        ak        al funct           phase               k        pn
         5         4         6        10     4      180.000000        5.240458         2    ;  uncertainty k = 0.439952
         5         6        10         4     4      180.000000        5.240458         2    ;  uncertainty k = 0.439952
         5        10         4         6     4      180.000000        5.240458         2    ;  uncertainty k = 0.439952
         6         2         5         7     4      180.000000        6.954262         2    ;  uncertainty k = 0.259297
         6         5         7         2     4      180.000000        6.954262         2    ;  uncertainty k = 0.259297
         6         7         2         5     4      180.000000        6.954262         2    ;  uncertainty k = 0.259297
         7         6         8        20     4      180.000000        5.154918         2    ;  uncertainty k = 0.419222
         7         8        20         6     4      180.000000        5.154918         2    ;  uncertainty k = 0.419222
         7        20         6         8     4      180.000000        5.154918         2    ;  uncertainty k = 0.419222
         8         7         9        34     4      180.000000        5.361699         2    ;  uncertainty k = 0.238183
         8         9        34         7     4      180.000000        5.361699         2    ;  uncertainty k = 0.238183
         8        34         7         9     4      180.000000        5.361699         2    ;  uncertainty k = 0.238183
         9         8        10        35     4      180.000000        2.033635         2    ;  uncertainty k = 0.117710
         9        10        35         8     4      180.000000        2.033635         2    ;  uncertainty k = 0.117710
         9        35         8        10     4      180.000000        2.033635         2    ;  uncertainty k = 0.117710
        10         5         9        11     4      180.000000       17.342738         2    ;  uncertainty k = 0.100112
        10         9        11         5     4      180.000000       17.342738         2    ;  uncertainty k = 0.100112
        10        11         5         9     4      180.000000       17.342738         2    ;  uncertainty k = 0.100112
        12        11        13        19     4      180.000000       19.053422         2    ;  uncertainty k = 0.038066
        12        13        19        11     4      180.000000       19.053422         2    ;  uncertainty k = 0.038066
        12        19        11        13     4      180.000000       19.053422         2    ;  uncertainty k = 0.038066
        13        12        14        36     4      180.000000        1.848818         2    ;  uncertainty k = 0.255047
        13        14        36        12     4      180.000000        1.848818         2    ;  uncertainty k = 0.255047
        13        36        12        14     4      180.000000        1.848818         2    ;  uncertainty k = 0.255047
        14        13        15        16     4      180.000000       17.880537         2    ;  uncertainty k = 0.047509
        14        15        16        13     4      180.000000       17.880537         2    ;  uncertainty k = 0.047509
        14        16        13        15     4      180.000000       17.880537         2    ;  uncertainty k = 0.047509
        16        14        17        37     4      180.000000        2.461655         2    ;  uncertainty k = 0.340230
        16        17        37        14     4      180.000000        2.461655         2    ;  uncertainty k = 0.340230
        16        37        14        17     4      180.000000        2.461655         2    ;  uncertainty k = 0.340230
        17        16        18        19     4      180.000000       11.727372         2    ;  uncertainty k = 0.187314
        17        18        19        16     4      180.000000       11.727372         2    ;  uncertainty k = 0.187314
        17        19        16        18     4      180.000000       11.727372         2    ;  uncertainty k = 0.187314
        19        12        17        38     4      180.000000        2.852757         2    ;  uncertainty k = 0.269075
        19        17        38        12     4      180.000000        2.852757         2    ;  uncertainty k = 0.269075
        19        38        12        17     4      180.000000        2.852757         2    ;  uncertainty k = 0.269075

[ pairs ]
;       ai        aj funct
         1         4     1
         1         5     1
         1         7     1
         1        30     1
         1        31     1
         2         8     1
         2        10     1
         2        20     1
         2        32     1
         2        33     1
         3         7     1
         3        10     1
         3        28     1
         4         7     1
         4         9     1
         4        11     1
         4        29     1
         5         8     1
         5        12     1
         5        20     1
         5        29     1
         5        30     1
         5        31     1
         5        35     1
         6         9     1
         6        11     1
         6        21     1
         6        22     1
         6        23     1
         6        28     1
         6        30     1
         6        31     1
         6        32     1
         6        33     1
         6        34     1
         7        10     1
         7        24     1
         7        25     1
         7        27     1
         7        29     1
         7        35     1
         8        11     1
         8        21     1
         8        22     1
         8        23     1
         9        12     1
         9        20     1
        10        13     1
        10        19     1
        10        32     1
        10        33     1
        10        34     1
        11        14     1
        11        17     1
        11        35     1
        11        36     1
        11        38     1
        12        15     1
        12        16     1
        12        18     1
        13        17     1
        13        37     1
        13        38     1
        14        18     1
        14        19     1
        15        17     1
        15        36     1
        15        37     1
        16        26     1
        16        36     1
        16        38     1
        18        37     1
        18        38     1
        19        26     1
        19        36     1
        19        37     1
        20        34     1
        21        24     1
        21        25     1
        21        27     1
        22        24     1
        22        25     1
        22        27     1
        28        29     1
        29        30     1
        29        31     1
        30        32     1
        30        33     1
        31        32     1
        31        33     1
        34        35     1
