; ITP file created by ByteFF-joint-25, 2026-02-17 09:19:44.653074

[ atomtypes ]
;name           bonded.type        at.num        mass        charge   ptype           sigma         epsilon
 o0bf                                   8      0.0000       0.00000       A     3.24330e-01     3.89311e-01    ;  uncertainty sigma = 0.000018, epsilon = 0.001661
 c1bf                                   6      0.0000       0.00000       A     3.39703e-01     4.51586e-01    ;  uncertainty sigma = 0.000021, epsilon = 0.001556
 c2bf                                   6      0.0000       0.00000       A     3.39773e-01     4.50315e-01    ;  uncertainty sigma = 0.000014, epsilon = 0.000914
 c3bf                                   6      0.0000       0.00000       A     3.39746e-01     4.50556e-01    ;  uncertainty sigma = 0.000010, epsilon = 0.000500
 c4bf                                   6      0.0000       0.00000       A     3.31554e-01     4.13563e-01    ;  uncertainty sigma = 0.000006, epsilon = 0.000820
 c5bf                                   6      0.0000       0.00000       A     3.31570e-01     4.12467e-01    ;  uncertainty sigma = 0.000029, epsilon = 0.001143
 c6bf                                   6      0.0000       0.00000       A     3.31536e-01     4.12874e-01    ;  uncertainty sigma = 0.000025, epsilon = 0.001846
 c7bf                                   6      0.0000       0.00000       A     3.31504e-01     4.13301e-01    ;  uncertainty sigma = 0.000012, epsilon = 0.000483
 c8bf                                   6      0.0000       0.00000       A     3.31528e-01     4.13628e-01    ;  uncertainty sigma = 0.000009, epsilon = 0.000546
 c9bf                                   6      0.0000       0.00000       A     3.31530e-01     4.13165e-01    ;  uncertainty sigma = 0.000014, epsilon = 0.000565
 o10bf                                  8      0.0000       0.00000       A     3.15543e-01     3.02041e-01    ;  uncertainty sigma = 0.000032, epsilon = 0.001425
 c11bf                                  6      0.0000       0.00000       A     3.31512e-01     4.13609e-01    ;  uncertainty sigma = 0.000009, epsilon = 0.000770
 c12bf                                  6      0.0000       0.00000       A     3.31517e-01     4.13670e-01    ;  uncertainty sigma = 0.000004, epsilon = 0.000827
 c13bf                                  6      0.0000       0.00000       A     3.31508e-01     4.13334e-01    ;  uncertainty sigma = 0.000007, epsilon = 0.000485
 f14bf                                  9      0.0000       0.00000       A     3.03419e-01     3.47947e-01    ;  uncertainty sigma = 0.000007, epsilon = 0.000665
 c15bf                                  6      0.0000       0.00000       A     3.31534e-01     4.13575e-01    ;  uncertainty sigma = 0.000007, epsilon = 0.000519
 c16bf                                  6      0.0000       0.00000       A     3.31517e-01     4.13124e-01    ;  uncertainty sigma = 0.000007, epsilon = 0.000564
 cl17bf                                17      0.0000       0.00000       A     3.46589e-01     1.10398e+00    ;  uncertainty sigma = 0.000015, epsilon = 0.001735
 c18bf                                  6      0.0000       0.00000       A     3.31524e-01     4.13439e-01    ;  uncertainty sigma = 0.000004, epsilon = 0.000655
 s19bf                                 16      0.0000       0.00000       A     4.05919e-01     2.55340e-01    ;  uncertainty sigma = 0.000033, epsilon = 0.005084
 o20bf                                  8      0.0000       0.00000       A     3.04804e-01     6.11837e-01    ;  uncertainty sigma = 0.000034, epsilon = 0.001395
 o21bf                                  8      0.0000       0.00000       A     3.04804e-01     6.11837e-01    ;  uncertainty sigma = 0.000034, epsilon = 0.001395
 c22bf                                  6      0.0000       0.00000       A     3.39687e-01     4.50145e-01    ;  uncertainty sigma = 0.000063, epsilon = 0.002814
 f23bf                                  9      0.0000       0.00000       A     3.03487e-01     3.47910e-01    ;  uncertainty sigma = 0.000063, epsilon = 0.002031
 h24bf                                  1      0.0000       0.00000       A     5.37915e-02     1.95462e-02    ;  uncertainty sigma = 0.000136, epsilon = 0.000884
 h25bf                                  1      0.0000       0.00000       A     2.42240e-01     8.61663e-02    ;  uncertainty sigma = 0.000028, epsilon = 0.001739
 h26bf                                  1      0.0000       0.00000       A     2.60017e-01     8.68074e-02    ;  uncertainty sigma = 0.000016, epsilon = 0.000716
 h27bf                                  1      0.0000       0.00000       A     2.60017e-01     8.68074e-02    ;  uncertainty sigma = 0.000016, epsilon = 0.000716
 h28bf                                  1      0.0000       0.00000       A     2.60038e-01     8.69412e-02    ;  uncertainty sigma = 0.000014, epsilon = 0.000529
 h29bf                                  1      0.0000       0.00000       A     2.60038e-01     8.69412e-02    ;  uncertainty sigma = 0.000014, epsilon = 0.000529
 h30bf                                  1      0.0000       0.00000       A     2.62567e-01     6.72430e-02    ;  uncertainty sigma = 0.000020, epsilon = 0.000765
 h31bf                                  1      0.0000       0.00000       A     2.62556e-01     6.70855e-02    ;  uncertainty sigma = 0.000006, epsilon = 0.000381
 h32bf                                  1      0.0000       0.00000       A     2.62552e-01     6.72491e-02    ;  uncertainty sigma = 0.000007, epsilon = 0.000350
 h33bf                                  1      0.0000       0.00000       A     2.62576e-01     6.72707e-02    ;  uncertainty sigma = 0.000009, epsilon = 0.000517
 h34bf                                  1      0.0000       0.00000       A     2.62563e-01     6.72159e-02    ;  uncertainty sigma = 0.000003, epsilon = 0.000466
 h35bf                                  1      0.0000       0.00000       A     2.23512e-01     8.68860e-02    ;  uncertainty sigma = 0.000340, epsilon = 0.000360
 h36bf                                  1      0.0000       0.00000       A     2.23512e-01     8.68861e-02    ;  uncertainty sigma = 0.000340, epsilon = 0.000360

[ moleculetype ]
;name             nrexcl
 MOL                   3

[ atoms ]
;       nr            type      resi   res      atom      cgnr      charge          mass ; qtot
         1            o0bf         1   UNL        o0         1    -0.59206       15.9990 ; qtot   -0.592
         2            c1bf         1   UNL        c1         2     0.18434       12.0110 ; qtot   -0.408
         3            c2bf         1   UNL        c2         3    -0.09696       12.0110 ; qtot   -0.505
         4            c3bf         1   UNL        c3         4    -0.02413       12.0110 ; qtot   -0.529
         5            c4bf         1   UNL        c4         5    -0.10268       12.0110 ; qtot   -0.631
         6            c5bf         1   UNL        c5         6     0.00104       12.0110 ; qtot   -0.630
         7            c6bf         1   UNL        c6         7    -0.22646       12.0110 ; qtot   -0.857
         8            c7bf         1   UNL        c7         8    -0.00782       12.0110 ; qtot   -0.865
         9            c8bf         1   UNL        c8         9    -0.17874       12.0110 ; qtot   -1.043
        10            c9bf         1   UNL        c9        10     0.15506       12.0110 ; qtot   -0.888
        11           o10bf         1   UNL       o10        11    -0.24935       15.9990 ; qtot   -1.138
        12           c11bf         1   UNL       c11        12     0.15626       12.0110 ; qtot   -0.982
        13           c12bf         1   UNL       c12        13    -0.20042       12.0110 ; qtot   -1.182
        14           c13bf         1   UNL       c13        14     0.16292       12.0110 ; qtot   -1.019
        15           f14bf         1   UNL       f14        15    -0.13588       18.9980 ; qtot   -1.155
        16           c15bf         1   UNL       c15        16    -0.17850       12.0110 ; qtot   -1.333
        17           c16bf         1   UNL       c16        17     0.07787       12.0110 ; qtot   -1.256
        18          cl17bf         1   UNL      cl17        18    -0.09983       35.4530 ; qtot   -1.355
        19           c18bf         1   UNL       c18        19    -0.16680       12.0110 ; qtot   -1.522
        20           s19bf         1   UNL       s19        20     0.97459       32.0670 ; qtot   -0.548
        21           o20bf         1   UNL       o20        21    -0.56251       15.9990 ; qtot   -1.110
        22           o21bf         1   UNL       o21        22    -0.56251       15.9990 ; qtot   -1.673
        23           c22bf         1   UNL       c22        23     0.11283       12.0110 ; qtot   -1.560
        24           f23bf         1   UNL       f23        24    -0.20517       18.9980 ; qtot   -1.765
        25           h24bf         1   UNL       h24        25     0.40718        1.0080 ; qtot   -1.358
        26           h25bf         1   UNL       h25        26     0.07414        1.0080 ; qtot   -1.284
        27           h26bf         1   UNL       h26        27     0.05823        1.0080 ; qtot   -1.225
        28           h27bf         1   UNL       h27        28     0.05823        1.0080 ; qtot   -1.167
        29           h28bf         1   UNL       h28        29     0.06200        1.0080 ; qtot   -1.105
        30           h29bf         1   UNL       h29        30     0.06200        1.0080 ; qtot   -1.043
        31           h30bf         1   UNL       h30        31     0.16572        1.0080 ; qtot   -0.877
        32           h31bf         1   UNL       h31        32     0.15782        1.0080 ; qtot   -0.720
        33           h32bf         1   UNL       h32        33     0.17204        1.0080 ; qtot   -0.548
        34           h33bf         1   UNL       h33        34     0.17092        1.0080 ; qtot   -0.377
        35           h34bf         1   UNL       h34        35     0.16998        1.0080 ; qtot   -0.207
        36           h35bf         1   UNL       h35        36     0.10333        1.0080 ; qtot   -0.103
        37           h36bf         1   UNL       h36        37     0.10332        1.0080 ; qtot   -0.000

[ bonds ]
;       ai        aj funct               r               k
         1         2     1        0.143533   257069.617969    ;  uncertainty r = 0.000166, k = 4.670764
         1        25     1        0.097172   466410.174219    ;  uncertainty r = 0.000041, k = 3.930961
         2         3     1        0.154518   209733.827734    ;  uncertainty r = 0.000061, k = 10.764843
         2         6     1        0.152150   245644.136475    ;  uncertainty r = 0.000145, k = 29.383054
         2        26     1        0.109431   307339.060254    ;  uncertainty r = 0.000027, k = 2.137466
         3         4     1        0.154975   222428.171582    ;  uncertainty r = 0.000050, k = 7.178791
         3        27     1        0.109435   308683.333691    ;  uncertainty r = 0.000016, k = 3.034245
         3        28     1        0.109435   308683.333691    ;  uncertainty r = 0.000016, k = 3.034245
         4         5     1        0.151314   253636.740967    ;  uncertainty r = 0.000070, k = 17.146147
         4        29     1        0.109543   308088.753174    ;  uncertainty r = 0.000021, k = 1.530882
         4        30     1        0.109543   308088.753174    ;  uncertainty r = 0.000021, k = 1.530882
         5         6     1        0.139671   361986.073828    ;  uncertainty r = 0.000117, k = 19.645461
         5        10     1        0.138936   352617.785254    ;  uncertainty r = 0.000105, k = 4.458738
         6         7     1        0.139521   333604.743359    ;  uncertainty r = 0.000117, k = 10.614823
         7         8     1        0.139306   347697.192871    ;  uncertainty r = 0.000151, k = 4.979520
         7        20     1        0.178274   138882.164795    ;  uncertainty r = 0.000100, k = 11.368596
         8         9     1        0.139117   366733.396924    ;  uncertainty r = 0.000073, k = 3.748879
         8        31     1        0.108478   328720.260449    ;  uncertainty r = 0.000039, k = 1.174279
         9        10     1        0.139726   353381.038379    ;  uncertainty r = 0.000053, k = 5.868546
         9        32     1        0.108753   336163.893701    ;  uncertainty r = 0.000031, k = 1.172871
        10        11     1        0.138621   316782.862061    ;  uncertainty r = 0.000147, k = 10.092595
        11        12     1        0.137519   318192.944629    ;  uncertainty r = 0.000095, k = 4.691099
        12        13     1        0.139470   360673.415332    ;  uncertainty r = 0.000035, k = 2.270758
        12        19     1        0.139438   356766.901562    ;  uncertainty r = 0.000021, k = 1.906978
        13        14     1        0.138904   363265.993750    ;  uncertainty r = 0.000032, k = 2.085224
        13        33     1        0.108793   339333.738477    ;  uncertainty r = 0.000019, k = 1.300915
        14        15     1        0.135256   340052.761328    ;  uncertainty r = 0.000049, k = 2.088005
        14        16     1        0.139015   361949.300391    ;  uncertainty r = 0.000049, k = 3.307054
        16        17     1        0.139473   365943.636279    ;  uncertainty r = 0.000030, k = 2.878089
        16        34     1        0.108675   338128.974268    ;  uncertainty r = 0.000014, k = 0.350216
        17        18     1        0.175206   198763.353687    ;  uncertainty r = 0.000067, k = 1.577658
        17        19     1        0.139324   360881.849219    ;  uncertainty r = 0.000048, k = 3.738122
        19        35     1        0.108724   337852.688281    ;  uncertainty r = 0.000010, k = 1.343302
        20        21     1        0.147377   497945.133398    ;  uncertainty r = 0.000112, k = 8.600924
        20        22     1        0.147377   497945.133398    ;  uncertainty r = 0.000112, k = 8.600924
        20        23     1        0.184199   150867.445264    ;  uncertainty r = 0.000106, k = 35.743175
        23        24     1        0.137329   335181.940771    ;  uncertainty r = 0.000271, k = 19.229755
        23        36     1        0.109587   325296.346973    ;  uncertainty r = 0.000118, k = 4.567413
        23        37     1        0.109587   325296.346973    ;  uncertainty r = 0.000118, k = 4.567418

[ angles ]
;       ai        aj        ak funct           theta             cth
         1         2         3     1      111.449783      673.121494    ;  uncertainty theta = 0.002674, k = 0.263806
         1         2         6     1      112.006271      653.727400    ;  uncertainty theta = 0.004634, k = 0.184930
         1         2        26     1      106.891518      437.961937    ;  uncertainty theta = 0.007090, k = 0.137106
         2         1        25     1      107.588623      459.544465    ;  uncertainty theta = 0.004020, k = 0.056400
         2         3         4     1      106.715515      678.485819    ;  uncertainty theta = 0.004376, k = 0.218757
         2         3        27     1      107.842712      397.967184    ;  uncertainty theta = 0.002119, k = 0.040321
         2         3        28     1      107.842712      397.967184    ;  uncertainty theta = 0.002119, k = 0.040321
         2         6         5     1      115.256065      495.507259    ;  uncertainty theta = 0.004312, k = 0.247986
         2         6         7     1      125.522972      368.490784    ;  uncertainty theta = 0.005595, k = 0.083812
         3         2         6     1      105.248672      722.699046    ;  uncertainty theta = 0.001213, k = 0.215098
         3         2        26     1      109.649307      387.426200    ;  uncertainty theta = 0.002973, k = 0.166893
         3         4         5     1      104.344833      718.666162    ;  uncertainty theta = 0.001502, k = 0.113715
         3         4        29     1      109.754356      400.758709    ;  uncertainty theta = 0.001435, k = 0.054483
         3         4        30     1      109.754356      400.758709    ;  uncertainty theta = 0.001435, k = 0.054483
         4         3        27     1      109.660057      409.426324    ;  uncertainty theta = 0.002536, k = 0.043240
         4         3        28     1      109.660057      409.426324    ;  uncertainty theta = 0.002536, k = 0.043240
         4         5         6     1      115.246300      526.070486    ;  uncertainty theta = 0.002996, k = 0.216235
         4         5        10     1      126.998001      389.468594    ;  uncertainty theta = 0.004444, k = 0.194784
         5         4        29     1      109.538185      391.019909    ;  uncertainty theta = 0.001716, k = 0.094266
         5         4        30     1      109.538185      391.019909    ;  uncertainty theta = 0.001716, k = 0.094266
         5         6         7     1      121.241577      430.329469    ;  uncertainty theta = 0.007672, k = 0.166058
         5        10         9     1      120.704590      383.635280    ;  uncertainty theta = 0.003907, k = 0.219189
         5        10        11     1      118.002274      406.245198    ;  uncertainty theta = 0.008976, k = 0.378805
         6         2        26     1      108.694077      381.086868    ;  uncertainty theta = 0.003170, k = 0.118272
         6         5        10     1      119.313049      421.333001    ;  uncertainty theta = 0.001985, k = 0.111854
         6         7         8     1      123.271217      446.737924    ;  uncertainty theta = 0.005426, k = 0.155482
         6         7        20     1      117.080994      338.012308    ;  uncertainty theta = 0.009714, k = 0.395906
         7         8         9     1      121.468529      493.272666    ;  uncertainty theta = 0.005663, k = 0.099108
         7         8        31     1      118.855675      261.903311    ;  uncertainty theta = 0.002715, k = 0.108158
         7        20        21     1      114.483215      622.431608    ;  uncertainty theta = 0.005667, k = 0.209643
         7        20        22     1      114.483215      622.431608    ;  uncertainty theta = 0.005667, k = 0.209643
         7        20        23     1      105.433983      571.308039    ;  uncertainty theta = 0.006523, k = 0.186194
         8         7        20     1      116.344383      360.548073    ;  uncertainty theta = 0.007393, k = 0.158046
         8         9        10     1      119.986244      510.587880    ;  uncertainty theta = 0.002127, k = 0.051885
         8         9        32     1      120.177124      277.510810    ;  uncertainty theta = 0.001649, k = 0.052575
         9         8        31     1      120.464920      282.243954    ;  uncertainty theta = 0.002353, k = 0.055491
         9        10        11     1      120.644691      434.361459    ;  uncertainty theta = 0.002829, k = 0.211145
        10         9        32     1      120.292114      276.044724    ;  uncertainty theta = 0.002649, k = 0.068495
        10        11        12     1      112.890213      473.870751    ;  uncertainty theta = 0.002181, k = 0.127893
        11        12        13     1      119.201767      420.134800    ;  uncertainty theta = 0.003548, k = 0.053645
        11        12        19     1      119.239456      415.850950    ;  uncertainty theta = 0.002984, k = 0.065572
        12        13        14     1      116.674026      503.811416    ;  uncertainty theta = 0.002754, k = 0.151037
        12        13        33     1      121.893898      273.323490    ;  uncertainty theta = 0.002510, k = 0.090327
        12        19        17     1      117.162247      514.389844    ;  uncertainty theta = 0.001036, k = 0.104498
        12        19        35     1      121.268021      275.385324    ;  uncertainty theta = 0.001968, k = 0.071473
        13        12        19     1      122.565918      385.536996    ;  uncertainty theta = 0.004234, k = 0.141047
        13        14        15     1      118.455978      494.448139    ;  uncertainty theta = 0.001658, k = 0.034362
        13        14        16     1      123.752380      363.952616    ;  uncertainty theta = 0.004419, k = 0.143206
        14        13        33     1      121.754105      284.023379    ;  uncertainty theta = 0.002069, k = 0.039634
        14        16        17     1      115.803238      478.705054    ;  uncertainty theta = 0.001376, k = 0.113134
        14        16        34     1      121.638588      280.640063    ;  uncertainty theta = 0.002111, k = 0.042509
        15        14        16     1      118.552078      502.703616    ;  uncertainty theta = 0.002488, k = 0.039641
        16        17        18     1      120.101097      446.309443    ;  uncertainty theta = 0.001191, k = 0.064102
        16        17        19     1      122.602615      366.111364    ;  uncertainty theta = 0.001242, k = 0.077269
        17        16        34     1      122.502640      281.974441    ;  uncertainty theta = 0.001614, k = 0.034256
        17        19        35     1      121.923767      288.023799    ;  uncertainty theta = 0.001251, k = 0.029561
        18        17        19     1      120.062332      441.130645    ;  uncertainty theta = 0.001588, k = 0.103440
        20        23        24     1      106.602722      527.687496    ;  uncertainty theta = 0.005771, k = 0.132584
        20        23        36     1      108.829880      370.657991    ;  uncertainty theta = 0.007844, k = 0.163346
        20        23        37     1      108.829880      370.657991    ;  uncertainty theta = 0.007844, k = 0.163346
        21        20        22     1      124.534622      853.864280    ;  uncertainty theta = 0.001558, k = 0.054899
        21        20        23     1      110.899643      633.857996    ;  uncertainty theta = 0.004288, k = 0.221341
        22        20        23     1      110.899643      633.857996    ;  uncertainty theta = 0.004288, k = 0.221341
        24        23        36     1      110.037598      479.766536    ;  uncertainty theta = 0.001815, k = 0.189200
        24        23        37     1      110.037613      479.766536    ;  uncertainty theta = 0.001815, k = 0.189200
        27         3        28     1      106.018272      313.348089    ;  uncertainty theta = 0.003981, k = 0.146062
        29         4        30     1      104.182007      294.463333    ;  uncertainty theta = 0.002010, k = 0.058192
        36        23        37     1      111.508705      307.965281    ;  uncertainty theta = 0.004240, k = 0.189276

[ dihedrals ] ; propers for gromacs 4.5 or higher, use funct 9
;       ai        aj        ak        al funct           phase               k        pn
         1         2         3         4     9        0.000000       -3.342062         1    ;  uncertainty k = 1.578877
         1         2         3         4     9      180.000000        0.863846         2    ;  uncertainty k = 0.843811
         1         2         3         4     9        0.000000        1.531305         3    ;  uncertainty k = 0.199465
         1         2         3         4     9      180.000000       -0.088753         4    ;  uncertainty k = 0.065010
         1         2         3        27     9        0.000000       -0.901220         1    ;  uncertainty k = 0.547697
         1         2         3        27     9      180.000000       -0.254159         2    ;  uncertainty k = 0.170660
         1         2         3        27     9        0.000000        1.261862         3    ;  uncertainty k = 0.067842
         1         2         3        27     9      180.000000        0.077065         4    ;  uncertainty k = 0.084590
         1         2         3        28     9        0.000000       -0.901220         1    ;  uncertainty k = 0.547697
         1         2         3        28     9      180.000000       -0.254159         2    ;  uncertainty k = 0.170660
         1         2         3        28     9        0.000000        1.261862         3    ;  uncertainty k = 0.067842
         1         2         3        28     9      180.000000        0.077065         4    ;  uncertainty k = 0.084590
         1         2         6         5     9        0.000000       -4.358665         1    ;  uncertainty k = 1.028724
         1         2         6         5     9      180.000000        4.330266         2    ;  uncertainty k = 0.990067
         1         2         6         5     9        0.000000        1.190487         3    ;  uncertainty k = 0.558378
         1         2         6         5     9      180.000000        0.681277         4    ;  uncertainty k = 0.141566
         1         2         6         7     9        0.000000       -0.710298         1    ;  uncertainty k = 1.733320
         1         2         6         7     9      180.000000        3.643405         2    ;  uncertainty k = 0.228902
         1         2         6         7     9        0.000000       -0.151715         3    ;  uncertainty k = 0.232900
         1         2         6         7     9      180.000000        0.529087         4    ;  uncertainty k = 0.235842
         2         3         4         5     9        0.000000       -0.684299         1    ;  uncertainty k = 1.594146
         2         3         4         5     9      180.000000        4.030407         2    ;  uncertainty k = 1.227423
         2         3         4         5     9        0.000000       -0.006086         3    ;  uncertainty k = 0.543343
         2         3         4         5     9      180.000000       -1.342367         4    ;  uncertainty k = 0.437537
         2         3         4        29     9        0.000000       -0.760454         1    ;  uncertainty k = 0.349584
         2         3         4        29     9      180.000000       -0.549408         2    ;  uncertainty k = 0.110970
         2         3         4        29     9        0.000000        0.498132         3    ;  uncertainty k = 0.225801
         2         3         4        29     9      180.000000        0.222890         4    ;  uncertainty k = 0.087989
         2         3         4        30     9        0.000000       -0.760454         1    ;  uncertainty k = 0.349584
         2         3         4        30     9      180.000000       -0.549408         2    ;  uncertainty k = 0.110970
         2         3         4        30     9        0.000000        0.498132         3    ;  uncertainty k = 0.225801
         2         3         4        30     9      180.000000        0.222890         4    ;  uncertainty k = 0.087989
         2         6         5         4     9        0.000000        0.497480         1    ;  uncertainty k = 0.905636
         2         6         5         4     9      180.000000       12.262425         2    ;  uncertainty k = 0.856715
         2         6         5         4     9        0.000000       -0.509614         3    ;  uncertainty k = 0.504741
         2         6         5         4     9      180.000000        1.297862         4    ;  uncertainty k = 0.212868
         2         6         5        10     9        0.000000        0.512006         1    ;  uncertainty k = 0.472293
         2         6         5        10     9      180.000000        8.603560         2    ;  uncertainty k = 0.329759
         2         6         5        10     9        0.000000        0.664046         3    ;  uncertainty k = 0.457360
         2         6         5        10     9      180.000000        1.336715         4    ;  uncertainty k = 0.097586
         2         6         7         8     9        0.000000        0.386868         1    ;  uncertainty k = 0.381505
         2         6         7         8     9      180.000000        6.280631         2    ;  uncertainty k = 0.357482
         2         6         7         8     9        0.000000        1.167280         3    ;  uncertainty k = 0.251605
         2         6         7         8     9      180.000000        1.660030         4    ;  uncertainty k = 0.125769
         2         6         7        20     9        0.000000        0.153164         1    ;  uncertainty k = 0.410865
         2         6         7        20     9      180.000000        6.609621         2    ;  uncertainty k = 0.657935
         2         6         7        20     9        0.000000        0.983340         3    ;  uncertainty k = 0.224680
         2         6         7        20     9      180.000000        1.238703         4    ;  uncertainty k = 0.148025
         3         2         1        25     9        0.000000       13.805087         1    ;  uncertainty k = 0.571622
         3         2         1        25     9      180.000000       -2.266191         2    ;  uncertainty k = 0.366169
         3         2         1        25     9        0.000000        1.130772         3    ;  uncertainty k = 0.169732
         3         2         1        25     9      180.000000        0.349907         4    ;  uncertainty k = 0.090577
         3         2         6         5     9        0.000000       -2.481539         1    ;  uncertainty k = 1.689679
         3         2         6         5     9      180.000000        9.240258         2    ;  uncertainty k = 0.772344
         3         2         6         5     9        0.000000       -0.779497         3    ;  uncertainty k = 0.407703
         3         2         6         5     9      180.000000        0.888980         4    ;  uncertainty k = 0.136162
         3         2         6         7     9        0.000000       -1.614250         1    ;  uncertainty k = 1.205262
         3         2         6         7     9      180.000000        3.198160         2    ;  uncertainty k = 0.438012
         3         2         6         7     9        0.000000        0.374722         3    ;  uncertainty k = 0.501710
         3         2         6         7     9      180.000000        0.589167         4    ;  uncertainty k = 0.151588
         3         4         5         6     9        0.000000       -1.815879         1    ;  uncertainty k = 1.988769
         3         4         5         6     9      180.000000       10.516322         2    ;  uncertainty k = 0.577630
         3         4         5         6     9        0.000000       -1.518017         3    ;  uncertainty k = 0.371750
         3         4         5         6     9      180.000000        0.759197         4    ;  uncertainty k = 0.207844
         3         4         5        10     9        0.000000       -1.161648         1    ;  uncertainty k = 0.921489
         3         4         5        10     9      180.000000        2.437251         2    ;  uncertainty k = 0.205727
         3         4         5        10     9        0.000000        0.566258         3    ;  uncertainty k = 0.315840
         3         4         5        10     9      180.000000        0.576992         4    ;  uncertainty k = 0.156603
         4         3         2         6     9        0.000000       -0.471233         1    ;  uncertainty k = 1.111594
         4         3         2         6     9      180.000000        3.607829         2    ;  uncertainty k = 1.025211
         4         3         2         6     9        0.000000        0.141631         3    ;  uncertainty k = 0.377204
         4         3         2         6     9      180.000000       -1.025153         4    ;  uncertainty k = 0.506687
         4         3         2        26     9        0.000000       -1.418650         1    ;  uncertainty k = 0.646272
         4         3         2        26     9      180.000000        0.816216         2    ;  uncertainty k = 0.436171
         4         3         2        26     9        0.000000        0.532242         3    ;  uncertainty k = 0.277440
         4         3         2        26     9      180.000000       -0.034024         4    ;  uncertainty k = 0.120488
         4         5         6         7     9        0.000000        0.116369         1    ;  uncertainty k = 0.624629
         4         5         6         7     9      180.000000        8.561545         2    ;  uncertainty k = 0.441763
         4         5         6         7     9        0.000000        0.677318         3    ;  uncertainty k = 0.518450
         4         5         6         7     9      180.000000        1.220184         4    ;  uncertainty k = 0.173514
         4         5        10         9     9        0.000000        0.370449         1    ;  uncertainty k = 0.382720
         4         5        10         9     9      180.000000        6.005683         2    ;  uncertainty k = 0.329698
         4         5        10         9     9        0.000000        1.325238         3    ;  uncertainty k = 0.234944
         4         5        10         9     9      180.000000        1.655461         4    ;  uncertainty k = 0.256702
         4         5        10        11     9        0.000000       -0.097304         1    ;  uncertainty k = 0.403461
         4         5        10        11     9      180.000000        8.902007         2    ;  uncertainty k = 0.305679
         4         5        10        11     9        0.000000        0.989420         3    ;  uncertainty k = 0.103282
         4         5        10        11     9      180.000000        1.319844         4    ;  uncertainty k = 0.219530
         5         4         3        27     9        0.000000       -0.910347         1    ;  uncertainty k = 0.467044
         5         4         3        27     9      180.000000       -0.234194         2    ;  uncertainty k = 0.201433
         5         4         3        27     9        0.000000        0.719508         3    ;  uncertainty k = 0.104728
         5         4         3        27     9      180.000000        0.032903         4    ;  uncertainty k = 0.100554
         5         4         3        28     9        0.000000       -0.910347         1    ;  uncertainty k = 0.467044
         5         4         3        28     9      180.000000       -0.234194         2    ;  uncertainty k = 0.201433
         5         4         3        28     9        0.000000        0.719508         3    ;  uncertainty k = 0.104728
         5         4         3        28     9      180.000000        0.032903         4    ;  uncertainty k = 0.100554
         5         6         2        26     9        0.000000       -0.323778         1    ;  uncertainty k = 0.585656
         5         6         2        26     9      180.000000        3.059369         2    ;  uncertainty k = 0.682679
         5         6         2        26     9        0.000000        0.662481         3    ;  uncertainty k = 0.150869
         5         6         2        26     9      180.000000        0.241877         4    ;  uncertainty k = 0.131157
         5         6         7         8     9        0.000000       -0.235355         1    ;  uncertainty k = 0.499942
         5         6         7         8     9      180.000000        9.867533         2    ;  uncertainty k = 0.493286
         5         6         7         8     9        0.000000       -0.618941         3    ;  uncertainty k = 0.425621
         5         6         7         8     9      180.000000        0.889737         4    ;  uncertainty k = 0.237726
         5         6         7        20     9        0.000000        0.582169         1    ;  uncertainty k = 1.043547
         5         6         7        20     9      180.000000        7.731065         2    ;  uncertainty k = 0.797809
         5         6         7        20     9        0.000000        1.442324         3    ;  uncertainty k = 0.549958
         5         6         7        20     9      180.000000        1.643818         4    ;  uncertainty k = 0.205165
         5        10         9         8     9        0.000000        0.231863         1    ;  uncertainty k = 0.177492
         5        10         9         8     9      180.000000        9.138331         2    ;  uncertainty k = 0.414075
         5        10         9         8     9        0.000000        0.166851         3    ;  uncertainty k = 0.407480
         5        10         9         8     9      180.000000        1.290244         4    ;  uncertainty k = 0.302642
         5        10         9        32     9        0.000000        0.191103         1    ;  uncertainty k = 0.285076
         5        10         9        32     9      180.000000        6.713350         2    ;  uncertainty k = 0.491896
         5        10         9        32     9        0.000000        1.376908         3    ;  uncertainty k = 0.474513
         5        10         9        32     9      180.000000        1.630376         4    ;  uncertainty k = 0.119823
         5        10        11        12     9        0.000000        4.623049         1    ;  uncertainty k = 0.641637
         5        10        11        12     9      180.000000        4.825579         2    ;  uncertainty k = 0.384017
         5        10        11        12     9        0.000000        0.828758         3    ;  uncertainty k = 0.070635
         5        10        11        12     9      180.000000        0.141977         4    ;  uncertainty k = 0.080668
         6         2         1        25     9        0.000000       15.509740         1    ;  uncertainty k = 0.603952
         6         2         1        25     9      180.000000       -4.163728         2    ;  uncertainty k = 0.412990
         6         2         1        25     9        0.000000        1.015380         3    ;  uncertainty k = 0.113169
         6         2         1        25     9      180.000000        0.013573         4    ;  uncertainty k = 0.101016
         6         2         3        27     9        0.000000       -0.726390         1    ;  uncertainty k = 0.470236
         6         2         3        27     9      180.000000       -0.345731         2    ;  uncertainty k = 0.292858
         6         2         3        27     9        0.000000        0.585856         3    ;  uncertainty k = 0.079638
         6         2         3        27     9      180.000000       -0.031170         4    ;  uncertainty k = 0.076470
         6         2         3        28     9        0.000000       -0.726390         1    ;  uncertainty k = 0.470236
         6         2         3        28     9      180.000000       -0.345731         2    ;  uncertainty k = 0.292858
         6         2         3        28     9        0.000000        0.585856         3    ;  uncertainty k = 0.079638
         6         2         3        28     9      180.000000       -0.031170         4    ;  uncertainty k = 0.076470
         6         5         4        29     9        0.000000       -0.116364         1    ;  uncertainty k = 0.576698
         6         5         4        29     9      180.000000        1.689866         2    ;  uncertainty k = 0.332023
         6         5         4        29     9        0.000000        0.260961         3    ;  uncertainty k = 0.125947
         6         5         4        29     9      180.000000        0.276164         4    ;  uncertainty k = 0.110598
         6         5         4        30     9        0.000000       -0.116364         1    ;  uncertainty k = 0.576698
         6         5         4        30     9      180.000000        1.689866         2    ;  uncertainty k = 0.332023
         6         5         4        30     9        0.000000        0.260961         3    ;  uncertainty k = 0.125947
         6         5         4        30     9      180.000000        0.276164         4    ;  uncertainty k = 0.110598
         6         5        10         9     9        0.000000       -0.160447         1    ;  uncertainty k = 0.134359
         6         5        10         9     9      180.000000        8.189038         2    ;  uncertainty k = 0.481549
         6         5        10         9     9        0.000000       -0.463293         3    ;  uncertainty k = 0.469209
         6         5        10         9     9      180.000000        1.080679         4    ;  uncertainty k = 0.287121
         6         5        10        11     9        0.000000        0.092332         1    ;  uncertainty k = 0.236345
         6         5        10        11     9      180.000000        9.630788         2    ;  uncertainty k = 0.278633
         6         5        10        11     9        0.000000        1.412649         3    ;  uncertainty k = 0.293343
         6         5        10        11     9      180.000000        1.553683         4    ;  uncertainty k = 0.156311
         6         7         8         9     9        0.000000       -0.262124         1    ;  uncertainty k = 0.333916
         6         7         8         9     9      180.000000       10.342823         2    ;  uncertainty k = 0.552673
         6         7         8         9     9        0.000000       -0.318485         3    ;  uncertainty k = 0.424885
         6         7         8         9     9      180.000000        1.044880         4    ;  uncertainty k = 0.429180
         6         7         8        31     9        0.000000       -0.007781         1    ;  uncertainty k = 0.390532
         6         7         8        31     9      180.000000        7.269236         2    ;  uncertainty k = 0.546202
         6         7         8        31     9        0.000000        1.260785         3    ;  uncertainty k = 0.446734
         6         7         8        31     9      180.000000        1.623900         4    ;  uncertainty k = 0.088701
         6         7        20        21     9        0.000000       -2.286124         1    ;  uncertainty k = 1.627421
         6         7        20        21     9      180.000000        0.722839         2    ;  uncertainty k = 0.393300
         6         7        20        21     9        0.000000        0.498414         3    ;  uncertainty k = 0.234716
         6         7        20        21     9      180.000000       -0.022535         4    ;  uncertainty k = 0.196292
         6         7        20        22     9        0.000000       -2.286124         1    ;  uncertainty k = 1.627421
         6         7        20        22     9      180.000000        0.722839         2    ;  uncertainty k = 0.393300
         6         7        20        22     9        0.000000        0.498414         3    ;  uncertainty k = 0.234716
         6         7        20        22     9      180.000000       -0.022535         4    ;  uncertainty k = 0.196292
         6         7        20        23     9        0.000000        2.139725         1    ;  uncertainty k = 2.317713
         6         7        20        23     9      180.000000       -0.375735         2    ;  uncertainty k = 0.537311
         6         7        20        23     9        0.000000        0.502429         3    ;  uncertainty k = 0.111653
         6         7        20        23     9      180.000000        0.333459         4    ;  uncertainty k = 0.142130
         7         6         2        26     9        0.000000        2.123679         1    ;  uncertainty k = 0.749218
         7         6         2        26     9      180.000000        1.972897         2    ;  uncertainty k = 0.681031
         7         6         2        26     9        0.000000       -0.174726         3    ;  uncertainty k = 0.142686
         7         6         2        26     9      180.000000        0.185485         4    ;  uncertainty k = 0.206587
         7         6         5        10     9        0.000000        0.080041         1    ;  uncertainty k = 0.627664
         7         6         5        10     9      180.000000        8.242273         2    ;  uncertainty k = 0.409560
         7         6         5        10     9        0.000000        0.095932         3    ;  uncertainty k = 0.210552
         7         6         5        10     9      180.000000        1.155682         4    ;  uncertainty k = 0.328289
         7         8         9        10     9        0.000000        0.124879         1    ;  uncertainty k = 0.327297
         7         8         9        10     9      180.000000       12.156894         2    ;  uncertainty k = 0.402976
         7         8         9        10     9        0.000000       -0.900304         3    ;  uncertainty k = 0.663320
         7         8         9        10     9      180.000000        0.874026         4    ;  uncertainty k = 0.358578
         7         8         9        32     9        0.000000       -0.042441         1    ;  uncertainty k = 0.538697
         7         8         9        32     9      180.000000        8.211398         2    ;  uncertainty k = 0.277385
         7         8         9        32     9        0.000000        1.194511         3    ;  uncertainty k = 0.224690
         7         8         9        32     9      180.000000        1.712215         4    ;  uncertainty k = 0.095223
         7        20        23        24     9        0.000000        1.913671         1    ;  uncertainty k = 1.323596
         7        20        23        24     9      180.000000       -1.725083         2    ;  uncertainty k = 0.562111
         7        20        23        24     9        0.000000        0.511292         3    ;  uncertainty k = 0.275841
         7        20        23        24     9      180.000000       -0.002150         4    ;  uncertainty k = 0.223295
         7        20        23        36     9        0.000000        2.347765         1    ;  uncertainty k = 0.733316
         7        20        23        36     9      180.000000       -1.908592         2    ;  uncertainty k = 0.409387
         7        20        23        36     9        0.000000        0.193652         3    ;  uncertainty k = 0.148811
         7        20        23        36     9      180.000000       -0.073081         4    ;  uncertainty k = 0.128681
         7        20        23        37     9        0.000000        2.347765         1    ;  uncertainty k = 0.733316
         7        20        23        37     9      180.000000       -1.908592         2    ;  uncertainty k = 0.409387
         7        20        23        37     9        0.000000        0.193652         3    ;  uncertainty k = 0.148811
         7        20        23        37     9      180.000000       -0.073081         4    ;  uncertainty k = 0.128681
         8         7        20        21     9        0.000000       -1.404538         1    ;  uncertainty k = 0.663936
         8         7        20        21     9      180.000000        0.926857         2    ;  uncertainty k = 0.821541
         8         7        20        21     9        0.000000        0.254069         3    ;  uncertainty k = 0.264958
         8         7        20        21     9      180.000000       -0.037429         4    ;  uncertainty k = 0.189152
         8         7        20        22     9        0.000000       -1.404538         1    ;  uncertainty k = 0.663936
         8         7        20        22     9      180.000000        0.926857         2    ;  uncertainty k = 0.821541
         8         7        20        22     9        0.000000        0.254069         3    ;  uncertainty k = 0.264958
         8         7        20        22     9      180.000000       -0.037429         4    ;  uncertainty k = 0.189152
         8         7        20        23     9        0.000000        1.309101         1    ;  uncertainty k = 1.515734
         8         7        20        23     9      180.000000        0.045135         2    ;  uncertainty k = 0.421617
         8         7        20        23     9        0.000000        0.197767         3    ;  uncertainty k = 0.432565
         8         7        20        23     9      180.000000        0.382553         4    ;  uncertainty k = 0.166373
         8         9        10        11     9        0.000000       -0.030487         1    ;  uncertainty k = 0.273886
         8         9        10        11     9      180.000000       10.878903         2    ;  uncertainty k = 0.444494
         8         9        10        11     9        0.000000        1.478652         3    ;  uncertainty k = 0.289267
         8         9        10        11     9      180.000000        1.747609         4    ;  uncertainty k = 0.238537
         9         8         7        20     9        0.000000        0.483962         1    ;  uncertainty k = 0.298419
         9         8         7        20     9      180.000000        8.808482         2    ;  uncertainty k = 0.412330
         9         8         7        20     9        0.000000        1.386559         3    ;  uncertainty k = 0.340073
         9         8         7        20     9      180.000000        1.854678         4    ;  uncertainty k = 0.127843
         9        10        11        12     9        0.000000        5.304213         1    ;  uncertainty k = 0.315003
         9        10        11        12     9      180.000000        5.705822         2    ;  uncertainty k = 0.219233
         9        10        11        12     9        0.000000        0.393357         3    ;  uncertainty k = 0.190167
         9        10        11        12     9      180.000000        0.194901         4    ;  uncertainty k = 0.083714
        10         5         4        29     9        0.000000        0.848574         1    ;  uncertainty k = 0.331442
        10         5         4        29     9      180.000000        1.575034         2    ;  uncertainty k = 0.739757
        10         5         4        29     9        0.000000        0.112942         3    ;  uncertainty k = 0.240332
        10         5         4        29     9      180.000000        0.266171         4    ;  uncertainty k = 0.138592
        10         5         4        30     9        0.000000        0.848574         1    ;  uncertainty k = 0.331442
        10         5         4        30     9      180.000000        1.575034         2    ;  uncertainty k = 0.739757
        10         5         4        30     9        0.000000        0.112942         3    ;  uncertainty k = 0.240332
        10         5         4        30     9      180.000000        0.266171         4    ;  uncertainty k = 0.138592
        10         9         8        31     9        0.000000       -0.115525         1    ;  uncertainty k = 0.327420
        10         9         8        31     9      180.000000        7.839325         2    ;  uncertainty k = 0.163521
        10         9         8        31     9        0.000000        1.047982         3    ;  uncertainty k = 0.220512
        10         9         8        31     9      180.000000        1.714590         4    ;  uncertainty k = 0.066538
        10        11        12        13     9        0.000000        4.348981         1    ;  uncertainty k = 0.435099
        10        11        12        13     9      180.000000        5.503544         2    ;  uncertainty k = 0.205262
        10        11        12        13     9        0.000000        0.488003         3    ;  uncertainty k = 0.183166
        10        11        12        13     9      180.000000        0.156913         4    ;  uncertainty k = 0.059102
        10        11        12        19     9        0.000000        4.361610         1    ;  uncertainty k = 0.377503
        10        11        12        19     9      180.000000        5.459580         2    ;  uncertainty k = 0.173056
        10        11        12        19     9        0.000000        0.496037         3    ;  uncertainty k = 0.151174
        10        11        12        19     9      180.000000        0.155770         4    ;  uncertainty k = 0.063924
        11        10         9        32     9        0.000000       -0.025469         1    ;  uncertainty k = 0.150160
        11        10         9        32     9      180.000000        9.015685         2    ;  uncertainty k = 0.362640
        11        10         9        32     9        0.000000        0.850582         3    ;  uncertainty k = 0.241509
        11        10         9        32     9      180.000000        1.135183         4    ;  uncertainty k = 0.146796
        11        12        13        14     9        0.000000        0.088393         1    ;  uncertainty k = 0.152894
        11        12        13        14     9      180.000000       10.656774         2    ;  uncertainty k = 0.289534
        11        12        13        14     9        0.000000        1.296603         3    ;  uncertainty k = 0.173110
        11        12        13        14     9      180.000000        1.618078         4    ;  uncertainty k = 0.129259
        11        12        13        33     9        0.000000       -0.075170         1    ;  uncertainty k = 0.082541
        11        12        13        33     9      180.000000        8.226633         2    ;  uncertainty k = 0.292527
        11        12        13        33     9        0.000000        0.854577         3    ;  uncertainty k = 0.253956
        11        12        13        33     9      180.000000        1.108315         4    ;  uncertainty k = 0.104493
        11        12        19        17     9        0.000000        0.090497         1    ;  uncertainty k = 0.077605
        11        12        19        17     9      180.000000       10.823193         2    ;  uncertainty k = 0.286451
        11        12        19        17     9        0.000000        1.278849         3    ;  uncertainty k = 0.114366
        11        12        19        17     9      180.000000        1.598973         4    ;  uncertainty k = 0.123528
        11        12        19        35     9        0.000000       -0.077465         1    ;  uncertainty k = 0.092705
        11        12        19        35     9      180.000000        8.357118         2    ;  uncertainty k = 0.310863
        11        12        19        35     9        0.000000        0.853927         3    ;  uncertainty k = 0.264447
        11        12        19        35     9      180.000000        1.128065         4    ;  uncertainty k = 0.105604
        12        13        14        15     9        0.000000        0.045584         1    ;  uncertainty k = 0.057718
        12        13        14        15     9      180.000000       12.596311         2    ;  uncertainty k = 0.576101
        12        13        14        15     9        0.000000        1.499107         3    ;  uncertainty k = 0.355326
        12        13        14        15     9      180.000000        1.493694         4    ;  uncertainty k = 0.251212
        12        13        14        16     9        0.000000       -0.068720         1    ;  uncertainty k = 0.187198
        12        13        14        16     9      180.000000        9.148307         2    ;  uncertainty k = 0.474345
        12        13        14        16     9        0.000000        0.003490         3    ;  uncertainty k = 0.513149
        12        13        14        16     9      180.000000        1.305518         4    ;  uncertainty k = 0.251471
        12        19        17        16     9        0.000000       -0.102604         1    ;  uncertainty k = 0.231818
        12        19        17        16     9      180.000000       10.206103         2    ;  uncertainty k = 0.354806
        12        19        17        16     9        0.000000       -0.053055         3    ;  uncertainty k = 0.518101
        12        19        17        16     9      180.000000        1.250316         4    ;  uncertainty k = 0.291051
        12        19        17        18     9        0.000000       -0.007875         1    ;  uncertainty k = 0.238131
        12        19        17        18     9      180.000000        9.377408         2    ;  uncertainty k = 0.564249
        12        19        17        18     9        0.000000        1.424945         3    ;  uncertainty k = 0.437989
        12        19        17        18     9      180.000000        1.666683         4    ;  uncertainty k = 0.161364
        13        12        19        17     9        0.000000       -0.026884         1    ;  uncertainty k = 0.060159
        13        12        19        17     9      180.000000        9.761568         2    ;  uncertainty k = 0.499778
        13        12        19        17     9        0.000000       -0.173368         3    ;  uncertainty k = 0.493710
        13        12        19        17     9      180.000000        1.181592         4    ;  uncertainty k = 0.266204
        13        12        19        35     9        0.000000        0.190831         1    ;  uncertainty k = 0.262124
        13        12        19        35     9      180.000000        6.061795         2    ;  uncertainty k = 0.729787
        13        12        19        35     9        0.000000        1.459275         3    ;  uncertainty k = 0.386551
        13        12        19        35     9      180.000000        1.620612         4    ;  uncertainty k = 0.174661
        13        14        16        17     9        0.000000        0.045817         1    ;  uncertainty k = 0.244305
        13        14        16        17     9      180.000000        9.415883         2    ;  uncertainty k = 0.524719
        13        14        16        17     9        0.000000       -0.240358         3    ;  uncertainty k = 0.533532
        13        14        16        17     9      180.000000        1.224827         4    ;  uncertainty k = 0.214440
        13        14        16        34     9        0.000000       -0.008222         1    ;  uncertainty k = 0.228421
        13        14        16        34     9      180.000000        5.765549         2    ;  uncertainty k = 0.685098
        13        14        16        34     9        0.000000        1.338093         3    ;  uncertainty k = 0.335593
        13        14        16        34     9      180.000000        1.518978         4    ;  uncertainty k = 0.146978
        14        13        12        19     9        0.000000       -0.041228         1    ;  uncertainty k = 0.158993
        14        13        12        19     9      180.000000        9.351596         2    ;  uncertainty k = 0.519066
        14        13        12        19     9        0.000000       -0.111171         3    ;  uncertainty k = 0.525918
        14        13        12        19     9      180.000000        1.232226         4    ;  uncertainty k = 0.299988
        14        16        17        18     9        0.000000       -0.120809         1    ;  uncertainty k = 0.217842
        14        16        17        18     9      180.000000        9.585631         2    ;  uncertainty k = 0.591761
        14        16        17        18     9        0.000000        1.435653         3    ;  uncertainty k = 0.460779
        14        16        17        18     9      180.000000        1.610632         4    ;  uncertainty k = 0.199813
        14        16        17        19     9        0.000000       -0.076314         1    ;  uncertainty k = 0.168058
        14        16        17        19     9      180.000000       10.115143         2    ;  uncertainty k = 0.319710
        14        16        17        19     9        0.000000       -0.232271         3    ;  uncertainty k = 0.527716
        14        16        17        19     9      180.000000        1.177687         4    ;  uncertainty k = 0.275963
        15        14        13        33     9        0.000000       -0.301701         1    ;  uncertainty k = 0.225374
        15        14        13        33     9      180.000000        8.726000         2    ;  uncertainty k = 0.331875
        15        14        13        33     9        0.000000        0.822627         3    ;  uncertainty k = 0.276840
        15        14        13        33     9      180.000000        1.029038         4    ;  uncertainty k = 0.189912
        15        14        16        17     9        0.000000       -0.133658         1    ;  uncertainty k = 0.245810
        15        14        16        17     9      180.000000       13.025526         2    ;  uncertainty k = 0.672205
        15        14        16        17     9        0.000000        1.510910         3    ;  uncertainty k = 0.188872
        15        14        16        17     9      180.000000        1.466770         4    ;  uncertainty k = 0.282670
        15        14        16        34     9        0.000000       -0.316624         1    ;  uncertainty k = 0.211117
        15        14        16        34     9      180.000000        8.754319         2    ;  uncertainty k = 0.309942
        15        14        16        34     9        0.000000        0.803769         3    ;  uncertainty k = 0.290384
        15        14        16        34     9      180.000000        0.987725         4    ;  uncertainty k = 0.177351
        16        14        13        33     9        0.000000        0.090000         1    ;  uncertainty k = 0.131277
        16        14        13        33     9      180.000000        5.780535         2    ;  uncertainty k = 0.654872
        16        14        13        33     9        0.000000        1.372714         3    ;  uncertainty k = 0.343727
        16        14        13        33     9      180.000000        1.549728         4    ;  uncertainty k = 0.143500
        16        17        19        35     9        0.000000        0.063701         1    ;  uncertainty k = 0.267319
        16        17        19        35     9      180.000000        6.355583         2    ;  uncertainty k = 0.639492
        16        17        19        35     9        0.000000        1.456946         3    ;  uncertainty k = 0.397153
        16        17        19        35     9      180.000000        1.601159         4    ;  uncertainty k = 0.182657
        18        17        16        34     9        0.000000       -0.190971         1    ;  uncertainty k = 0.157958
        18        17        16        34     9      180.000000        7.171863         2    ;  uncertainty k = 0.264034
        18        17        16        34     9        0.000000        0.606438         3    ;  uncertainty k = 0.410119
        18        17        16        34     9      180.000000        0.951444         4    ;  uncertainty k = 0.198495
        18        17        19        35     9        0.000000       -0.220413         1    ;  uncertainty k = 0.239485
        18        17        19        35     9      180.000000        7.288412         2    ;  uncertainty k = 0.398180
        18        17        19        35     9        0.000000        0.620384         3    ;  uncertainty k = 0.412175
        18        17        19        35     9      180.000000        0.976242         4    ;  uncertainty k = 0.213936
        19        12        13        33     9        0.000000        0.209044         1    ;  uncertainty k = 0.263704
        19        12        13        33     9      180.000000        5.991864         2    ;  uncertainty k = 0.753180
        19        12        13        33     9        0.000000        1.464113         3    ;  uncertainty k = 0.391889
        19        12        13        33     9      180.000000        1.575399         4    ;  uncertainty k = 0.155875
        19        17        16        34     9        0.000000        0.044211         1    ;  uncertainty k = 0.301802
        19        17        16        34     9      180.000000        6.322621         2    ;  uncertainty k = 0.662547
        19        17        16        34     9        0.000000        1.425423         3    ;  uncertainty k = 0.417533
        19        17        16        34     9      180.000000        1.508326         4    ;  uncertainty k = 0.201307
        20         7         8        31     9        0.000000       -0.344964         1    ;  uncertainty k = 0.396018
        20         7         8        31     9      180.000000        6.636940         2    ;  uncertainty k = 0.463642
        20         7         8        31     9        0.000000        0.789586         3    ;  uncertainty k = 0.203863
        20         7         8        31     9      180.000000        1.175677         4    ;  uncertainty k = 0.231261
        21        20        23        24     9        0.000000       -0.221676         1    ;  uncertainty k = 1.289332
        21        20        23        24     9      180.000000        1.250865         2    ;  uncertainty k = 0.733956
        21        20        23        24     9        0.000000        0.953146         3    ;  uncertainty k = 0.306606
        21        20        23        24     9      180.000000        0.069383         4    ;  uncertainty k = 0.116408
        21        20        23        36     9        0.000000       -0.402366         1    ;  uncertainty k = 0.656935
        21        20        23        36     9      180.000000       -0.406998         2    ;  uncertainty k = 0.409657
        21        20        23        36     9        0.000000        0.496920         3    ;  uncertainty k = 0.099318
        21        20        23        36     9      180.000000        0.041415         4    ;  uncertainty k = 0.047559
        21        20        23        37     9        0.000000       -0.402366         1    ;  uncertainty k = 0.656935
        21        20        23        37     9      180.000000       -0.406998         2    ;  uncertainty k = 0.409657
        21        20        23        37     9        0.000000        0.496920         3    ;  uncertainty k = 0.099318
        21        20        23        37     9      180.000000        0.041415         4    ;  uncertainty k = 0.047559
        22        20        23        24     9        0.000000       -0.221676         1    ;  uncertainty k = 1.289332
        22        20        23        24     9      180.000000        1.250865         2    ;  uncertainty k = 0.733956
        22        20        23        24     9        0.000000        0.953146         3    ;  uncertainty k = 0.306606
        22        20        23        24     9      180.000000        0.069383         4    ;  uncertainty k = 0.116408
        22        20        23        36     9        0.000000       -0.402366         1    ;  uncertainty k = 0.656935
        22        20        23        36     9      180.000000       -0.406998         2    ;  uncertainty k = 0.409657
        22        20        23        36     9        0.000000        0.496920         3    ;  uncertainty k = 0.099318
        22        20        23        36     9      180.000000        0.041415         4    ;  uncertainty k = 0.047559
        22        20        23        37     9        0.000000       -0.402366         1    ;  uncertainty k = 0.656935
        22        20        23        37     9      180.000000       -0.406998         2    ;  uncertainty k = 0.409657
        22        20        23        37     9        0.000000        0.496920         3    ;  uncertainty k = 0.099318
        22        20        23        37     9      180.000000        0.041415         4    ;  uncertainty k = 0.047559
        25         1         2        26     9        0.000000       10.854878         1    ;  uncertainty k = 0.649091
        25         1         2        26     9      180.000000       -1.586978         2    ;  uncertainty k = 0.391083
        25         1         2        26     9        0.000000        0.917564         3    ;  uncertainty k = 0.113424
        25         1         2        26     9      180.000000        0.158654         4    ;  uncertainty k = 0.107591
        26         2         3        27     9        0.000000        0.725597         1    ;  uncertainty k = 0.153290
        26         2         3        27     9      180.000000       -0.598048         2    ;  uncertainty k = 0.185185
        26         2         3        27     9        0.000000        0.658388         3    ;  uncertainty k = 0.022633
        26         2         3        27     9      180.000000        0.092971         4    ;  uncertainty k = 0.057888
        26         2         3        28     9        0.000000        0.725597         1    ;  uncertainty k = 0.153290
        26         2         3        28     9      180.000000       -0.598048         2    ;  uncertainty k = 0.185185
        26         2         3        28     9        0.000000        0.658388         3    ;  uncertainty k = 0.022633
        26         2         3        28     9      180.000000        0.092971         4    ;  uncertainty k = 0.057888
        27         3         4        29     9        0.000000        1.132922         1    ;  uncertainty k = 0.276103
        27         3         4        29     9      180.000000       -0.153616         2    ;  uncertainty k = 0.086337
        27         3         4        29     9        0.000000        0.760977         3    ;  uncertainty k = 0.007635
        27         3         4        29     9      180.000000        0.101358         4    ;  uncertainty k = 0.038766
        27         3         4        30     9        0.000000        1.132922         1    ;  uncertainty k = 0.276103
        27         3         4        30     9      180.000000       -0.153616         2    ;  uncertainty k = 0.086337
        27         3         4        30     9        0.000000        0.760977         3    ;  uncertainty k = 0.007635
        27         3         4        30     9      180.000000        0.101358         4    ;  uncertainty k = 0.038766
        28         3         4        29     9        0.000000        1.132922         1    ;  uncertainty k = 0.276103
        28         3         4        29     9      180.000000       -0.153616         2    ;  uncertainty k = 0.086337
        28         3         4        29     9        0.000000        0.760977         3    ;  uncertainty k = 0.007635
        28         3         4        29     9      180.000000        0.101358         4    ;  uncertainty k = 0.038766
        28         3         4        30     9        0.000000        1.132922         1    ;  uncertainty k = 0.276103
        28         3         4        30     9      180.000000       -0.153616         2    ;  uncertainty k = 0.086337
        28         3         4        30     9        0.000000        0.760977         3    ;  uncertainty k = 0.007635
        28         3         4        30     9      180.000000        0.101358         4    ;  uncertainty k = 0.038766
        31         8         9        32     9        0.000000       -0.137759         1    ;  uncertainty k = 0.441491
        31         8         9        32     9      180.000000        7.542306         2    ;  uncertainty k = 0.394215
        31         8         9        32     9        0.000000       -0.324001         3    ;  uncertainty k = 0.288897
        31         8         9        32     9      180.000000        0.262605         4    ;  uncertainty k = 0.096063

[ dihedrals ] ; impropers
;       ai        aj        ak        al funct           phase               k        pn
         5         4         6        10     4      180.000000        5.038875         2    ;  uncertainty k = 0.367256
         5         6        10         4     4      180.000000        5.038875         2    ;  uncertainty k = 0.367256
         5        10         4         6     4      180.000000        5.038875         2    ;  uncertainty k = 0.367256
         6         2         5         7     4      180.000000        6.710890         2    ;  uncertainty k = 0.190540
         6         5         7         2     4      180.000000        6.710890         2    ;  uncertainty k = 0.190540
         6         7         2         5     4      180.000000        6.710890         2    ;  uncertainty k = 0.190540
         7         6         8        20     4      180.000000        4.388705         2    ;  uncertainty k = 0.225250
         7         8        20         6     4      180.000000        4.388705         2    ;  uncertainty k = 0.225250
         7        20         6         8     4      180.000000        4.388705         2    ;  uncertainty k = 0.225250
         8         7         9        31     4      180.000000        5.033640         2    ;  uncertainty k = 0.125753
         8         9        31         7     4      180.000000        5.033640         2    ;  uncertainty k = 0.125753
         8        31         7         9     4      180.000000        5.033640         2    ;  uncertainty k = 0.125753
         9         8        10        32     4      180.000000        1.951988         2    ;  uncertainty k = 0.060236
         9        10        32         8     4      180.000000        1.951988         2    ;  uncertainty k = 0.060236
         9        32         8        10     4      180.000000        1.951988         2    ;  uncertainty k = 0.060236
        10         5         9        11     4      180.000000       17.380591         2    ;  uncertainty k = 0.096713
        10         9        11         5     4      180.000000       17.380591         2    ;  uncertainty k = 0.096713
        10        11         5         9     4      180.000000       17.380591         2    ;  uncertainty k = 0.096713
        12        11        13        19     4      180.000000       18.924772         2    ;  uncertainty k = 0.024015
        12        13        19        11     4      180.000000       18.924772         2    ;  uncertainty k = 0.024015
        12        19        11        13     4      180.000000       18.924772         2    ;  uncertainty k = 0.024015
        13        12        14        33     4      180.000000        1.273336         2    ;  uncertainty k = 0.292910
        13        14        33        12     4      180.000000        1.273336         2    ;  uncertainty k = 0.292910
        13        33        12        14     4      180.000000        1.273336         2    ;  uncertainty k = 0.292910
        14        13        15        16     4      180.000000       18.097613         2    ;  uncertainty k = 0.045917
        14        15        16        13     4      180.000000       18.097613         2    ;  uncertainty k = 0.045917
        14        16        13        15     4      180.000000       18.097613         2    ;  uncertainty k = 0.045917
        16        14        17        34     4      180.000000        1.443262         2    ;  uncertainty k = 0.472593
        16        17        34        14     4      180.000000        1.443262         2    ;  uncertainty k = 0.472593
        16        34        14        17     4      180.000000        1.443262         2    ;  uncertainty k = 0.472593
        17        16        18        19     4      180.000000       14.428297         2    ;  uncertainty k = 0.105508
        17        18        19        16     4      180.000000       14.428297         2    ;  uncertainty k = 0.105508
        17        19        16        18     4      180.000000       14.428297         2    ;  uncertainty k = 0.105508
        19        12        17        35     4      180.000000        1.763880         2    ;  uncertainty k = 0.435022
        19        17        35        12     4      180.000000        1.763880         2    ;  uncertainty k = 0.435022
        19        35        12        17     4      180.000000        1.763880         2    ;  uncertainty k = 0.435022

[ pairs ]
;       ai        aj funct
         1         4     1
         1         5     1
         1         7     1
         1        27     1
         1        28     1
         2         8     1
         2        10     1
         2        20     1
         2        29     1
         2        30     1
         3         7     1
         3        10     1
         3        25     1
         4         7     1
         4         9     1
         4        11     1
         4        26     1
         5         8     1
         5        12     1
         5        20     1
         5        26     1
         5        27     1
         5        28     1
         5        32     1
         6         9     1
         6        11     1
         6        21     1
         6        22     1
         6        23     1
         6        25     1
         6        27     1
         6        28     1
         6        29     1
         6        30     1
         6        31     1
         7        10     1
         7        24     1
         7        26     1
         7        32     1
         7        36     1
         7        37     1
         8        11     1
         8        21     1
         8        22     1
         8        23     1
         9        12     1
         9        20     1
        10        13     1
        10        19     1
        10        29     1
        10        30     1
        10        31     1
        11        14     1
        11        17     1
        11        32     1
        11        33     1
        11        35     1
        12        15     1
        12        16     1
        12        18     1
        13        17     1
        13        34     1
        13        35     1
        14        18     1
        14        19     1
        15        17     1
        15        33     1
        15        34     1
        16        33     1
        16        35     1
        18        34     1
        18        35     1
        19        33     1
        19        34     1
        20        31     1
        21        24     1
        21        36     1
        21        37     1
        22        24     1
        22        36     1
        22        37     1
        25        26     1
        26        27     1
        26        28     1
        27        29     1
        27        30     1
        28        29     1
        28        30     1
        31        32     1
