; ITP file created by ByteFF-joint-25, 2026-02-17 09:17:54.052932

[ atomtypes ]
;name           bonded.type        at.num        mass        charge   ptype           sigma         epsilon
 o0bf                                   8      0.0000       0.00000       A     3.24307e-01     3.88018e-01    ;  uncertainty sigma = 0.000033, epsilon = 0.001142
 c1bf                                   6      0.0000       0.00000       A     3.39723e-01     4.50235e-01    ;  uncertainty sigma = 0.000028, epsilon = 0.001132
 c2bf                                   6      0.0000       0.00000       A     3.39807e-01     4.51125e-01    ;  uncertainty sigma = 0.000024, epsilon = 0.001103
 c3bf                                   6      0.0000       0.00000       A     3.39789e-01     4.50791e-01    ;  uncertainty sigma = 0.000016, epsilon = 0.000752
 c4bf                                   6      0.0000       0.00000       A     3.31531e-01     4.13497e-01    ;  uncertainty sigma = 0.000009, epsilon = 0.000923
 c5bf                                   6      0.0000       0.00000       A     3.31573e-01     4.13387e-01    ;  uncertainty sigma = 0.000021, epsilon = 0.001273
 c6bf                                   6      0.0000       0.00000       A     3.31532e-01     4.13422e-01    ;  uncertainty sigma = 0.000015, epsilon = 0.000920
 c7bf                                   6      0.0000       0.00000       A     3.31530e-01     4.13168e-01    ;  uncertainty sigma = 0.000008, epsilon = 0.000660
 c8bf                                   6      0.0000       0.00000       A     3.31520e-01     4.13763e-01    ;  uncertainty sigma = 0.000010, epsilon = 0.000604
 c9bf                                   6      0.0000       0.00000       A     3.31532e-01     4.13158e-01    ;  uncertainty sigma = 0.000014, epsilon = 0.000600
 o10bf                                  8      0.0000       0.00000       A     3.15544e-01     3.01948e-01    ;  uncertainty sigma = 0.000035, epsilon = 0.001551
 c11bf                                  6      0.0000       0.00000       A     3.31511e-01     4.13571e-01    ;  uncertainty sigma = 0.000010, epsilon = 0.000767
 c12bf                                  6      0.0000       0.00000       A     3.31518e-01     4.13730e-01    ;  uncertainty sigma = 0.000004, epsilon = 0.000811
 c13bf                                  6      0.0000       0.00000       A     3.31509e-01     4.13333e-01    ;  uncertainty sigma = 0.000007, epsilon = 0.000387
 f14bf                                  9      0.0000       0.00000       A     3.03415e-01     3.47926e-01    ;  uncertainty sigma = 0.000006, epsilon = 0.000734
 c15bf                                  6      0.0000       0.00000       A     3.31525e-01     4.13682e-01    ;  uncertainty sigma = 0.000009, epsilon = 0.000681
 c16bf                                  6      0.0000       0.00000       A     3.31509e-01     4.13333e-01    ;  uncertainty sigma = 0.000007, epsilon = 0.000387
 f17bf                                  9      0.0000       0.00000       A     3.03415e-01     3.47926e-01    ;  uncertainty sigma = 0.000006, epsilon = 0.000734
 c18bf                                  6      0.0000       0.00000       A     3.31518e-01     4.13730e-01    ;  uncertainty sigma = 0.000004, epsilon = 0.000811
 f19bf                                  9      0.0000       0.00000       A     3.03449e-01     3.47672e-01    ;  uncertainty sigma = 0.000012, epsilon = 0.001616
 f20bf                                  9      0.0000       0.00000       A     3.03449e-01     3.47672e-01    ;  uncertainty sigma = 0.000012, epsilon = 0.001616
 c21bf                                  6      0.0000       0.00000       A     3.47962e-01     6.68297e-01    ;  uncertainty sigma = 0.000030, epsilon = 0.002975
 n22bf                                  7      0.0000       0.00000       A     3.27316e-01     4.58851e-01    ;  uncertainty sigma = 0.000029, epsilon = 0.001276
 h23bf                                  1      0.0000       0.00000       A     5.38093e-02     1.93077e-02    ;  uncertainty sigma = 0.000062, epsilon = 0.000926
 h24bf                                  1      0.0000       0.00000       A     2.42340e-01     8.69442e-02    ;  uncertainty sigma = 0.000134, epsilon = 0.000862
 h25bf                                  1      0.0000       0.00000       A     2.60052e-01     8.67184e-02    ;  uncertainty sigma = 0.000035, epsilon = 0.000545
 h26bf                                  1      0.0000       0.00000       A     2.60052e-01     8.67184e-02    ;  uncertainty sigma = 0.000035, epsilon = 0.000545
 h27bf                                  1      0.0000       0.00000       A     2.62572e-01     6.71028e-02    ;  uncertainty sigma = 0.000014, epsilon = 0.000618
 h28bf                                  1      0.0000       0.00000       A     2.62554e-01     6.70854e-02    ;  uncertainty sigma = 0.000006, epsilon = 0.000403
 h29bf                                  1      0.0000       0.00000       A     2.62552e-01     6.72491e-02    ;  uncertainty sigma = 0.000007, epsilon = 0.000350
 h30bf                                  1      0.0000       0.00000       A     2.62567e-01     6.73686e-02    ;  uncertainty sigma = 0.000010, epsilon = 0.000382
 h31bf                                  1      0.0000       0.00000       A     2.62552e-01     6.72491e-02    ;  uncertainty sigma = 0.000007, epsilon = 0.000350

[ moleculetype ]
;name             nrexcl
 MOL                   3

[ atoms ]
;       nr            type      resi   res      atom      cgnr      charge          mass ; qtot
         1            o0bf         1   UNL        o0         1    -0.56964       15.9990 ; qtot   -0.570
         2            c1bf         1   UNL        c1         2     0.16533       12.0110 ; qtot   -0.404
         3            c2bf         1   UNL        c2         3     0.38729       12.0110 ; qtot   -0.017
         4            c3bf         1   UNL        c3         4    -0.05650       12.0110 ; qtot   -0.074
         5            c4bf         1   UNL        c4         5    -0.08896       12.0110 ; qtot   -0.162
         6            c5bf         1   UNL        c5         6    -0.05976       12.0110 ; qtot   -0.222
         7            c6bf         1   UNL        c6         7     0.00045       12.0110 ; qtot   -0.222
         8            c7bf         1   UNL        c7         8    -0.06621       12.0110 ; qtot   -0.288
         9            c8bf         1   UNL        c8         9    -0.16311       12.0110 ; qtot   -0.451
        10            c9bf         1   UNL        c9        10     0.15261       12.0110 ; qtot   -0.298
        11           o10bf         1   UNL       o10        11    -0.24988       15.9990 ; qtot   -0.548
        12           c11bf         1   UNL       c11        12     0.17398       12.0110 ; qtot   -0.374
        13           c12bf         1   UNL       c12        13    -0.21553       12.0110 ; qtot   -0.590
        14           c13bf         1   UNL       c13        14     0.18115       12.0110 ; qtot   -0.409
        15           f14bf         1   UNL       f14        15    -0.13434       18.9980 ; qtot   -0.543
        16           c15bf         1   UNL       c15        16    -0.22603       12.0110 ; qtot   -0.769
        17           c16bf         1   UNL       c16        17     0.18115       12.0110 ; qtot   -0.588
        18           f17bf         1   UNL       f17        18    -0.13434       18.9980 ; qtot   -0.722
        19           c18bf         1   UNL       c18        19    -0.21553       12.0110 ; qtot   -0.938
        20           f19bf         1   UNL       f19        20    -0.22907       18.9980 ; qtot   -1.167
        21           f20bf         1   UNL       f20        21    -0.22907       18.9980 ; qtot   -1.396
        22           c21bf         1   UNL       c21        22     0.24178       12.0110 ; qtot   -1.154
        23           n22bf         1   UNL       n22        23    -0.35969       14.0070 ; qtot   -1.514
        24           h23bf         1   UNL       h23        24     0.41574        1.0080 ; qtot   -1.098
        25           h24bf         1   UNL       h24        25     0.09092        1.0080 ; qtot   -1.007
        26           h25bf         1   UNL       h25        26     0.09000        1.0080 ; qtot   -0.917
        27           h26bf         1   UNL       h26        27     0.09000        1.0080 ; qtot   -0.827
        28           h27bf         1   UNL       h27        28     0.15033        1.0080 ; qtot   -0.677
        29           h28bf         1   UNL       h28        29     0.15927        1.0080 ; qtot   -0.518
        30           h29bf         1   UNL       h29        30     0.17232        1.0080 ; qtot   -0.345
        31           h30bf         1   UNL       h30        31     0.17302        1.0080 ; qtot   -0.172
        32           h31bf         1   UNL       h31        32     0.17232        1.0080 ; qtot   -0.000

[ bonds ]
;       ai        aj funct               r               k
         1         2     1        0.141335   267228.126855    ;  uncertainty r = 0.000133, k = 15.534053
         1        24     1        0.097129   458294.123340    ;  uncertainty r = 0.000050, k = 2.677907
         2         3     1        0.154930   187772.117969    ;  uncertainty r = 0.000263, k = 6.941719
         2         6     1        0.151586   255034.054980    ;  uncertainty r = 0.000104, k = 15.434901
         2        25     1        0.109576   307470.933887    ;  uncertainty r = 0.000068, k = 3.678690
         3         4     1        0.153444   201861.554102    ;  uncertainty r = 0.000097, k = 10.634401
         3        20     1        0.137636   300404.688037    ;  uncertainty r = 0.000064, k = 6.181870
         3        21     1        0.137636   300404.688037    ;  uncertainty r = 0.000064, k = 6.181870
         4         5     1        0.151111   254543.538184    ;  uncertainty r = 0.000106, k = 16.324596
         4        26     1        0.109413   310007.994629    ;  uncertainty r = 0.000040, k = 1.776180
         4        27     1        0.109413   310007.994629    ;  uncertainty r = 0.000040, k = 1.776180
         5         6     1        0.139297   362029.257080    ;  uncertainty r = 0.000127, k = 9.701842
         5        10     1        0.138956   352604.199512    ;  uncertainty r = 0.000129, k = 4.787946
         6         7     1        0.139870   347128.634668    ;  uncertainty r = 0.000068, k = 4.227577
         7         8     1        0.140418   361732.745703    ;  uncertainty r = 0.000083, k = 4.453773
         7        22     1        0.143377   317593.129004    ;  uncertainty r = 0.000112, k = 5.339260
         8         9     1        0.139105   369477.155029    ;  uncertainty r = 0.000053, k = 3.788605
         8        28     1        0.108596   331930.377246    ;  uncertainty r = 0.000030, k = 0.993756
         9        10     1        0.139787   351581.565967    ;  uncertainty r = 0.000065, k = 5.346809
         9        29     1        0.108750   336375.672949    ;  uncertainty r = 0.000029, k = 1.037247
        10        11     1        0.138761   316881.231006    ;  uncertainty r = 0.000107, k = 9.350188
        11        12     1        0.137463   318925.731982    ;  uncertainty r = 0.000071, k = 4.610372
        12        13     1        0.139530   359247.474219    ;  uncertainty r = 0.000036, k = 2.166069
        12        19     1        0.139530   359247.474219    ;  uncertainty r = 0.000036, k = 2.166057
        13        14     1        0.138947   361555.364941    ;  uncertainty r = 0.000040, k = 2.077232
        13        30     1        0.108788   339427.663965    ;  uncertainty r = 0.000020, k = 1.308496
        14        15     1        0.135169   340532.450391    ;  uncertainty r = 0.000051, k = 1.928113
        14        16     1        0.139095   364995.009277    ;  uncertainty r = 0.000024, k = 1.685259
        16        17     1        0.139095   364995.009277    ;  uncertainty r = 0.000024, k = 1.685259
        16        31     1        0.108736   339313.027881    ;  uncertainty r = 0.000017, k = 0.790658
        17        18     1        0.135169   340532.475928    ;  uncertainty r = 0.000051, k = 1.928140
        17        19     1        0.138947   361555.364941    ;  uncertainty r = 0.000040, k = 2.077265
        19        32     1        0.108788   339427.663965    ;  uncertainty r = 0.000020, k = 1.308514
        22        23     1        0.116632  1125239.096680    ;  uncertainty r = 0.000021, k = 2.697251

[ angles ]
;       ai        aj        ak funct           theta             cth
         1         2         3     1      107.673607      622.392920    ;  uncertainty theta = 0.007557, k = 0.251211
         1         2         6     1      112.778648      680.723699    ;  uncertainty theta = 0.006789, k = 0.305778
         1         2        25     1      107.888039      446.212721    ;  uncertainty theta = 0.007827, k = 0.155266
         2         1        24     1      107.272873      455.927804    ;  uncertainty theta = 0.001801, k = 0.153656
         2         3         4     1      111.079956      617.949463    ;  uncertainty theta = 0.004038, k = 0.309247
         2         3        20     1      109.621239      591.694633    ;  uncertainty theta = 0.003705, k = 0.131656
         2         3        21     1      109.621239      591.694633    ;  uncertainty theta = 0.003705, k = 0.131656
         2         6         5     1      114.902100      502.398448    ;  uncertainty theta = 0.003977, k = 0.101207
         2         6         7     1      124.315140      367.685950    ;  uncertainty theta = 0.002546, k = 0.062454
         3         2         6     1      104.649071      741.748134    ;  uncertainty theta = 0.007146, k = 0.226722
         3         2        25     1      107.005394      385.059197    ;  uncertainty theta = 0.005248, k = 0.184135
         3         4         5     1      104.047081      718.135692    ;  uncertainty theta = 0.005404, k = 0.333313
         3         4        26     1      107.233704      380.492715    ;  uncertainty theta = 0.002853, k = 0.078887
         3         4        27     1      107.233704      380.492715    ;  uncertainty theta = 0.002853, k = 0.078887
         4         3        20     1      111.547379      658.956314    ;  uncertainty theta = 0.002795, k = 0.081920
         4         3        21     1      111.547379      658.956314    ;  uncertainty theta = 0.002795, k = 0.081920
         4         5         6     1      115.298218      539.319681    ;  uncertainty theta = 0.005908, k = 0.167394
         4         5        10     1      126.048355      385.138585    ;  uncertainty theta = 0.006222, k = 0.185855
         5         4        26     1      110.550926      380.928889    ;  uncertainty theta = 0.002302, k = 0.079977
         5         4        27     1      110.550926      380.928889    ;  uncertainty theta = 0.002302, k = 0.079977
         5         6         7     1      121.282570      422.815590    ;  uncertainty theta = 0.004967, k = 0.059501
         5        10         9     1      120.042641      384.949036    ;  uncertainty theta = 0.003027, k = 0.232450
         5        10        11     1      118.172714      402.051206    ;  uncertainty theta = 0.006899, k = 0.346798
         6         2        25     1      110.152382      380.541395    ;  uncertainty theta = 0.003134, k = 0.113460
         6         5        10     1      118.927261      424.630257    ;  uncertainty theta = 0.003381, k = 0.134986
         6         7         8     1      119.742065      466.493368    ;  uncertainty theta = 0.006017, k = 0.231038
         6         7        22     1      118.562477      361.913542    ;  uncertainty theta = 0.004799, k = 0.176029
         7         8         9     1      121.415039      509.919126    ;  uncertainty theta = 0.004413, k = 0.098201
         7         8        28     1      119.328415      277.284136    ;  uncertainty theta = 0.002292, k = 0.083140
         7        22        23     1      180.000000      234.023906    ;  uncertainty theta = 0.000000, k = 0.673930
         8         7        22     1      120.642433      391.434409    ;  uncertainty theta = 0.003233, k = 0.085516
         8         9        10     1      120.061378      527.539381    ;  uncertainty theta = 0.001921, k = 0.026976
         8         9        29     1      120.311646      287.359962    ;  uncertainty theta = 0.001927, k = 0.046722
         9         8        28     1      120.047379      284.439666    ;  uncertainty theta = 0.003434, k = 0.069957
         9        10        11     1      120.877121      434.724246    ;  uncertainty theta = 0.003297, k = 0.198732
        10         9        29     1      120.009842      276.894280    ;  uncertainty theta = 0.002058, k = 0.065107
        10        11        12     1      112.905418      473.575925    ;  uncertainty theta = 0.002291, k = 0.133615
        11        12        13     1      119.162613      420.809235    ;  uncertainty theta = 0.003695, k = 0.065401
        11        12        19     1      119.162613      420.809267    ;  uncertainty theta = 0.003695, k = 0.065401
        12        13        14     1      116.673340      503.115434    ;  uncertainty theta = 0.002511, k = 0.145406
        12        13        30     1      121.876328      273.916334    ;  uncertainty theta = 0.002382, k = 0.081280
        12        19        17     1      116.673340      503.115370    ;  uncertainty theta = 0.002511, k = 0.145406
        12        19        32     1      121.876328      273.916302    ;  uncertainty theta = 0.002382, k = 0.081280
        13        12        19     1      122.797623      387.741615    ;  uncertainty theta = 0.004027, k = 0.167872
        13        14        15     1      118.466934      493.794804    ;  uncertainty theta = 0.001910, k = 0.039540
        13        14        16     1      124.053566      371.417497    ;  uncertainty theta = 0.005120, k = 0.173620
        14        13        30     1      121.727890      284.014378    ;  uncertainty theta = 0.001918, k = 0.032736
        14        16        17     1      115.264404      471.325404    ;  uncertainty theta = 0.002949, k = 0.194271
        14        16        31     1      122.279907      279.016063    ;  uncertainty theta = 0.002258, k = 0.062816
        15        14        16     1      118.556541      504.699246    ;  uncertainty theta = 0.002808, k = 0.033772
        16        17        18     1      118.556541      504.699246    ;  uncertainty theta = 0.002808, k = 0.033772
        16        17        19     1      124.053566      371.417497    ;  uncertainty theta = 0.005120, k = 0.173620
        17        16        31     1      122.279922      279.016095    ;  uncertainty theta = 0.002258, k = 0.062816
        17        19        32     1      121.727890      284.014346    ;  uncertainty theta = 0.001918, k = 0.032736
        18        17        19     1      118.466934      493.794804    ;  uncertainty theta = 0.001910, k = 0.039540
        20         3        21     1      107.030045      788.656228    ;  uncertainty theta = 0.004263, k = 0.143528
        26         4        27     1      105.628006      290.476447    ;  uncertainty theta = 0.002668, k = 0.050327

[ dihedrals ] ; propers for gromacs 4.5 or higher, use funct 9
;       ai        aj        ak        al funct           phase               k        pn
         1         2         3         4     9        0.000000       -2.637431         1    ;  uncertainty k = 0.994210
         1         2         3         4     9      180.000000        1.622518         2    ;  uncertainty k = 0.636210
         1         2         3         4     9        0.000000        1.021430         3    ;  uncertainty k = 0.295778
         1         2         3         4     9      180.000000        0.057176         4    ;  uncertainty k = 0.311105
         1         2         3        20     9        0.000000       -0.182108         1    ;  uncertainty k = 1.264798
         1         2         3        20     9      180.000000        0.466653         2    ;  uncertainty k = 0.641805
         1         2         3        20     9        0.000000        1.428413         3    ;  uncertainty k = 0.332178
         1         2         3        20     9      180.000000        0.091855         4    ;  uncertainty k = 0.292479
         1         2         3        21     9        0.000000       -0.182108         1    ;  uncertainty k = 1.264798
         1         2         3        21     9      180.000000        0.466653         2    ;  uncertainty k = 0.641805
         1         2         3        21     9        0.000000        1.428413         3    ;  uncertainty k = 0.332178
         1         2         3        21     9      180.000000        0.091855         4    ;  uncertainty k = 0.292479
         1         2         6         5     9        0.000000       -4.348604         1    ;  uncertainty k = 1.625934
         1         2         6         5     9      180.000000        4.854155         2    ;  uncertainty k = 0.763203
         1         2         6         5     9        0.000000        1.073668         3    ;  uncertainty k = 0.503990
         1         2         6         5     9      180.000000        0.620269         4    ;  uncertainty k = 0.211915
         1         2         6         7     9        0.000000       -1.857341         1    ;  uncertainty k = 1.293885
         1         2         6         7     9      180.000000        3.262811         2    ;  uncertainty k = 0.470890
         1         2         6         7     9        0.000000        0.211933         3    ;  uncertainty k = 0.384574
         1         2         6         7     9      180.000000        0.444761         4    ;  uncertainty k = 0.096737
         2         3         4         5     9        0.000000       -0.354105         1    ;  uncertainty k = 1.819455
         2         3         4         5     9      180.000000        1.679612         2    ;  uncertainty k = 0.528351
         2         3         4         5     9        0.000000       -0.016457         3    ;  uncertainty k = 0.515883
         2         3         4         5     9      180.000000       -0.158543         4    ;  uncertainty k = 0.296239
         2         3         4        26     9        0.000000       -0.323091         1    ;  uncertainty k = 0.407165
         2         3         4        26     9      180.000000       -0.235196         2    ;  uncertainty k = 0.616789
         2         3         4        26     9        0.000000       -0.018322         3    ;  uncertainty k = 0.209432
         2         3         4        26     9      180.000000       -0.013670         4    ;  uncertainty k = 0.188102
         2         3         4        27     9        0.000000       -0.323091         1    ;  uncertainty k = 0.407165
         2         3         4        27     9      180.000000       -0.235196         2    ;  uncertainty k = 0.616789
         2         3         4        27     9        0.000000       -0.018322         3    ;  uncertainty k = 0.209432
         2         3         4        27     9      180.000000       -0.013670         4    ;  uncertainty k = 0.188102
         2         6         5         4     9        0.000000        0.574177         1    ;  uncertainty k = 0.725311
         2         6         5         4     9      180.000000       11.576882         2    ;  uncertainty k = 0.641718
         2         6         5         4     9        0.000000       -0.653678         3    ;  uncertainty k = 1.137062
         2         6         5         4     9      180.000000        1.133062         4    ;  uncertainty k = 0.362564
         2         6         5        10     9        0.000000        0.801235         1    ;  uncertainty k = 0.759575
         2         6         5        10     9      180.000000        8.970415         2    ;  uncertainty k = 0.481600
         2         6         5        10     9        0.000000        0.580442         3    ;  uncertainty k = 0.457341
         2         6         5        10     9      180.000000        1.170799         4    ;  uncertainty k = 0.161834
         2         6         7         8     9        0.000000        0.273724         1    ;  uncertainty k = 0.231925
         2         6         7         8     9      180.000000        6.529094         2    ;  uncertainty k = 0.374839
         2         6         7         8     9        0.000000        1.479157         3    ;  uncertainty k = 0.198303
         2         6         7         8     9      180.000000        1.793285         4    ;  uncertainty k = 0.306132
         2         6         7        22     9        0.000000       -0.291279         1    ;  uncertainty k = 0.686975
         2         6         7        22     9      180.000000        8.196980         2    ;  uncertainty k = 0.625680
         2         6         7        22     9        0.000000        1.087447         3    ;  uncertainty k = 0.372081
         2         6         7        22     9      180.000000        1.085378         4    ;  uncertainty k = 0.373346
         3         2         1        24     9        0.000000       13.980038         1    ;  uncertainty k = 0.539148
         3         2         1        24     9      180.000000       -4.426107         2    ;  uncertainty k = 0.054594
         3         2         1        24     9        0.000000        1.030989         3    ;  uncertainty k = 0.225961
         3         2         1        24     9      180.000000        0.102469         4    ;  uncertainty k = 0.056025
         3         2         6         5     9        0.000000       -0.817704         1    ;  uncertainty k = 1.725228
         3         2         6         5     9      180.000000        9.420491         2    ;  uncertainty k = 0.831618
         3         2         6         5     9        0.000000       -1.263227         3    ;  uncertainty k = 0.443273
         3         2         6         5     9      180.000000        0.847369         4    ;  uncertainty k = 0.234873
         3         2         6         7     9        0.000000       -0.168660         1    ;  uncertainty k = 1.193444
         3         2         6         7     9      180.000000        2.997101         2    ;  uncertainty k = 0.694227
         3         2         6         7     9        0.000000        0.169967         3    ;  uncertainty k = 0.456711
         3         2         6         7     9      180.000000        0.682850         4    ;  uncertainty k = 0.272195
         3         4         5         6     9        0.000000       -1.743726         1    ;  uncertainty k = 1.324482
         3         4         5         6     9      180.000000        9.284932         2    ;  uncertainty k = 0.510815
         3         4         5         6     9        0.000000       -1.876260         3    ;  uncertainty k = 0.360176
         3         4         5         6     9      180.000000        0.890321         4    ;  uncertainty k = 0.213945
         3         4         5        10     9        0.000000       -0.575790         1    ;  uncertainty k = 0.891352
         3         4         5        10     9      180.000000        2.401252         2    ;  uncertainty k = 0.556863
         3         4         5        10     9        0.000000        0.155823         3    ;  uncertainty k = 0.209383
         3         4         5        10     9      180.000000        0.635546         4    ;  uncertainty k = 0.095840
         4         3         2         6     9        0.000000       -0.201366         1    ;  uncertainty k = 1.506240
         4         3         2         6     9      180.000000        1.170042         2    ;  uncertainty k = 0.645418
         4         3         2         6     9        0.000000        0.099351         3    ;  uncertainty k = 0.244480
         4         3         2         6     9      180.000000       -0.062736         4    ;  uncertainty k = 0.282110
         4         3         2        25     9        0.000000       -0.703567         1    ;  uncertainty k = 0.556687
         4         3         2        25     9      180.000000        0.434510         2    ;  uncertainty k = 0.553395
         4         3         2        25     9        0.000000        0.144544         3    ;  uncertainty k = 0.292233
         4         3         2        25     9      180.000000       -0.123298         4    ;  uncertainty k = 0.227932
         4         5         6         7     9        0.000000       -0.081366         1    ;  uncertainty k = 0.410661
         4         5         6         7     9      180.000000        8.925801         2    ;  uncertainty k = 0.395906
         4         5         6         7     9        0.000000        0.732146         3    ;  uncertainty k = 0.365766
         4         5         6         7     9      180.000000        1.160052         4    ;  uncertainty k = 0.316704
         4         5        10         9     9        0.000000        0.492869         1    ;  uncertainty k = 0.295728
         4         5        10         9     9      180.000000        6.380757         2    ;  uncertainty k = 0.368241
         4         5        10         9     9        0.000000        1.325882         3    ;  uncertainty k = 0.254627
         4         5        10         9     9      180.000000        1.572043         4    ;  uncertainty k = 0.277795
         4         5        10        11     9        0.000000       -0.234605         1    ;  uncertainty k = 0.696311
         4         5        10        11     9      180.000000        8.956003         2    ;  uncertainty k = 0.304657
         4         5        10        11     9        0.000000        1.013172         3    ;  uncertainty k = 0.235717
         4         5        10        11     9      180.000000        1.230370         4    ;  uncertainty k = 0.171747
         5         4         3        20     9        0.000000       -0.911751         1    ;  uncertainty k = 0.924020
         5         4         3        20     9      180.000000        0.679721         2    ;  uncertainty k = 0.539309
         5         4         3        20     9        0.000000        1.092820         3    ;  uncertainty k = 0.316921
         5         4         3        20     9      180.000000        0.257813         4    ;  uncertainty k = 0.054006
         5         4         3        21     9        0.000000       -0.911751         1    ;  uncertainty k = 0.924020
         5         4         3        21     9      180.000000        0.679721         2    ;  uncertainty k = 0.539309
         5         4         3        21     9        0.000000        1.092820         3    ;  uncertainty k = 0.316921
         5         4         3        21     9      180.000000        0.257813         4    ;  uncertainty k = 0.054006
         5         6         2        25     9        0.000000       -0.409092         1    ;  uncertainty k = 0.738509
         5         6         2        25     9      180.000000        3.075270         2    ;  uncertainty k = 0.770536
         5         6         2        25     9        0.000000        0.705059         3    ;  uncertainty k = 0.192568
         5         6         2        25     9      180.000000        0.216848         4    ;  uncertainty k = 0.124528
         5         6         7         8     9        0.000000        0.025262         1    ;  uncertainty k = 0.486554
         5         6         7         8     9      180.000000       11.058264         2    ;  uncertainty k = 0.278218
         5         6         7         8     9        0.000000       -0.938219         3    ;  uncertainty k = 0.430088
         5         6         7         8     9      180.000000        0.841964         4    ;  uncertainty k = 0.345967
         5         6         7        22     9        0.000000        0.167584         1    ;  uncertainty k = 0.398204
         5         6         7        22     9      180.000000        8.890731         2    ;  uncertainty k = 0.390763
         5         6         7        22     9        0.000000        1.186782         3    ;  uncertainty k = 0.451923
         5         6         7        22     9      180.000000        1.364045         4    ;  uncertainty k = 0.095263
         5        10         9         8     9        0.000000        0.197788         1    ;  uncertainty k = 0.351871
         5        10         9         8     9      180.000000        9.243159         2    ;  uncertainty k = 0.433534
         5        10         9         8     9        0.000000        0.179367         3    ;  uncertainty k = 0.411063
         5        10         9         8     9      180.000000        1.305123         4    ;  uncertainty k = 0.321120
         5        10         9        29     9        0.000000        0.213574         1    ;  uncertainty k = 0.411178
         5        10         9        29     9      180.000000        6.936548         2    ;  uncertainty k = 0.503357
         5        10         9        29     9        0.000000        1.365741         3    ;  uncertainty k = 0.481656
         5        10         9        29     9      180.000000        1.609804         4    ;  uncertainty k = 0.099173
         5        10        11        12     9        0.000000        4.516922         1    ;  uncertainty k = 0.751635
         5        10        11        12     9      180.000000        4.852075         2    ;  uncertainty k = 0.308418
         5        10        11        12     9        0.000000        0.785618         3    ;  uncertainty k = 0.099968
         5        10        11        12     9      180.000000        0.132363         4    ;  uncertainty k = 0.067833
         6         2         1        24     9        0.000000       14.597696         1    ;  uncertainty k = 0.261291
         6         2         1        24     9      180.000000       -3.442912         2    ;  uncertainty k = 0.484970
         6         2         1        24     9        0.000000        0.995200         3    ;  uncertainty k = 0.091333
         6         2         1        24     9      180.000000        0.110091         4    ;  uncertainty k = 0.088897
         6         2         3        20     9        0.000000        0.174999         1    ;  uncertainty k = 1.159507
         6         2         3        20     9      180.000000        0.544003         2    ;  uncertainty k = 0.921187
         6         2         3        20     9        0.000000        0.942459         3    ;  uncertainty k = 0.268882
         6         2         3        20     9      180.000000        0.272984         4    ;  uncertainty k = 0.116280
         6         2         3        21     9        0.000000        0.174999         1    ;  uncertainty k = 1.159507
         6         2         3        21     9      180.000000        0.544003         2    ;  uncertainty k = 0.921187
         6         2         3        21     9        0.000000        0.942459         3    ;  uncertainty k = 0.268882
         6         2         3        21     9      180.000000        0.272984         4    ;  uncertainty k = 0.116280
         6         5         4        26     9        0.000000       -0.369918         1    ;  uncertainty k = 0.350919
         6         5         4        26     9      180.000000        1.637023         2    ;  uncertainty k = 0.201036
         6         5         4        26     9        0.000000        0.252581         3    ;  uncertainty k = 0.136147
         6         5         4        26     9      180.000000        0.184905         4    ;  uncertainty k = 0.103775
         6         5         4        27     9        0.000000       -0.369918         1    ;  uncertainty k = 0.350919
         6         5         4        27     9      180.000000        1.637023         2    ;  uncertainty k = 0.201036
         6         5         4        27     9        0.000000        0.252581         3    ;  uncertainty k = 0.136147
         6         5         4        27     9      180.000000        0.184905         4    ;  uncertainty k = 0.103775
         6         5        10         9     9        0.000000       -0.137658         1    ;  uncertainty k = 0.210801
         6         5        10         9     9      180.000000        8.312755         2    ;  uncertainty k = 0.572282
         6         5        10         9     9        0.000000       -0.461659         3    ;  uncertainty k = 0.509004
         6         5        10         9     9      180.000000        1.092439         4    ;  uncertainty k = 0.247081
         6         5        10        11     9        0.000000       -0.054918         1    ;  uncertainty k = 0.318161
         6         5        10        11     9      180.000000        9.768792         2    ;  uncertainty k = 0.378837
         6         5        10        11     9        0.000000        1.426481         3    ;  uncertainty k = 0.247046
         6         5        10        11     9      180.000000        1.529275         4    ;  uncertainty k = 0.256051
         6         7         8         9     9        0.000000       -0.050748         1    ;  uncertainty k = 0.369797
         6         7         8         9     9      180.000000       11.118339         2    ;  uncertainty k = 0.302816
         6         7         8         9     9        0.000000       -0.386129         3    ;  uncertainty k = 0.561258
         6         7         8         9     9      180.000000        1.057308         4    ;  uncertainty k = 0.367343
         6         7         8        28     9        0.000000        0.007421         1    ;  uncertainty k = 0.354102
         6         7         8        28     9      180.000000        7.386195         2    ;  uncertainty k = 0.658837
         6         7         8        28     9        0.000000        1.383473         3    ;  uncertainty k = 0.405081
         6         7         8        28     9      180.000000        1.541618         4    ;  uncertainty k = 0.074900
         6         7        22        23     9        0.000000        0.000000         1    ;  uncertainty k = 0.000000
         6         7        22        23     9      180.000000        0.000000         2    ;  uncertainty k = 0.000000
         6         7        22        23     9        0.000000        0.000000         3    ;  uncertainty k = 0.000000
         6         7        22        23     9      180.000000        0.000000         4    ;  uncertainty k = 0.000000
         7         6         2        25     9        0.000000        1.349054         1    ;  uncertainty k = 0.937187
         7         6         2        25     9      180.000000        1.976386         2    ;  uncertainty k = 0.290896
         7         6         2        25     9        0.000000        0.002634         3    ;  uncertainty k = 0.088791
         7         6         2        25     9      180.000000        0.241202         4    ;  uncertainty k = 0.133331
         7         6         5        10     9        0.000000       -0.368113         1    ;  uncertainty k = 0.589470
         7         6         5        10     9      180.000000        9.542470         2    ;  uncertainty k = 0.555434
         7         6         5        10     9        0.000000        0.036555         3    ;  uncertainty k = 0.280447
         7         6         5        10     9      180.000000        0.984536         4    ;  uncertainty k = 0.412364
         7         8         9        10     9        0.000000       -0.152250         1    ;  uncertainty k = 0.403343
         7         8         9        10     9      180.000000       13.781947         2    ;  uncertainty k = 0.270994
         7         8         9        10     9        0.000000       -0.875486         3    ;  uncertainty k = 0.644026
         7         8         9        10     9      180.000000        0.865917         4    ;  uncertainty k = 0.323619
         7         8         9        29     9        0.000000        0.053456         1    ;  uncertainty k = 0.290038
         7         8         9        29     9      180.000000        8.174203         2    ;  uncertainty k = 0.297030
         7         8         9        29     9        0.000000        1.338482         3    ;  uncertainty k = 0.275100
         7         8         9        29     9      180.000000        1.824904         4    ;  uncertainty k = 0.153422
         8         7        22        23     9        0.000000        0.000000         1    ;  uncertainty k = 0.000000
         8         7        22        23     9      180.000000        0.000000         2    ;  uncertainty k = 0.000000
         8         7        22        23     9        0.000000        0.000000         3    ;  uncertainty k = 0.000000
         8         7        22        23     9      180.000000        0.000000         4    ;  uncertainty k = 0.000000
         8         9        10        11     9        0.000000       -0.040165         1    ;  uncertainty k = 0.194355
         8         9        10        11     9      180.000000       10.918294         2    ;  uncertainty k = 0.525091
         8         9        10        11     9        0.000000        1.486870         3    ;  uncertainty k = 0.351135
         8         9        10        11     9      180.000000        1.750121         4    ;  uncertainty k = 0.260251
         9         8         7        22     9        0.000000        0.162288         1    ;  uncertainty k = 0.260967
         9         8         7        22     9      180.000000       10.289540         2    ;  uncertainty k = 0.368085
         9         8         7        22     9        0.000000        1.324650         3    ;  uncertainty k = 0.318203
         9         8         7        22     9      180.000000        1.615230         4    ;  uncertainty k = 0.105349
         9        10        11        12     9        0.000000        5.365149         1    ;  uncertainty k = 0.316714
         9        10        11        12     9      180.000000        5.655447         2    ;  uncertainty k = 0.252612
         9        10        11        12     9        0.000000        0.419973         3    ;  uncertainty k = 0.171848
         9        10        11        12     9      180.000000        0.178396         4    ;  uncertainty k = 0.094268
        10         5         4        26     9        0.000000        0.682160         1    ;  uncertainty k = 0.175038
        10         5         4        26     9      180.000000        1.660792         2    ;  uncertainty k = 0.576540
        10         5         4        26     9        0.000000        0.133488         3    ;  uncertainty k = 0.276750
        10         5         4        26     9      180.000000        0.216783         4    ;  uncertainty k = 0.147935
        10         5         4        27     9        0.000000        0.682160         1    ;  uncertainty k = 0.175038
        10         5         4        27     9      180.000000        1.660792         2    ;  uncertainty k = 0.576540
        10         5         4        27     9        0.000000        0.133488         3    ;  uncertainty k = 0.276750
        10         5         4        27     9      180.000000        0.216783         4    ;  uncertainty k = 0.147935
        10         9         8        28     9        0.000000       -0.147118         1    ;  uncertainty k = 0.251996
        10         9         8        28     9      180.000000        7.805614         2    ;  uncertainty k = 0.153670
        10         9         8        28     9        0.000000        1.154363         3    ;  uncertainty k = 0.209219
        10         9         8        28     9      180.000000        1.736714         4    ;  uncertainty k = 0.039678
        10        11        12        13     9        0.000000        4.429389         1    ;  uncertainty k = 0.432214
        10        11        12        13     9      180.000000        5.657294         2    ;  uncertainty k = 0.167283
        10        11        12        13     9        0.000000        0.503929         3    ;  uncertainty k = 0.168001
        10        11        12        13     9      180.000000        0.140116         4    ;  uncertainty k = 0.065834
        10        11        12        19     9        0.000000        4.429387         1    ;  uncertainty k = 0.432215
        10        11        12        19     9      180.000000        5.657294         2    ;  uncertainty k = 0.167283
        10        11        12        19     9        0.000000        0.503929         3    ;  uncertainty k = 0.168001
        10        11        12        19     9      180.000000        0.140116         4    ;  uncertainty k = 0.065834
        11        10         9        29     9        0.000000       -0.009800         1    ;  uncertainty k = 0.178067
        11        10         9        29     9      180.000000        9.031456         2    ;  uncertainty k = 0.341038
        11        10         9        29     9        0.000000        0.871083         3    ;  uncertainty k = 0.235561
        11        10         9        29     9      180.000000        1.158862         4    ;  uncertainty k = 0.151463
        11        12        13        14     9        0.000000        0.072052         1    ;  uncertainty k = 0.150060
        11        12        13        14     9      180.000000       10.619269         2    ;  uncertainty k = 0.305035
        11        12        13        14     9        0.000000        1.304108         3    ;  uncertainty k = 0.154314
        11        12        13        14     9      180.000000        1.616795         4    ;  uncertainty k = 0.132282
        11        12        13        30     9        0.000000       -0.070575         1    ;  uncertainty k = 0.071484
        11        12        13        30     9      180.000000        8.196714         2    ;  uncertainty k = 0.278176
        11        12        13        30     9        0.000000        0.858407         3    ;  uncertainty k = 0.256561
        11        12        13        30     9      180.000000        1.107411         4    ;  uncertainty k = 0.104777
        11        12        19        17     9        0.000000        0.072051         1    ;  uncertainty k = 0.150061
        11        12        19        17     9      180.000000       10.619270         2    ;  uncertainty k = 0.305036
        11        12        19        17     9        0.000000        1.304107         3    ;  uncertainty k = 0.154315
        11        12        19        17     9      180.000000        1.616795         4    ;  uncertainty k = 0.132282
        11        12        19        32     9        0.000000       -0.070574         1    ;  uncertainty k = 0.071485
        11        12        19        32     9      180.000000        8.196714         2    ;  uncertainty k = 0.278175
        11        12        19        32     9        0.000000        0.858407         3    ;  uncertainty k = 0.256561
        11        12        19        32     9      180.000000        1.107412         4    ;  uncertainty k = 0.104777
        12        13        14        15     9        0.000000        0.021310         1    ;  uncertainty k = 0.082079
        12        13        14        15     9      180.000000       12.621670         2    ;  uncertainty k = 0.597171
        12        13        14        15     9        0.000000        1.514721         3    ;  uncertainty k = 0.352433
        12        13        14        15     9      180.000000        1.493583         4    ;  uncertainty k = 0.264785
        12        13        14        16     9        0.000000       -0.068499         1    ;  uncertainty k = 0.229741
        12        13        14        16     9      180.000000        9.347409         2    ;  uncertainty k = 0.435040
        12        13        14        16     9        0.000000       -0.034722         3    ;  uncertainty k = 0.546730
        12        13        14        16     9      180.000000        1.309149         4    ;  uncertainty k = 0.251917
        12        19        17        16     9        0.000000       -0.068498         1    ;  uncertainty k = 0.229741
        12        19        17        16     9      180.000000        9.347412         2    ;  uncertainty k = 0.435040
        12        19        17        16     9        0.000000       -0.034722         3    ;  uncertainty k = 0.546729
        12        19        17        16     9      180.000000        1.309149         4    ;  uncertainty k = 0.251918
        12        19        17        18     9        0.000000        0.021310         1    ;  uncertainty k = 0.082078
        12        19        17        18     9      180.000000       12.621674         2    ;  uncertainty k = 0.597171
        12        19        17        18     9        0.000000        1.514722         3    ;  uncertainty k = 0.352432
        12        19        17        18     9      180.000000        1.493583         4    ;  uncertainty k = 0.264785
        13        12        19        17     9        0.000000       -0.024646         1    ;  uncertainty k = 0.133983
        13        12        19        17     9      180.000000        9.575445         2    ;  uncertainty k = 0.511833
        13        12        19        17     9        0.000000       -0.133339         3    ;  uncertainty k = 0.552963
        13        12        19        17     9      180.000000        1.231269         4    ;  uncertainty k = 0.293001
        13        12        19        32     9        0.000000        0.187462         1    ;  uncertainty k = 0.312468
        13        12        19        32     9      180.000000        6.012783         2    ;  uncertainty k = 0.790760
        13        12        19        32     9        0.000000        1.452631         3    ;  uncertainty k = 0.400770
        13        12        19        32     9      180.000000        1.585435         4    ;  uncertainty k = 0.171144
        13        14        16        17     9        0.000000        0.012643         1    ;  uncertainty k = 0.186477
        13        14        16        17     9      180.000000        9.254012         2    ;  uncertainty k = 0.455269
        13        14        16        17     9        0.000000       -0.196365         3    ;  uncertainty k = 0.525204
        13        14        16        17     9      180.000000        1.256392         4    ;  uncertainty k = 0.239377
        13        14        16        31     9        0.000000        0.007887         1    ;  uncertainty k = 0.273454
        13        14        16        31     9      180.000000        5.748778         2    ;  uncertainty k = 0.734862
        13        14        16        31     9        0.000000        1.320563         3    ;  uncertainty k = 0.345125
        13        14        16        31     9      180.000000        1.469363         4    ;  uncertainty k = 0.139893
        14        13        12        19     9        0.000000       -0.024648         1    ;  uncertainty k = 0.133982
        14        13        12        19     9      180.000000        9.575444         2    ;  uncertainty k = 0.511833
        14        13        12        19     9        0.000000       -0.133339         3    ;  uncertainty k = 0.552962
        14        13        12        19     9      180.000000        1.231268         4    ;  uncertainty k = 0.293001
        14        16        17        18     9        0.000000       -0.084080         1    ;  uncertainty k = 0.246581
        14        16        17        18     9      180.000000       12.571783         2    ;  uncertainty k = 0.622502
        14        16        17        18     9        0.000000        1.580271         3    ;  uncertainty k = 0.300211
        14        16        17        18     9      180.000000        1.496894         4    ;  uncertainty k = 0.275368
        14        16        17        19     9        0.000000        0.012644         1    ;  uncertainty k = 0.186477
        14        16        17        19     9      180.000000        9.254012         2    ;  uncertainty k = 0.455270
        14        16        17        19     9        0.000000       -0.196365         3    ;  uncertainty k = 0.525205
        14        16        17        19     9      180.000000        1.256392         4    ;  uncertainty k = 0.239378
        15        14        13        30     9        0.000000       -0.292576         1    ;  uncertainty k = 0.229076
        15        14        13        30     9      180.000000        8.728901         2    ;  uncertainty k = 0.342947
        15        14        13        30     9        0.000000        0.836645         3    ;  uncertainty k = 0.291580
        15        14        13        30     9      180.000000        1.027813         4    ;  uncertainty k = 0.201885
        15        14        16        17     9        0.000000       -0.084081         1    ;  uncertainty k = 0.246580
        15        14        16        17     9      180.000000       12.571784         2    ;  uncertainty k = 0.622502
        15        14        16        17     9        0.000000        1.580272         3    ;  uncertainty k = 0.300211
        15        14        16        17     9      180.000000        1.496894         4    ;  uncertainty k = 0.275368
        15        14        16        31     9        0.000000       -0.235152         1    ;  uncertainty k = 0.270124
        15        14        16        31     9      180.000000        8.558982         2    ;  uncertainty k = 0.295736
        15        14        16        31     9        0.000000        0.809460         3    ;  uncertainty k = 0.314206
        15        14        16        31     9      180.000000        0.978765         4    ;  uncertainty k = 0.218612
        16        14        13        30     9        0.000000        0.084601         1    ;  uncertainty k = 0.213740
        16        14        13        30     9      180.000000        5.883624         2    ;  uncertainty k = 0.684423
        16        14        13        30     9        0.000000        1.370202         3    ;  uncertainty k = 0.375339
        16        14        13        30     9      180.000000        1.558143         4    ;  uncertainty k = 0.172439
        16        17        19        32     9        0.000000        0.084602         1    ;  uncertainty k = 0.213741
        16        17        19        32     9      180.000000        5.883622         2    ;  uncertainty k = 0.684424
        16        17        19        32     9        0.000000        1.370202         3    ;  uncertainty k = 0.375339
        16        17        19        32     9      180.000000        1.558143         4    ;  uncertainty k = 0.172438
        18        17        16        31     9        0.000000       -0.235151         1    ;  uncertainty k = 0.270125
        18        17        16        31     9      180.000000        8.558980         2    ;  uncertainty k = 0.295737
        18        17        16        31     9        0.000000        0.809460         3    ;  uncertainty k = 0.314206
        18        17        16        31     9      180.000000        0.978765         4    ;  uncertainty k = 0.218612
        18        17        19        32     9        0.000000       -0.292576         1    ;  uncertainty k = 0.229075
        18        17        19        32     9      180.000000        8.728901         2    ;  uncertainty k = 0.342946
        18        17        19        32     9        0.000000        0.836645         3    ;  uncertainty k = 0.291580
        18        17        19        32     9      180.000000        1.027812         4    ;  uncertainty k = 0.201885
        19        12        13        30     9        0.000000        0.187463         1    ;  uncertainty k = 0.312469
        19        12        13        30     9      180.000000        6.012783         2    ;  uncertainty k = 0.790760
        19        12        13        30     9        0.000000        1.452631         3    ;  uncertainty k = 0.400769
        19        12        13        30     9      180.000000        1.585435         4    ;  uncertainty k = 0.171144
        19        17        16        31     9        0.000000        0.007885         1    ;  uncertainty k = 0.273454
        19        17        16        31     9      180.000000        5.748778         2    ;  uncertainty k = 0.734862
        19        17        16        31     9        0.000000        1.320563         3    ;  uncertainty k = 0.345125
        19        17        16        31     9      180.000000        1.469363         4    ;  uncertainty k = 0.139893
        20         3         2        25     9        0.000000        0.193693         1    ;  uncertainty k = 0.422407
        20         3         2        25     9      180.000000       -0.669301         2    ;  uncertainty k = 0.275500
        20         3         2        25     9        0.000000        0.704243         3    ;  uncertainty k = 0.151071
        20         3         2        25     9      180.000000        0.077778         4    ;  uncertainty k = 0.131981
        20         3         4        26     9        0.000000        0.274643         1    ;  uncertainty k = 0.288151
        20         3         4        26     9      180.000000       -0.705176         2    ;  uncertainty k = 0.312256
        20         3         4        26     9        0.000000        0.866092         3    ;  uncertainty k = 0.211881
        20         3         4        26     9      180.000000        0.038089         4    ;  uncertainty k = 0.053248
        20         3         4        27     9        0.000000        0.274643         1    ;  uncertainty k = 0.288151
        20         3         4        27     9      180.000000       -0.705176         2    ;  uncertainty k = 0.312256
        20         3         4        27     9        0.000000        0.866092         3    ;  uncertainty k = 0.211881
        20         3         4        27     9      180.000000        0.038089         4    ;  uncertainty k = 0.053248
        21         3         2        25     9        0.000000        0.193693         1    ;  uncertainty k = 0.422407
        21         3         2        25     9      180.000000       -0.669301         2    ;  uncertainty k = 0.275500
        21         3         2        25     9        0.000000        0.704243         3    ;  uncertainty k = 0.151071
        21         3         2        25     9      180.000000        0.077778         4    ;  uncertainty k = 0.131981
        21         3         4        26     9        0.000000        0.274643         1    ;  uncertainty k = 0.288151
        21         3         4        26     9      180.000000       -0.705176         2    ;  uncertainty k = 0.312256
        21         3         4        26     9        0.000000        0.866092         3    ;  uncertainty k = 0.211881
        21         3         4        26     9      180.000000        0.038089         4    ;  uncertainty k = 0.053248
        21         3         4        27     9        0.000000        0.274643         1    ;  uncertainty k = 0.288151
        21         3         4        27     9      180.000000       -0.705176         2    ;  uncertainty k = 0.312256
        21         3         4        27     9        0.000000        0.866092         3    ;  uncertainty k = 0.211881
        21         3         4        27     9      180.000000        0.038089         4    ;  uncertainty k = 0.053248
        22         7         8        28     9        0.000000       -0.506412         1    ;  uncertainty k = 0.751191
        22         7         8        28     9      180.000000        7.524222         2    ;  uncertainty k = 0.284115
        22         7         8        28     9        0.000000        0.567475         3    ;  uncertainty k = 0.212854
        22         7         8        28     9      180.000000        1.004308         4    ;  uncertainty k = 0.273332
        24         1         2        25     9        0.000000       12.145059         1    ;  uncertainty k = 0.592953
        24         1         2        25     9      180.000000       -0.809352         2    ;  uncertainty k = 0.201262
        24         1         2        25     9        0.000000        0.779072         3    ;  uncertainty k = 0.237132
        24         1         2        25     9      180.000000        0.189698         4    ;  uncertainty k = 0.142982
        28         8         9        29     9        0.000000       -0.210019         1    ;  uncertainty k = 0.436486
        28         8         9        29     9      180.000000        7.680416         2    ;  uncertainty k = 0.367013
        28         8         9        29     9        0.000000       -0.280039         3    ;  uncertainty k = 0.212232
        28         8         9        29     9      180.000000        0.237350         4    ;  uncertainty k = 0.118390

[ dihedrals ] ; impropers
;       ai        aj        ak        al funct           phase               k        pn
         5         4         6        10     4      180.000000        5.598255         2    ;  uncertainty k = 0.287395
         5         6        10         4     4      180.000000        5.598255         2    ;  uncertainty k = 0.287395
         5        10         4         6     4      180.000000        5.598255         2    ;  uncertainty k = 0.287395
         6         2         5         7     4      180.000000        4.704390         2    ;  uncertainty k = 0.462763
         6         5         7         2     4      180.000000        4.704390         2    ;  uncertainty k = 0.462763
         6         7         2         5     4      180.000000        4.704390         2    ;  uncertainty k = 0.462763
         7         6         8        22     4      180.000000        9.281816         2    ;  uncertainty k = 0.197903
         7         8        22         6     4      180.000000        9.281816         2    ;  uncertainty k = 0.197903
         7        22         6         8     4      180.000000        9.281816         2    ;  uncertainty k = 0.197903
         8         7         9        28     4      180.000000        4.412912         2    ;  uncertainty k = 0.182368
         8         9        28         7     4      180.000000        4.412912         2    ;  uncertainty k = 0.182368
         8        28         7         9     4      180.000000        4.412912         2    ;  uncertainty k = 0.182368
         9         8        10        29     4      180.000000        2.222624         2    ;  uncertainty k = 0.105327
         9        10        29         8     4      180.000000        2.222624         2    ;  uncertainty k = 0.105327
         9        29         8        10     4      180.000000        2.222624         2    ;  uncertainty k = 0.105327
        10         5         9        11     4      180.000000       17.181529         2    ;  uncertainty k = 0.096289
        10         9        11         5     4      180.000000       17.181529         2    ;  uncertainty k = 0.096289
        10        11         5         9     4      180.000000       17.181529         2    ;  uncertainty k = 0.096289
        12        11        13        19     4      180.000000       19.463604         2    ;  uncertainty k = 0.034027
        12        13        19        11     4      180.000000       19.463604         2    ;  uncertainty k = 0.034027
        12        19        11        13     4      180.000000       19.463604         2    ;  uncertainty k = 0.034027
        13        12        14        30     4      180.000000        1.406376         2    ;  uncertainty k = 0.424044
        13        14        30        12     4      180.000000        1.406376         2    ;  uncertainty k = 0.424044
        13        30        12        14     4      180.000000        1.406376         2    ;  uncertainty k = 0.424044
        14        13        15        16     4      180.000000       18.559984         2    ;  uncertainty k = 0.051312
        14        15        16        13     4      180.000000       18.559984         2    ;  uncertainty k = 0.051312
        14        16        13        15     4      180.000000       18.559984         2    ;  uncertainty k = 0.051312
        16        14        17        31     4      180.000000        1.388755         2    ;  uncertainty k = 0.630804
        16        17        31        14     4      180.000000        1.388755         2    ;  uncertainty k = 0.630804
        16        31        14        17     4      180.000000        1.388755         2    ;  uncertainty k = 0.630804
        17        16        18        19     4      180.000000       18.559975         2    ;  uncertainty k = 0.051312
        17        18        19        16     4      180.000000       18.559975         2    ;  uncertainty k = 0.051312
        17        19        16        18     4      180.000000       18.559975         2    ;  uncertainty k = 0.051312
        19        12        17        32     4      180.000000        1.406374         2    ;  uncertainty k = 0.424048
        19        17        32        12     4      180.000000        1.406374         2    ;  uncertainty k = 0.424048
        19        32        12        17     4      180.000000        1.406374         2    ;  uncertainty k = 0.424048

[ pairs ]
;       ai        aj funct
         1         4     1
         1         5     1
         1         7     1
         1        20     1
         1        21     1
         2         8     1
         2        10     1
         2        22     1
         2        26     1
         2        27     1
         3         7     1
         3        10     1
         3        24     1
         4         7     1
         4         9     1
         4        11     1
         4        25     1
         5         8     1
         5        12     1
         5        20     1
         5        21     1
         5        22     1
         5        25     1
         5        29     1
         6         9     1
         6        11     1
         6        20     1
         6        21     1
         6        23     1
         6        24     1
         6        26     1
         6        27     1
         6        28     1
         7        10     1
         7        25     1
         7        29     1
         8        11     1
         8        23     1
         9        12     1
         9        22     1
        10        13     1
        10        19     1
        10        26     1
        10        27     1
        10        28     1
        11        14     1
        11        17     1
        11        29     1
        11        30     1
        11        32     1
        12        15     1
        12        16     1
        12        18     1
        13        17     1
        13        31     1
        13        32     1
        14        18     1
        14        19     1
        15        17     1
        15        30     1
        15        31     1
        16        30     1
        16        32     1
        18        31     1
        18        32     1
        19        30     1
        19        31     1
        20        25     1
        20        26     1
        20        27     1
        21        25     1
        21        26     1
        21        27     1
        22        28     1
        24        25     1
        28        29     1
