; ITP file created by ByteFF-joint-25, 2025-07-14 11:38:24.556936

[ atomtypes ]
;name           bonded.type        at.num        mass        charge   ptype           sigma         epsilon
 c0bf                                   6      0.0000       0.00000       A     3.31518e-01     4.13374e-01    ;  uncertainty sigma = 0.000006, epsilon = 0.000653
 c1bf                                   6      0.0000       0.00000       A     3.31530e-01     4.13152e-01    ;  uncertainty sigma = 0.000011, epsilon = 0.001075
 c2bf                                   6      0.0000       0.00000       A     3.31510e-01     4.13245e-01    ;  uncertainty sigma = 0.000006, epsilon = 0.000897
 c3bf                                   6      0.0000       0.00000       A     3.31526e-01     4.13315e-01    ;  uncertainty sigma = 0.000007, epsilon = 0.000822
 c4bf                                   6      0.0000       0.00000       A     3.31522e-01     4.13336e-01    ;  uncertainty sigma = 0.000007, epsilon = 0.000636
 c5bf                                   6      0.0000       0.00000       A     3.31517e-01     4.12784e-01    ;  uncertainty sigma = 0.000014, epsilon = 0.000944
 n6bf                                   7      0.0000       0.00000       A     3.20633e-01     8.53978e-01    ;  uncertainty sigma = 0.000014, epsilon = 0.001845
 n7bf                                   7      0.0000       0.00000       A     3.38429e-01     3.93681e-01    ;  uncertainty sigma = 0.000012, epsilon = 0.000578
 c8bf                                   6      0.0000       0.00000       A     3.31525e-01     4.13030e-01    ;  uncertainty sigma = 0.000010, epsilon = 0.000939
 c9bf                                   6      0.0000       0.00000       A     3.31487e-01     4.13616e-01    ;  uncertainty sigma = 0.000020, epsilon = 0.001109
 n10bf                                  7      0.0000       0.00000       A     3.20612e-01     8.51418e-01    ;  uncertainty sigma = 0.000030, epsilon = 0.001559
 c11bf                                  6      0.0000       0.00000       A     3.31545e-01     4.13175e-01    ;  uncertainty sigma = 0.000004, epsilon = 0.000228
 c12bf                                  6      0.0000       0.00000       A     3.31513e-01     4.13679e-01    ;  uncertainty sigma = 0.000008, epsilon = 0.001038
 c13bf                                  6      0.0000       0.00000       A     3.31539e-01     4.13372e-01    ;  uncertainty sigma = 0.000002, epsilon = 0.000832
 c14bf                                  6      0.0000       0.00000       A     3.31510e-01     4.13227e-01    ;  uncertainty sigma = 0.000003, epsilon = 0.000744
 c15bf                                  6      0.0000       0.00000       A     3.31530e-01     4.13453e-01    ;  uncertainty sigma = 0.000012, epsilon = 0.000423
 c16bf                                  6      0.0000       0.00000       A     3.31639e-01     4.14074e-01    ;  uncertainty sigma = 0.000029, epsilon = 0.001725
 c17bf                                  6      0.0000       0.00000       A     3.31542e-01     4.13583e-01    ;  uncertainty sigma = 0.000009, epsilon = 0.000998
 c18bf                                  6      0.0000       0.00000       A     3.39773e-01     4.50389e-01    ;  uncertainty sigma = 0.000036, epsilon = 0.001493
 n19bf                                  7      0.0000       0.00000       A     2.58825e-01     1.06536e+01    ;  uncertainty sigma = 0.000048, epsilon = 0.001081
 c20bf                                  6      0.0000       0.00000       A     3.39751e-01     4.50843e-01    ;  uncertainty sigma = 0.000004, epsilon = 0.001025
 c21bf                                  6      0.0000       0.00000       A     3.39769e-01     4.50680e-01    ;  uncertainty sigma = 0.000010, epsilon = 0.000994
 c22bf                                  6      0.0000       0.00000       A     3.39785e-01     4.50582e-01    ;  uncertainty sigma = 0.000006, epsilon = 0.000924
 c23bf                                  6      0.0000       0.00000       A     3.39769e-01     4.50680e-01    ;  uncertainty sigma = 0.000010, epsilon = 0.000994
 c24bf                                  6      0.0000       0.00000       A     3.39751e-01     4.50843e-01    ;  uncertainty sigma = 0.000004, epsilon = 0.001025
 c25bf                                  6      0.0000       0.00000       A     3.31523e-01     4.13250e-01    ;  uncertainty sigma = 0.000004, epsilon = 0.001197
 c26bf                                  6      0.0000       0.00000       A     3.31530e-01     4.13220e-01    ;  uncertainty sigma = 0.000009, epsilon = 0.000744
 n27bf                                  7      0.0000       0.00000       A     3.38422e-01     3.93518e-01    ;  uncertainty sigma = 0.000010, epsilon = 0.000581
 n28bf                                  7      0.0000       0.00000       A     3.20619e-01     8.52382e-01    ;  uncertainty sigma = 0.000015, epsilon = 0.000964
 c29bf                                  6      0.0000       0.00000       A     3.31525e-01     4.13133e-01    ;  uncertainty sigma = 0.000010, epsilon = 0.000959
 h30bf                                  1      0.0000       0.00000       A     2.62563e-01     6.70693e-02    ;  uncertainty sigma = 0.000010, epsilon = 0.000477
 h31bf                                  1      0.0000       0.00000       A     2.62595e-01     6.71778e-02    ;  uncertainty sigma = 0.000013, epsilon = 0.000322
 h32bf                                  1      0.0000       0.00000       A     2.62559e-01     6.68904e-02    ;  uncertainty sigma = 0.000013, epsilon = 0.000443
 h33bf                                  1      0.0000       0.00000       A     1.10655e-01     4.14032e-02    ;  uncertainty sigma = 0.000071, epsilon = 0.000793
 h34bf                                  1      0.0000       0.00000       A     1.10661e-01     4.09777e-02    ;  uncertainty sigma = 0.000073, epsilon = 0.000702
 h35bf                                  1      0.0000       0.00000       A     2.62548e-01     6.71074e-02    ;  uncertainty sigma = 0.000030, epsilon = 0.000235
 h36bf                                  1      0.0000       0.00000       A     2.62571e-01     6.70381e-02    ;  uncertainty sigma = 0.000008, epsilon = 0.000473
 h37bf                                  1      0.0000       0.00000       A     2.62577e-01     6.71749e-02    ;  uncertainty sigma = 0.000013, epsilon = 0.000695
 h38bf                                  1      0.0000       0.00000       A     2.62608e-01     6.70651e-02    ;  uncertainty sigma = 0.000010, epsilon = 0.000435
 h39bf                                  1      0.0000       0.00000       A     1.88839e-01     8.73239e-02    ;  uncertainty sigma = 0.000129, epsilon = 0.001577
 h40bf                                  1      0.0000       0.00000       A     1.88839e-01     8.73239e-02    ;  uncertainty sigma = 0.000129, epsilon = 0.001577
 h41bf                                  1      0.0000       0.00000       A     1.10649e-01     4.11876e-02    ;  uncertainty sigma = 0.000180, epsilon = 0.001021
 h42bf                                  1      0.0000       0.00000       A     1.88764e-01     8.66398e-02    ;  uncertainty sigma = 0.000088, epsilon = 0.000806
 h43bf                                  1      0.0000       0.00000       A     1.88764e-01     8.66398e-02    ;  uncertainty sigma = 0.000088, epsilon = 0.000806
 h44bf                                  1      0.0000       0.00000       A     2.60030e-01     8.66906e-02    ;  uncertainty sigma = 0.000008, epsilon = 0.000905
 h45bf                                  1      0.0000       0.00000       A     2.60030e-01     8.66906e-02    ;  uncertainty sigma = 0.000008, epsilon = 0.000905
 h46bf                                  1      0.0000       0.00000       A     2.60047e-01     8.69055e-02    ;  uncertainty sigma = 0.000002, epsilon = 0.000829
 h47bf                                  1      0.0000       0.00000       A     2.60047e-01     8.69055e-02    ;  uncertainty sigma = 0.000002, epsilon = 0.000829
 h48bf                                  1      0.0000       0.00000       A     2.60030e-01     8.66906e-02    ;  uncertainty sigma = 0.000008, epsilon = 0.000905
 h49bf                                  1      0.0000       0.00000       A     2.60030e-01     8.66906e-02    ;  uncertainty sigma = 0.000008, epsilon = 0.000905
 h50bf                                  1      0.0000       0.00000       A     1.88764e-01     8.66398e-02    ;  uncertainty sigma = 0.000088, epsilon = 0.000806
 h51bf                                  1      0.0000       0.00000       A     1.88764e-01     8.66398e-02    ;  uncertainty sigma = 0.000088, epsilon = 0.000806
 h52bf                                  1      0.0000       0.00000       A     2.53670e-01     6.72623e-02    ;  uncertainty sigma = 0.000009, epsilon = 0.000500
 h53bf                                  1      0.0000       0.00000       A     1.10698e-01     4.13972e-02    ;  uncertainty sigma = 0.000081, epsilon = 0.000690
 h54bf                                  1      0.0000       0.00000       A     2.53648e-01     6.70023e-02    ;  uncertainty sigma = 0.000026, epsilon = 0.000331

[ moleculetype ]
;name             nrexcl
 MOL                   3

[ atoms ]
;       nr            type      resi   res      atom      cgnr      charge          mass ; qtot
         1            c0bf         1   UNL        c0         1    -0.16641       12.0110 ; qtot   -0.166
         2            c1bf         1   UNL        c1         2     0.05152       12.0110 ; qtot   -0.115
         3            c2bf         1   UNL        c2         3    -0.15528       12.0110 ; qtot   -0.270
         4            c3bf         1   UNL        c3         4    -0.05069       12.0110 ; qtot   -0.321
         5            c4bf         1   UNL        c4         5    -0.21296       12.0110 ; qtot   -0.534
         6            c5bf         1   UNL        c5         6    -0.01820       12.0110 ; qtot   -0.552
         7            n6bf         1   UNL        n6         7    -0.02579       14.0070 ; qtot   -0.578
         8            n7bf         1   UNL        n7         8    -0.50896       14.0070 ; qtot   -1.087
         9            c8bf         1   UNL        c8         9     0.42430       12.0110 ; qtot   -0.662
        10            c9bf         1   UNL        c9        10    -0.09297       12.0110 ; qtot   -0.755
        11           n10bf         1   UNL       n10        11    -0.17863       14.0070 ; qtot   -0.934
        12           c11bf         1   UNL       c11        12    -0.14624       12.0110 ; qtot   -1.080
        13           c12bf         1   UNL       c12        13    -0.09138       12.0110 ; qtot   -1.172
        14           c13bf         1   UNL       c13        14    -0.01122       12.0110 ; qtot   -1.183
        15           c14bf         1   UNL       c14        15    -0.11583       12.0110 ; qtot   -1.299
        16           c15bf         1   UNL       c15        16    -0.09384       12.0110 ; qtot   -1.393
        17           c16bf         1   UNL       c16        17    -0.21383       12.0110 ; qtot   -1.606
        18           c17bf         1   UNL       c17        18    -0.02211       12.0110 ; qtot   -1.629
        19           c18bf         1   UNL       c18        19     0.21948       12.0110 ; qtot   -1.409
        20           n19bf         1   UNL       n19        20    -0.72723       14.0070 ; qtot   -2.136
        21           c20bf         1   UNL       c20        21     0.13697       12.0110 ; qtot   -1.999
        22           c21bf         1   UNL       c21        22    -0.10564       12.0110 ; qtot   -2.105
        23           c22bf         1   UNL       c22        23    -0.08930       12.0110 ; qtot   -2.194
        24           c23bf         1   UNL       c23        24    -0.10564       12.0110 ; qtot   -2.300
        25           c24bf         1   UNL       c24        25     0.13697       12.0110 ; qtot   -2.163
        26           c25bf         1   UNL       c25        26    -0.22721       12.0110 ; qtot   -2.390
        27           c26bf         1   UNL       c26        27     0.31651       12.0110 ; qtot   -2.074
        28           n27bf         1   UNL       n27        28    -0.51607       14.0070 ; qtot   -2.590
        29           n28bf         1   UNL       n28        29    -0.02726       14.0070 ; qtot   -2.617
        30           c29bf         1   UNL       c29        30    -0.11393       12.0110 ; qtot   -2.731
        31           h30bf         1   UNL       h30        31     0.13537        1.0080 ; qtot   -2.596
        32           h31bf         1   UNL       h31        32     0.14118        1.0080 ; qtot   -2.454
        33           h32bf         1   UNL       h32        33     0.14799        1.0080 ; qtot   -2.306
        34           h33bf         1   UNL       h33        34     0.32964        1.0080 ; qtot   -1.977
        35           h34bf         1   UNL       h34        35     0.30972        1.0080 ; qtot   -1.667
        36           h35bf         1   UNL       h35        36     0.16185        1.0080 ; qtot   -1.505
        37           h36bf         1   UNL       h36        37     0.14571        1.0080 ; qtot   -1.359
        38           h37bf         1   UNL       h37        38     0.14052        1.0080 ; qtot   -1.219
        39           h38bf         1   UNL       h38        39     0.14264        1.0080 ; qtot   -1.076
        40           h39bf         1   UNL       h39        40     0.09817        1.0080 ; qtot   -0.978
        41           h40bf         1   UNL       h40        41     0.09817        1.0080 ; qtot   -0.880
        42           h41bf         1   UNL       h41        42     0.44618        1.0080 ; qtot   -0.434
        43           h42bf         1   UNL       h42        43     0.09706        1.0080 ; qtot   -0.337
        44           h43bf         1   UNL       h43        44     0.09706        1.0080 ; qtot   -0.240
        45           h44bf         1   UNL       h44        45     0.08728        1.0080 ; qtot   -0.152
        46           h45bf         1   UNL       h45        46     0.08728        1.0080 ; qtot   -0.065
        47           h46bf         1   UNL       h46        47     0.07955        1.0080 ; qtot    0.014
        48           h47bf         1   UNL       h47        48     0.07955        1.0080 ; qtot    0.094
        49           h48bf         1   UNL       h48        49     0.08728        1.0080 ; qtot    0.181
        50           h49bf         1   UNL       h49        50     0.08728        1.0080 ; qtot    0.269
        51           h50bf         1   UNL       h50        51     0.09706        1.0080 ; qtot    0.366
        52           h51bf         1   UNL       h51        52     0.09706        1.0080 ; qtot    0.463
        53           h52bf         1   UNL       h52        53     0.03904        1.0080 ; qtot    0.502
        54           h53bf         1   UNL       h53        54     0.32268        1.0080 ; qtot    0.824
        55           h54bf         1   UNL       h54        55     0.17555        1.0080 ; qtot    1.000

[ bonds ]
;       ai        aj funct               r               k
         1         2     1        0.142314   333790.091699    ;  uncertainty r = 0.000185, k = 6.232574
         1         4     1        0.138550   363232.616748    ;  uncertainty r = 0.000066, k = 3.719212
         1        31     1        0.108815   336153.295801    ;  uncertainty r = 0.000021, k = 1.277949
         2         3     1        0.139370   354643.439844    ;  uncertainty r = 0.000062, k = 5.401060
         2        26     1        0.146729   275028.845508    ;  uncertainty r = 0.000013, k = 8.244460
         3         6     1        0.139923   362181.432715    ;  uncertainty r = 0.000059, k = 3.093052
         3        32     1        0.108899   336025.099512    ;  uncertainty r = 0.000039, k = 1.330432
         4         5     1        0.140387   357123.399609    ;  uncertainty r = 0.000053, k = 2.604980
         4        33     1        0.108694   334764.894238    ;  uncertainty r = 0.000029, k = 1.175002
         5         6     1        0.141673   395879.997949    ;  uncertainty r = 0.000079, k = 6.657734
         5         9     1        0.144344   226895.327051    ;  uncertainty r = 0.000037, k = 15.828667
         6         7     1        0.137610   296704.309814    ;  uncertainty r = 0.000021, k = 10.989985
         7         8     1        0.136151   293880.084277    ;  uncertainty r = 0.000063, k = 4.069476
         7        34     1        0.101079   415253.904736    ;  uncertainty r = 0.000031, k = 3.049052
         8         9     1        0.133460   447078.480273    ;  uncertainty r = 0.000096, k = 8.272837
         9        10     1        0.144794   289844.837939    ;  uncertainty r = 0.000097, k = 8.113485
        10        11     1        0.139278   314563.610645    ;  uncertainty r = 0.000138, k = 6.375764
        10        12     1        0.138557   411550.487598    ;  uncertainty r = 0.000054, k = 8.789488
        11        14     1        0.138425   328598.831494    ;  uncertainty r = 0.000062, k = 8.931475
        11        35     1        0.101173   411616.066895    ;  uncertainty r = 0.000057, k = 2.842789
        12        13     1        0.143692   255790.055566    ;  uncertainty r = 0.000105, k = 4.554133
        12        36     1        0.108254   339128.037061    ;  uncertainty r = 0.000025, k = 2.039581
        13        14     1        0.142749   371889.109473    ;  uncertainty r = 0.000072, k = 7.022474
        13        18     1        0.140315   369064.066748    ;  uncertainty r = 0.000085, k = 6.344517
        14        15     1        0.139681   367411.177344    ;  uncertainty r = 0.000052, k = 3.723678
        15        16     1        0.139020   366168.899121    ;  uncertainty r = 0.000059, k = 2.515093
        15        37     1        0.108877   336609.592871    ;  uncertainty r = 0.000015, k = 1.582506
        16        17     1        0.141750   334230.760059    ;  uncertainty r = 0.000211, k = 11.244450
        16        38     1        0.108854   333323.784082    ;  uncertainty r = 0.000014, k = 3.098911
        17        18     1        0.139748   350982.567529    ;  uncertainty r = 0.000152, k = 5.394295
        17        19     1        0.150103   226936.288574    ;  uncertainty r = 0.000114, k = 17.047802
        18        39     1        0.108909   332925.251953    ;  uncertainty r = 0.000037, k = 2.830692
        19        20     1        0.153660   179012.748999    ;  uncertainty r = 0.000327, k = 43.366644
        19        40     1        0.109181   310034.246777    ;  uncertainty r = 0.000035, k = 3.833353
        19        41     1        0.109181   310034.246777    ;  uncertainty r = 0.000035, k = 3.833353
        20        21     1        0.152169   180406.066455    ;  uncertainty r = 0.000049, k = 12.452743
        20        25     1        0.152169   180406.066455    ;  uncertainty r = 0.000049, k = 12.452743
        20        42     1        0.102586   390637.842285    ;  uncertainty r = 0.000036, k = 11.281185
        21        22     1        0.152834   209282.701929    ;  uncertainty r = 0.000028, k = 9.286892
        21        43     1        0.109144   310070.075342    ;  uncertainty r = 0.000010, k = 2.395423
        21        44     1        0.109144   310070.075342    ;  uncertainty r = 0.000010, k = 2.395423
        22        23     1        0.153701   218673.041797    ;  uncertainty r = 0.000042, k = 7.507755
        22        45     1        0.109502   309117.592236    ;  uncertainty r = 0.000018, k = 2.859548
        22        46     1        0.109502   309117.592236    ;  uncertainty r = 0.000018, k = 2.859548
        23        24     1        0.153701   218673.041797    ;  uncertainty r = 0.000042, k = 7.507755
        23        47     1        0.109462   308277.702246    ;  uncertainty r = 0.000013, k = 3.408438
        23        48     1        0.109462   308277.702246    ;  uncertainty r = 0.000013, k = 3.408438
        24        25     1        0.152834   209282.701929    ;  uncertainty r = 0.000028, k = 9.286892
        24        49     1        0.109502   309117.592236    ;  uncertainty r = 0.000018, k = 2.859548
        24        50     1        0.109502   309117.592236    ;  uncertainty r = 0.000018, k = 2.859548
        25        51     1        0.109144   310070.075342    ;  uncertainty r = 0.000010, k = 2.395423
        25        52     1        0.109144   310070.075342    ;  uncertainty r = 0.000010, k = 2.395423
        26        27     1        0.142744   247902.102148    ;  uncertainty r = 0.000035, k = 3.418687
        26        30     1        0.138973   420647.418848    ;  uncertainty r = 0.000019, k = 2.457536
        27        28     1        0.133247   460505.381641    ;  uncertainty r = 0.000044, k = 7.194296
        27        53     1        0.108451   338066.280664    ;  uncertainty r = 0.000011, k = 2.430877
        28        29     1        0.135151   304127.513379    ;  uncertainty r = 0.000056, k = 8.053367
        29        30     1        0.136183   298261.332910    ;  uncertainty r = 0.000078, k = 6.230767
        29        54     1        0.101054   417799.775781    ;  uncertainty r = 0.000028, k = 1.436665
        30        55     1        0.108210   339586.887842    ;  uncertainty r = 0.000029, k = 1.595581

[ angles ]
;       ai        aj        ak funct           theta             cth
         1         2         3     1      122.753616      414.125407    ;  uncertainty theta = 0.002295, k = 0.135900
         1         2        26     1      120.739578      447.366935    ;  uncertainty theta = 0.000798, k = 0.150162
         1         4         5     1      119.131088      538.568443    ;  uncertainty theta = 0.001587, k = 0.043411
         1         4        33     1      120.747482      285.551360    ;  uncertainty theta = 0.000810, k = 0.074929
         2         1         4     1      123.211746      525.699592    ;  uncertainty theta = 0.002804, k = 0.091770
         2         1        31     1      118.206139      285.302948    ;  uncertainty theta = 0.001545, k = 0.074609
         2         3         6     1      116.891014      518.107281    ;  uncertainty theta = 0.003315, k = 0.115574
         2         3        32     1      120.263107      276.159514    ;  uncertainty theta = 0.001882, k = 0.073823
         2        26        27     1      126.466675      341.820242    ;  uncertainty theta = 0.003908, k = 0.137638
         2        26        30     1      127.738014      350.181379    ;  uncertainty theta = 0.003434, k = 0.183205
         3         2        26     1      121.014832      431.057628    ;  uncertainty theta = 0.002457, k = 0.097814
         3         6         5     1      122.128159      374.523320    ;  uncertainty theta = 0.004057, k = 0.220700
         3         6         7     1      129.581223      393.487784    ;  uncertainty theta = 0.003205, k = 0.195819
         4         1        31     1      119.299278      299.598845    ;  uncertainty theta = 0.002179, k = 0.028711
         4         5         6     1      117.033119      396.399270    ;  uncertainty theta = 0.004823, k = 0.086292
         4         5         9     1      131.479568      363.377808    ;  uncertainty theta = 0.004315, k = 0.275797
         5         4        33     1      121.158081      280.555568    ;  uncertainty theta = 0.001179, k = 0.067913
         5         6         7     1      105.470375      656.187070    ;  uncertainty theta = 0.003922, k = 0.147749
         5         9         8     1      113.169456      813.213543    ;  uncertainty theta = 0.003665, k = 0.125410
         5         9        10     1      127.387650      329.627262    ;  uncertainty theta = 0.008479, k = 0.184424
         6         3        32     1      122.085304      296.708077    ;  uncertainty theta = 0.001019, k = 0.093816
         6         5         9     1      103.848572      751.325124    ;  uncertainty theta = 0.005897, k = 0.168338
         6         7         8     1      108.883987     1001.552470    ;  uncertainty theta = 0.003857, k = 0.031100
         6         7        34     1      116.100441      283.912484    ;  uncertainty theta = 0.006501, k = 0.101149
         7         8         9     1      109.048363      921.489546    ;  uncertainty theta = 0.003583, k = 0.165241
         8         7        34     1      108.267250      346.908703    ;  uncertainty theta = 0.005338, k = 0.074888
         8         9        10     1      120.762985      422.043699    ;  uncertainty theta = 0.004996, k = 0.118777
         9        10        11     1      119.132584      397.104668    ;  uncertainty theta = 0.005186, k = 0.178000
         9        10        12     1      128.640167      347.261370    ;  uncertainty theta = 0.004833, k = 0.168064
        10        11        14     1      106.165138      854.002691    ;  uncertainty theta = 0.002753, k = 0.085041
        10        11        35     1      116.293541      283.584141    ;  uncertainty theta = 0.006065, k = 0.113643
        10        12        13     1      107.187729      787.754258    ;  uncertainty theta = 0.002699, k = 0.072143
        10        12        36     1      123.161888      244.573158    ;  uncertainty theta = 0.003527, k = 0.152526
        11        10        12     1      111.264282      650.558244    ;  uncertainty theta = 0.002902, k = 0.165799
        11        14        13     1      108.242752      705.816974    ;  uncertainty theta = 0.002548, k = 0.146960
        11        14        15     1      129.553223      399.783192    ;  uncertainty theta = 0.001405, k = 0.079201
        12        13        14     1      106.846535      662.344706    ;  uncertainty theta = 0.001346, k = 0.176005
        12        13        18     1      132.347778      372.482490    ;  uncertainty theta = 0.003209, k = 0.146270
        13        12        36     1      124.819275      255.898052    ;  uncertainty theta = 0.003779, k = 0.072933
        13        14        15     1      119.718323      387.749499    ;  uncertainty theta = 0.002902, k = 0.065974
        13        18        17     1      119.763710      543.188936    ;  uncertainty theta = 0.005094, k = 0.209394
        13        18        39     1      120.935867      304.812789    ;  uncertainty theta = 0.002476, k = 0.040876
        14        11        35     1      116.981216      292.079827    ;  uncertainty theta = 0.005273, k = 0.076356
        14        13        18     1      116.553329      410.743879    ;  uncertainty theta = 0.005419, k = 0.156523
        14        15        16     1      117.036095      522.748204    ;  uncertainty theta = 0.003091, k = 0.092514
        14        15        37     1      122.463211      292.399360    ;  uncertainty theta = 0.001064, k = 0.070309
        15        16        17     1      123.551590      507.233644    ;  uncertainty theta = 0.008012, k = 0.030918
        15        16        38     1      119.046936      295.375869    ;  uncertainty theta = 0.001171, k = 0.111099
        16        15        37     1      120.796852      284.886821    ;  uncertainty theta = 0.001274, k = 0.066583
        16        17        18     1      124.084671      457.660305    ;  uncertainty theta = 0.007359, k = 0.143504
        16        17        19     1      118.705055      422.194495    ;  uncertainty theta = 0.000610, k = 0.181631
        17        16        38     1      118.020508      280.232140    ;  uncertainty theta = 0.003100, k = 0.193177
        17        18        39     1      119.015297      275.001023    ;  uncertainty theta = 0.004327, k = 0.205861
        17        19        20     1      112.946289      641.268802    ;  uncertainty theta = 0.003207, k = 0.126515
        17        19        40     1      109.866928      412.643393    ;  uncertainty theta = 0.002504, k = 0.135953
        17        19        41     1      109.866928      412.643393    ;  uncertainty theta = 0.002504, k = 0.135953
        18        17        19     1      118.955978      424.704857    ;  uncertainty theta = 0.002486, k = 0.075248
        19        20        21     1      111.988121      601.199098    ;  uncertainty theta = 0.006579, k = 0.139305
        19        20        25     1      111.988121      601.199098    ;  uncertainty theta = 0.006579, k = 0.139305
        19        20        42     1      106.858643      436.715726    ;  uncertainty theta = 0.004999, k = 0.136174
        20        19        40     1      105.880051      451.368249    ;  uncertainty theta = 0.004585, k = 0.191421
        20        19        41     1      105.880051      451.368249    ;  uncertainty theta = 0.004585, k = 0.191421
        20        21        22     1      110.708633      722.998277    ;  uncertainty theta = 0.001865, k = 0.132970
        20        21        43     1      106.218994      468.717554    ;  uncertainty theta = 0.002324, k = 0.085258
        20        21        44     1      106.218994      468.717554    ;  uncertainty theta = 0.002324, k = 0.085258
        20        25        24     1      110.708633      722.998277    ;  uncertainty theta = 0.001865, k = 0.132970
        20        25        51     1      106.218994      468.717554    ;  uncertainty theta = 0.002324, k = 0.085258
        20        25        52     1      106.218994      468.717554    ;  uncertainty theta = 0.002324, k = 0.085258
        21        20        25     1      111.821800      644.923226    ;  uncertainty theta = 0.001949, k = 0.259168
        21        20        42     1      106.543808      448.844735    ;  uncertainty theta = 0.004117, k = 0.223667
        21        22        23     1      109.790810      624.479174    ;  uncertainty theta = 0.004250, k = 0.083823
        21        22        45     1      107.363419      408.221227    ;  uncertainty theta = 0.002020, k = 0.076477
        21        22        46     1      107.363419      408.221227    ;  uncertainty theta = 0.002020, k = 0.076477
        22        21        43     1      111.185471      418.063421    ;  uncertainty theta = 0.001992, k = 0.101180
        22        21        44     1      111.185471      418.063421    ;  uncertainty theta = 0.001992, k = 0.101180
        22        23        24     1      108.999069      633.635057    ;  uncertainty theta = 0.005549, k = 0.186389
        22        23        47     1      108.669968      407.572266    ;  uncertainty theta = 0.002054, k = 0.047913
        22        23        48     1      108.669968      407.572266    ;  uncertainty theta = 0.002054, k = 0.047913
        23        22        45     1      109.402649      408.624746    ;  uncertainty theta = 0.001844, k = 0.027594
        23        22        46     1      109.402649      408.624746    ;  uncertainty theta = 0.001844, k = 0.027594
        23        24        25     1      109.790810      624.479174    ;  uncertainty theta = 0.004250, k = 0.083823
        23        24        49     1      109.402649      408.624746    ;  uncertainty theta = 0.001844, k = 0.027594
        23        24        50     1      109.402649      408.624746    ;  uncertainty theta = 0.001844, k = 0.027594
        24        23        47     1      108.669968      407.572266    ;  uncertainty theta = 0.002054, k = 0.047913
        24        23        48     1      108.669968      407.572266    ;  uncertainty theta = 0.002054, k = 0.047913
        24        25        51     1      111.185471      418.063421    ;  uncertainty theta = 0.001992, k = 0.101180
        24        25        52     1      111.185471      418.063421    ;  uncertainty theta = 0.001992, k = 0.101180
        25        20        42     1      106.543808      448.844735    ;  uncertainty theta = 0.004117, k = 0.223667
        25        24        49     1      107.363419      408.221227    ;  uncertainty theta = 0.002020, k = 0.076477
        25        24        50     1      107.363419      408.221227    ;  uncertainty theta = 0.002020, k = 0.076477
        26        27        28     1      113.405014      879.846373    ;  uncertainty theta = 0.003688, k = 0.079933
        26        27        53     1      125.769730      240.462050    ;  uncertainty theta = 0.003749, k = 0.060157
        26        30        29     1      107.470253      729.012011    ;  uncertainty theta = 0.004110, k = 0.093668
        26        30        55     1      129.752106      224.437578    ;  uncertainty theta = 0.003616, k = 0.133918
        27        26        30     1      104.381912      681.340931    ;  uncertainty theta = 0.006423, k = 0.139845
        27        28        29     1      105.773483      910.860873    ;  uncertainty theta = 0.002448, k = 0.177987
        28        27        53     1      118.647316      287.913479    ;  uncertainty theta = 0.003206, k = 0.058268
        28        29        30     1      109.530273     1005.812889    ;  uncertainty theta = 0.002921, k = 0.072434
        28        29        54     1      109.482483      344.918755    ;  uncertainty theta = 0.005444, k = 0.088232
        29        30        55     1      118.258194      278.459194    ;  uncertainty theta = 0.004081, k = 0.105582
        30        29        54     1      115.106285      282.469989    ;  uncertainty theta = 0.007319, k = 0.104720
        40        19        41     1      106.646156      319.393074    ;  uncertainty theta = 0.003403, k = 0.028629
        43        21        44     1      107.461449      325.817508    ;  uncertainty theta = 0.003055, k = 0.044212
        45        22        46     1      104.866112      316.124707    ;  uncertainty theta = 0.003395, k = 0.053955
        47        23        48     1      104.130638      320.035651    ;  uncertainty theta = 0.002967, k = 0.052617
        49        24        50     1      104.866112      316.124707    ;  uncertainty theta = 0.003395, k = 0.053955
        51        25        52     1      107.461449      325.817476    ;  uncertainty theta = 0.003055, k = 0.044212

[ dihedrals ] ; propers for gromacs 4.5 or higher, use funct 9
;       ai        aj        ak        al funct           phase               k        pn
         1         2         3         6     9        0.000000        0.122748         1    ;  uncertainty k = 0.168444
         1         2         3         6     9      180.000000       14.009815         2    ;  uncertainty k = 0.304021
         1         2         3         6     9        0.000000        0.204534         3    ;  uncertainty k = 0.103521
         1         2         3         6     9      180.000000        0.864827         4    ;  uncertainty k = 0.291330
         1         2         3        32     9        0.000000        0.304325         1    ;  uncertainty k = 0.273921
         1         2         3        32     9      180.000000        7.918767         2    ;  uncertainty k = 0.667275
         1         2         3        32     9        0.000000        1.611536         3    ;  uncertainty k = 0.127477
         1         2         3        32     9      180.000000        1.727869         4    ;  uncertainty k = 0.265870
         1         2        26        27     9        0.000000        0.488186         1    ;  uncertainty k = 0.772839
         1         2        26        27     9      180.000000        2.967158         2    ;  uncertainty k = 0.239178
         1         2        26        27     9        0.000000        0.423920         3    ;  uncertainty k = 0.132737
         1         2        26        27     9      180.000000       -0.079731         4    ;  uncertainty k = 0.057339
         1         2        26        30     9        0.000000        0.479577         1    ;  uncertainty k = 0.575385
         1         2        26        30     9      180.000000        3.278472         2    ;  uncertainty k = 0.317252
         1         2        26        30     9        0.000000        0.309684         3    ;  uncertainty k = 0.171958
         1         2        26        30     9      180.000000        0.000182         4    ;  uncertainty k = 0.093490
         1         4         5         6     9        0.000000        0.105116         1    ;  uncertainty k = 0.366509
         1         4         5         6     9      180.000000       13.531162         2    ;  uncertainty k = 0.286625
         1         4         5         6     9        0.000000       -1.891012         3    ;  uncertainty k = 0.651904
         1         4         5         6     9      180.000000        0.678514         4    ;  uncertainty k = 0.331226
         1         4         5         9     9        0.000000        0.287458         1    ;  uncertainty k = 0.359395
         1         4         5         9     9      180.000000        8.638885         2    ;  uncertainty k = 0.468152
         1         4         5         9     9        0.000000        0.611974         3    ;  uncertainty k = 0.445106
         1         4         5         9     9      180.000000        1.279369         4    ;  uncertainty k = 0.109466
         2         1         4         5     9        0.000000       -0.018938         1    ;  uncertainty k = 0.268999
         2         1         4         5     9      180.000000       16.400232         2    ;  uncertainty k = 0.280602
         2         1         4         5     9        0.000000       -0.261217         3    ;  uncertainty k = 0.449100
         2         1         4         5     9      180.000000        0.721818         4    ;  uncertainty k = 0.333096
         2         1         4        33     9        0.000000        0.042576         1    ;  uncertainty k = 0.179171
         2         1         4        33     9      180.000000        9.070071         2    ;  uncertainty k = 0.401808
         2         1         4        33     9        0.000000        1.435001         3    ;  uncertainty k = 0.238845
         2         1         4        33     9      180.000000        1.888374         4    ;  uncertainty k = 0.348576
         2         3         6         5     9        0.000000       -0.008300         1    ;  uncertainty k = 0.249913
         2         3         6         5     9      180.000000       12.279770         2    ;  uncertainty k = 0.193345
         2         3         6         5     9        0.000000       -1.364343         3    ;  uncertainty k = 0.573864
         2         3         6         5     9      180.000000        0.749257         4    ;  uncertainty k = 0.241271
         2         3         6         7     9        0.000000        0.104248         1    ;  uncertainty k = 0.199116
         2         3         6         7     9      180.000000       10.457783         2    ;  uncertainty k = 0.634551
         2         3         6         7     9        0.000000        0.865403         3    ;  uncertainty k = 0.249365
         2         3         6         7     9      180.000000        1.248126         4    ;  uncertainty k = 0.370684
         2        26        27        28     9        0.000000        0.933170         1    ;  uncertainty k = 1.095609
         2        26        27        28     9      180.000000       12.303247         2    ;  uncertainty k = 0.500071
         2        26        27        28     9        0.000000        1.867226         3    ;  uncertainty k = 0.553327
         2        26        27        28     9      180.000000        0.488598         4    ;  uncertainty k = 0.224331
         2        26        27        53     9        0.000000        0.228451         1    ;  uncertainty k = 0.806928
         2        26        27        53     9      180.000000        5.279613         2    ;  uncertainty k = 0.556075
         2        26        27        53     9        0.000000        1.360634         3    ;  uncertainty k = 0.229651
         2        26        27        53     9      180.000000        0.295717         4    ;  uncertainty k = 0.039000
         2        26        30        29     9        0.000000        0.804934         1    ;  uncertainty k = 1.054505
         2        26        30        29     9      180.000000       14.760340         2    ;  uncertainty k = 0.272098
         2        26        30        29     9        0.000000        1.445204         3    ;  uncertainty k = 0.084890
         2        26        30        29     9      180.000000        0.712090         4    ;  uncertainty k = 0.304141
         2        26        30        55     9        0.000000        0.422197         1    ;  uncertainty k = 0.571355
         2        26        30        55     9      180.000000        6.596551         2    ;  uncertainty k = 0.818549
         2        26        30        55     9        0.000000        1.338271         3    ;  uncertainty k = 0.471847
         2        26        30        55     9      180.000000        0.403325         4    ;  uncertainty k = 0.129444
         3         2         1         4     9        0.000000       -0.014468         1    ;  uncertainty k = 0.324963
         3         2         1         4     9      180.000000        8.427642         2    ;  uncertainty k = 0.448331
         3         2         1         4     9        0.000000        0.039470         3    ;  uncertainty k = 0.388904
         3         2         1         4     9      180.000000        1.087185         4    ;  uncertainty k = 0.258924
         3         2         1        31     9        0.000000       -0.167763         1    ;  uncertainty k = 0.280601
         3         2         1        31     9      180.000000        6.257950         2    ;  uncertainty k = 0.721482
         3         2         1        31     9        0.000000        1.262787         3    ;  uncertainty k = 0.190784
         3         2         1        31     9      180.000000        1.458207         4    ;  uncertainty k = 0.230785
         3         2        26        27     9        0.000000        0.008832         1    ;  uncertainty k = 0.705162
         3         2        26        27     9      180.000000        2.951469         2    ;  uncertainty k = 0.351904
         3         2        26        27     9        0.000000        0.482327         3    ;  uncertainty k = 0.147622
         3         2        26        27     9      180.000000       -0.109051         4    ;  uncertainty k = 0.088073
         3         2        26        30     9        0.000000        0.390779         1    ;  uncertainty k = 0.507001
         3         2        26        30     9      180.000000        3.248727         2    ;  uncertainty k = 0.393605
         3         2        26        30     9        0.000000        0.507275         3    ;  uncertainty k = 0.254145
         3         2        26        30     9      180.000000       -0.033175         4    ;  uncertainty k = 0.099424
         3         6         5         4     9        0.000000       -0.663217         1    ;  uncertainty k = 0.929692
         3         6         5         4     9      180.000000        7.307970         2    ;  uncertainty k = 0.447026
         3         6         5         4     9        0.000000        0.210374         3    ;  uncertainty k = 0.193850
         3         6         5         4     9      180.000000        1.007243         4    ;  uncertainty k = 0.348905
         3         6         5         9     9        0.000000        0.045484         1    ;  uncertainty k = 0.438166
         3         6         5         9     9      180.000000        7.136978         2    ;  uncertainty k = 0.425143
         3         6         5         9     9        0.000000        0.235143         3    ;  uncertainty k = 0.363305
         3         6         5         9     9      180.000000        1.309496         4    ;  uncertainty k = 0.383731
         3         6         7         8     9        0.000000        0.914269         1    ;  uncertainty k = 0.758104
         3         6         7         8     9      180.000000        6.983536         2    ;  uncertainty k = 0.224427
         3         6         7         8     9        0.000000        0.720920         3    ;  uncertainty k = 0.424543
         3         6         7         8     9      180.000000        0.307610         4    ;  uncertainty k = 0.245794
         3         6         7        34     9        0.000000        2.040319         1    ;  uncertainty k = 1.142489
         3         6         7        34     9      180.000000        1.621970         2    ;  uncertainty k = 0.682064
         3         6         7        34     9        0.000000        1.300101         3    ;  uncertainty k = 0.574818
         3         6         7        34     9      180.000000        0.126425         4    ;  uncertainty k = 0.119095
         4         1         2        26     9        0.000000       -0.102409         1    ;  uncertainty k = 0.477571
         4         1         2        26     9      180.000000        7.785079         2    ;  uncertainty k = 0.665340
         4         1         2        26     9        0.000000        1.186940         3    ;  uncertainty k = 0.368524
         4         1         2        26     9      180.000000        1.609877         4    ;  uncertainty k = 0.225185
         4         5         6         7     9        0.000000       -0.074818         1    ;  uncertainty k = 0.515948
         4         5         6         7     9      180.000000        8.395537         2    ;  uncertainty k = 0.233545
         4         5         6         7     9        0.000000       -0.196563         3    ;  uncertainty k = 0.484103
         4         5         6         7     9      180.000000        1.224026         4    ;  uncertainty k = 0.359971
         4         5         9         8     9        0.000000        0.869963         1    ;  uncertainty k = 0.447696
         4         5         9         8     9      180.000000        6.450477         2    ;  uncertainty k = 0.541484
         4         5         9         8     9        0.000000        0.389738         3    ;  uncertainty k = 0.243411
         4         5         9         8     9      180.000000        0.948810         4    ;  uncertainty k = 0.229399
         4         5         9        10     9        0.000000        0.197698         1    ;  uncertainty k = 1.186070
         4         5         9        10     9      180.000000        4.839489         2    ;  uncertainty k = 1.275533
         4         5         9        10     9        0.000000        1.391095         3    ;  uncertainty k = 0.169325
         4         5         9        10     9      180.000000        0.059881         4    ;  uncertainty k = 0.261239
         5         4         1        31     9        0.000000        0.118507         1    ;  uncertainty k = 0.316810
         5         4         1        31     9      180.000000       11.211377         2    ;  uncertainty k = 0.371449
         5         4         1        31     9        0.000000        1.529957         3    ;  uncertainty k = 0.292844
         5         4         1        31     9      180.000000        1.799800         4    ;  uncertainty k = 0.319463
         5         6         3        32     9        0.000000        0.142145         1    ;  uncertainty k = 0.265475
         5         6         3        32     9      180.000000        6.735007         2    ;  uncertainty k = 1.306009
         5         6         3        32     9        0.000000        1.371097         3    ;  uncertainty k = 0.153072
         5         6         3        32     9      180.000000        1.144263         4    ;  uncertainty k = 0.403087
         5         6         7         8     9        0.000000        0.348023         1    ;  uncertainty k = 0.409015
         5         6         7         8     9      180.000000       17.575712         2    ;  uncertainty k = 1.152984
         5         6         7         8     9        0.000000       -8.135803         3    ;  uncertainty k = 1.189341
         5         6         7         8     9      180.000000        0.686446         4    ;  uncertainty k = 0.515773
         5         6         7        34     9        0.000000        4.410424         1    ;  uncertainty k = 1.712130
         5         6         7        34     9      180.000000        5.729746         2    ;  uncertainty k = 1.320370
         5         6         7        34     9        0.000000        1.358018         3    ;  uncertainty k = 0.237777
         5         6         7        34     9      180.000000        0.062049         4    ;  uncertainty k = 0.144191
         5         9         8         7     9        0.000000       -0.152463         1    ;  uncertainty k = 0.527529
         5         9         8         7     9      180.000000       23.103862         2    ;  uncertainty k = 0.273884
         5         9         8         7     9        0.000000       -3.597325         3    ;  uncertainty k = 0.900478
         5         9         8         7     9      180.000000        2.077250         4    ;  uncertainty k = 0.560504
         5         9        10        11     9        0.000000        1.903801         1    ;  uncertainty k = 0.991191
         5         9        10        11     9      180.000000        2.852513         2    ;  uncertainty k = 0.311803
         5         9        10        11     9        0.000000        0.907814         3    ;  uncertainty k = 0.214036
         5         9        10        11     9      180.000000       -0.068704         4    ;  uncertainty k = 0.129687
         5         9        10        12     9        0.000000        0.295894         1    ;  uncertainty k = 0.984650
         5         9        10        12     9      180.000000        2.348433         2    ;  uncertainty k = 0.289649
         5         9        10        12     9        0.000000        0.481515         3    ;  uncertainty k = 0.178789
         5         9        10        12     9      180.000000        0.001695         4    ;  uncertainty k = 0.099466
         6         3         2        26     9        0.000000        0.216843         1    ;  uncertainty k = 0.417902
         6         3         2        26     9      180.000000       12.932963         2    ;  uncertainty k = 0.562041
         6         3         2        26     9        0.000000        1.351085         3    ;  uncertainty k = 0.291918
         6         3         2        26     9      180.000000        1.249997         4    ;  uncertainty k = 0.306488
         6         5         4        33     9        0.000000        0.076721         1    ;  uncertainty k = 0.511337
         6         5         4        33     9      180.000000        7.661923         2    ;  uncertainty k = 0.913247
         6         5         4        33     9        0.000000        1.282461         3    ;  uncertainty k = 0.369762
         6         5         4        33     9      180.000000        1.124843         4    ;  uncertainty k = 0.443258
         6         5         9         8     9        0.000000        0.481449         1    ;  uncertainty k = 0.448067
         6         5         9         8     9      180.000000       13.369195         2    ;  uncertainty k = 0.818247
         6         5         9         8     9        0.000000      -10.541430         3    ;  uncertainty k = 1.840182
         6         5         9         8     9      180.000000        2.001034         4    ;  uncertainty k = 0.453766
         6         5         9        10     9        0.000000        1.041528         1    ;  uncertainty k = 1.872081
         6         5         9        10     9      180.000000        9.358826         2    ;  uncertainty k = 0.387540
         6         5         9        10     9        0.000000        1.288247         3    ;  uncertainty k = 0.286854
         6         5         9        10     9      180.000000        0.444981         4    ;  uncertainty k = 0.273323
         6         7         8         9     9        0.000000       -0.776290         1    ;  uncertainty k = 0.774124
         6         7         8         9     9      180.000000       17.480299         2    ;  uncertainty k = 0.702625
         6         7         8         9     9        0.000000       -4.742459         3    ;  uncertainty k = 1.217381
         6         7         8         9     9      180.000000        1.006469         4    ;  uncertainty k = 0.569132
         7         6         3        32     9        0.000000        0.264576         1    ;  uncertainty k = 0.444830
         7         6         3        32     9      180.000000        5.608436         2    ;  uncertainty k = 0.915621
         7         6         3        32     9        0.000000        1.123133         3    ;  uncertainty k = 0.346537
         7         6         3        32     9      180.000000        0.852480         4    ;  uncertainty k = 0.450820
         7         6         5         9     9        0.000000       -0.427236         1    ;  uncertainty k = 0.145358
         7         6         5         9     9      180.000000       12.659133         2    ;  uncertainty k = 0.767344
         7         6         5         9     9        0.000000       -3.917352         3    ;  uncertainty k = 1.496761
         7         6         5         9     9      180.000000        1.556568         4    ;  uncertainty k = 0.516301
         7         8         9        10     9        0.000000        0.075600         1    ;  uncertainty k = 0.462753
         7         8         9        10     9      180.000000       25.017677         2    ;  uncertainty k = 0.430608
         7         8         9        10     9        0.000000        1.726979         3    ;  uncertainty k = 0.539591
         7         8         9        10     9      180.000000        1.073174         4    ;  uncertainty k = 0.433352
         8         9        10        11     9        0.000000        0.781710         1    ;  uncertainty k = 0.994313
         8         9        10        11     9      180.000000        4.218386         2    ;  uncertainty k = 0.146827
         8         9        10        11     9        0.000000        0.456255         3    ;  uncertainty k = 0.336140
         8         9        10        11     9      180.000000        0.006739         4    ;  uncertainty k = 0.109076
         8         9        10        12     9        0.000000        1.294517         1    ;  uncertainty k = 0.682896
         8         9        10        12     9      180.000000        3.396277         2    ;  uncertainty k = 0.207658
         8         9        10        12     9        0.000000        1.007984         3    ;  uncertainty k = 0.211819
         8         9        10        12     9      180.000000       -0.027329         4    ;  uncertainty k = 0.091070
         9         5         4        33     9        0.000000        0.277582         1    ;  uncertainty k = 0.507884
         9         5         4        33     9      180.000000        5.493377         2    ;  uncertainty k = 0.387697
         9         5         4        33     9        0.000000        1.135144         3    ;  uncertainty k = 0.107962
         9         5         4        33     9      180.000000        0.624838         4    ;  uncertainty k = 0.290557
         9         8         7        34     9        0.000000        3.342230         1    ;  uncertainty k = 2.444709
         9         8         7        34     9      180.000000       12.205419         2    ;  uncertainty k = 0.276133
         9         8         7        34     9        0.000000        1.618226         3    ;  uncertainty k = 1.032837
         9         8         7        34     9      180.000000       -0.142384         4    ;  uncertainty k = 0.501616
         9        10        11        14     9        0.000000        0.972876         1    ;  uncertainty k = 0.747688
         9        10        11        14     9      180.000000        9.072037         2    ;  uncertainty k = 0.685183
         9        10        11        14     9        0.000000        1.396325         3    ;  uncertainty k = 0.437267
         9        10        11        14     9      180.000000        0.162816         4    ;  uncertainty k = 0.433254
         9        10        11        35     9        0.000000        0.918600         1    ;  uncertainty k = 1.149431
         9        10        11        35     9      180.000000        2.312194         2    ;  uncertainty k = 0.875632
         9        10        11        35     9        0.000000        1.179158         3    ;  uncertainty k = 0.546571
         9        10        11        35     9      180.000000        0.033563         4    ;  uncertainty k = 0.163922
         9        10        12        13     9        0.000000        0.445398         1    ;  uncertainty k = 0.425637
         9        10        12        13     9      180.000000       14.898008         2    ;  uncertainty k = 0.250982
         9        10        12        13     9        0.000000        1.555908         3    ;  uncertainty k = 0.315662
         9        10        12        13     9      180.000000        0.839320         4    ;  uncertainty k = 0.195174
         9        10        12        36     9        0.000000        0.548979         1    ;  uncertainty k = 0.628695
         9        10        12        36     9      180.000000        8.040030         2    ;  uncertainty k = 0.846047
         9        10        12        36     9        0.000000        1.437429         3    ;  uncertainty k = 0.231870
         9        10        12        36     9      180.000000        0.430055         4    ;  uncertainty k = 0.351490
        10        11        14        13     9        0.000000        0.677224         1    ;  uncertainty k = 0.484040
        10        11        14        13     9      180.000000       15.391538         2    ;  uncertainty k = 0.543861
        10        11        14        13     9        0.000000       -7.176031         3    ;  uncertainty k = 1.504592
        10        11        14        13     9      180.000000        0.720549         4    ;  uncertainty k = 0.312836
        10        11        14        15     9        0.000000        1.177185         1    ;  uncertainty k = 1.388290
        10        11        14        15     9      180.000000        6.066057         2    ;  uncertainty k = 0.681074
        10        11        14        15     9        0.000000        0.556232         3    ;  uncertainty k = 0.680744
        10        11        14        15     9      180.000000        0.362922         4    ;  uncertainty k = 0.189431
        10        12        13        14     9        0.000000        0.361292         1    ;  uncertainty k = 1.330430
        10        12        13        14     9      180.000000       13.508990         2    ;  uncertainty k = 0.841570
        10        12        13        14     9        0.000000      -10.232746         3    ;  uncertainty k = 2.429813
        10        12        13        14     9      180.000000        1.943500         4    ;  uncertainty k = 0.699510
        10        12        13        18     9        0.000000        0.719928         1    ;  uncertainty k = 1.051785
        10        12        13        18     9      180.000000        7.152434         2    ;  uncertainty k = 0.463258
        10        12        13        18     9        0.000000        0.639458         3    ;  uncertainty k = 0.568479
        10        12        13        18     9      180.000000        0.881597         4    ;  uncertainty k = 0.181196
        11        10        12        13     9        0.000000       -0.170591         1    ;  uncertainty k = 0.457887
        11        10        12        13     9      180.000000       21.183000         2    ;  uncertainty k = 0.305566
        11        10        12        13     9        0.000000       -5.763849         3    ;  uncertainty k = 0.923330
        11        10        12        13     9      180.000000        1.114901         4    ;  uncertainty k = 0.646691
        11        10        12        36     9        0.000000        0.167060         1    ;  uncertainty k = 0.788367
        11        10        12        36     9      180.000000       13.631220         2    ;  uncertainty k = 0.279679
        11        10        12        36     9        0.000000        1.611237         3    ;  uncertainty k = 0.521630
        11        10        12        36     9      180.000000        0.833703         4    ;  uncertainty k = 0.212157
        11        14        13        12     9        0.000000       -0.202825         1    ;  uncertainty k = 0.478407
        11        14        13        12     9      180.000000       13.002652         2    ;  uncertainty k = 0.931177
        11        14        13        12     9        0.000000       -3.504618         3    ;  uncertainty k = 1.340468
        11        14        13        12     9      180.000000        1.499261         4    ;  uncertainty k = 0.893862
        11        14        13        18     9        0.000000       -0.009400         1    ;  uncertainty k = 0.665287
        11        14        13        18     9      180.000000        8.599465         2    ;  uncertainty k = 0.303691
        11        14        13        18     9        0.000000        0.039108         3    ;  uncertainty k = 0.634312
        11        14        13        18     9      180.000000        1.157750         4    ;  uncertainty k = 0.318749
        11        14        15        16     9        0.000000        0.101687         1    ;  uncertainty k = 0.492650
        11        14        15        16     9      180.000000       10.396881         2    ;  uncertainty k = 0.405513
        11        14        15        16     9        0.000000        0.905536         3    ;  uncertainty k = 0.217852
        11        14        15        16     9      180.000000        1.193490         4    ;  uncertainty k = 0.199283
        11        14        15        37     9        0.000000        0.297608         1    ;  uncertainty k = 0.281792
        11        14        15        37     9      180.000000        5.979846         2    ;  uncertainty k = 0.436306
        11        14        15        37     9        0.000000        1.081486         3    ;  uncertainty k = 0.443402
        11        14        15        37     9      180.000000        0.788557         4    ;  uncertainty k = 0.396366
        12        10        11        14     9        0.000000       -0.312845         1    ;  uncertainty k = 0.580788
        12        10        11        14     9      180.000000       14.762202         2    ;  uncertainty k = 0.576008
        12        10        11        14     9        0.000000       -6.005934         3    ;  uncertainty k = 0.754875
        12        10        11        14     9      180.000000        0.807473         4    ;  uncertainty k = 0.503918
        12        10        11        35     9        0.000000        2.692548         1    ;  uncertainty k = 0.930202
        12        10        11        35     9      180.000000        7.104361         2    ;  uncertainty k = 0.633239
        12        10        11        35     9        0.000000        1.708608         3    ;  uncertainty k = 0.800499
        12        10        11        35     9      180.000000       -0.086000         4    ;  uncertainty k = 0.169592
        12        13        14        15     9        0.000000        0.122372         1    ;  uncertainty k = 0.493782
        12        13        14        15     9      180.000000        7.658649         2    ;  uncertainty k = 0.231490
        12        13        14        15     9        0.000000        0.307669         3    ;  uncertainty k = 0.516181
        12        13        14        15     9      180.000000        1.225404         4    ;  uncertainty k = 0.295152
        12        13        18        17     9        0.000000        0.273940         1    ;  uncertainty k = 0.242143
        12        13        18        17     9      180.000000        9.158220         2    ;  uncertainty k = 0.581427
        12        13        18        17     9        0.000000        0.774232         3    ;  uncertainty k = 0.207770
        12        13        18        17     9      180.000000        1.313479         4    ;  uncertainty k = 0.061551
        12        13        18        39     9        0.000000        0.176521         1    ;  uncertainty k = 0.521884
        12        13        18        39     9      180.000000        6.160616         2    ;  uncertainty k = 0.516039
        12        13        18        39     9        0.000000        1.150569         3    ;  uncertainty k = 0.299354
        12        13        18        39     9      180.000000        0.773380         4    ;  uncertainty k = 0.265485
        13        14        11        35     9        0.000000        4.251255         1    ;  uncertainty k = 1.360478
        13        14        11        35     9      180.000000        5.652297         2    ;  uncertainty k = 0.865941
        13        14        11        35     9        0.000000        1.218097         3    ;  uncertainty k = 0.455419
        13        14        11        35     9      180.000000        0.178738         4    ;  uncertainty k = 0.095967
        13        14        15        16     9        0.000000        0.138507         1    ;  uncertainty k = 0.419631
        13        14        15        16     9      180.000000       12.342478         2    ;  uncertainty k = 0.198431
        13        14        15        16     9        0.000000       -1.190024         3    ;  uncertainty k = 0.162598
        13        14        15        16     9      180.000000        0.787465         4    ;  uncertainty k = 0.236198
        13        14        15        37     9        0.000000        0.110142         1    ;  uncertainty k = 0.471897
        13        14        15        37     9      180.000000        6.826218         2    ;  uncertainty k = 0.834942
        13        14        15        37     9        0.000000        1.286748         3    ;  uncertainty k = 0.286966
        13        14        15        37     9      180.000000        1.215500         4    ;  uncertainty k = 0.381963
        13        18        17        16     9        0.000000       -0.120548         1    ;  uncertainty k = 0.442668
        13        18        17        16     9      180.000000       14.435859         2    ;  uncertainty k = 0.456972
        13        18        17        16     9        0.000000       -0.084202         3    ;  uncertainty k = 0.428045
        13        18        17        16     9      180.000000        0.846335         4    ;  uncertainty k = 0.451327
        13        18        17        19     9        0.000000        0.079424         1    ;  uncertainty k = 0.272272
        13        18        17        19     9      180.000000       12.474388         2    ;  uncertainty k = 0.384270
        13        18        17        19     9        0.000000        1.421860         3    ;  uncertainty k = 0.339278
        13        18        17        19     9      180.000000        1.635099         4    ;  uncertainty k = 0.224797
        14        13        12        36     9        0.000000        0.017967         1    ;  uncertainty k = 0.631560
        14        13        12        36     9      180.000000        8.382173         2    ;  uncertainty k = 0.283584
        14        13        12        36     9        0.000000        1.223121         3    ;  uncertainty k = 0.388946
        14        13        12        36     9      180.000000        0.290886         4    ;  uncertainty k = 0.214805
        14        13        18        17     9        0.000000        0.115653         1    ;  uncertainty k = 0.417507
        14        13        18        17     9      180.000000       13.211841         2    ;  uncertainty k = 0.348487
        14        13        18        17     9        0.000000       -1.525755         3    ;  uncertainty k = 0.580502
        14        13        18        17     9      180.000000        0.752655         4    ;  uncertainty k = 0.130469
        14        13        18        39     9        0.000000        0.217180         1    ;  uncertainty k = 0.371606
        14        13        18        39     9      180.000000        7.628301         2    ;  uncertainty k = 0.907146
        14        13        18        39     9        0.000000        1.336832         3    ;  uncertainty k = 0.359407
        14        13        18        39     9      180.000000        1.243972         4    ;  uncertainty k = 0.290146
        14        15        16        17     9        0.000000       -0.069405         1    ;  uncertainty k = 0.317444
        14        15        16        17     9      180.000000       15.480187         2    ;  uncertainty k = 0.356555
        14        15        16        17     9        0.000000       -0.213723         3    ;  uncertainty k = 0.302107
        14        15        16        17     9      180.000000        0.786315         4    ;  uncertainty k = 0.335466
        14        15        16        38     9        0.000000       -0.162996         1    ;  uncertainty k = 0.244564
        14        15        16        38     9      180.000000       11.002376         2    ;  uncertainty k = 0.216657
        14        15        16        38     9        0.000000        1.394471         3    ;  uncertainty k = 0.287042
        14        15        16        38     9      180.000000        1.583323         4    ;  uncertainty k = 0.169870
        15        14        11        35     9        0.000000        1.269472         1    ;  uncertainty k = 0.837827
        15        14        11        35     9      180.000000        2.067532         2    ;  uncertainty k = 0.608338
        15        14        11        35     9        0.000000        1.208102         3    ;  uncertainty k = 0.532703
        15        14        11        35     9      180.000000        0.096571         4    ;  uncertainty k = 0.215072
        15        14        13        18     9        0.000000       -0.706833         1    ;  uncertainty k = 0.684641
        15        14        13        18     9      180.000000        7.606582         2    ;  uncertainty k = 0.334024
        15        14        13        18     9        0.000000        0.144136         3    ;  uncertainty k = 0.309429
        15        14        13        18     9      180.000000        0.910966         4    ;  uncertainty k = 0.352736
        15        16        17        18     9        0.000000       -0.338036         1    ;  uncertainty k = 0.337143
        15        16        17        18     9      180.000000       11.066610         2    ;  uncertainty k = 0.368774
        15        16        17        18     9        0.000000       -0.486274         3    ;  uncertainty k = 0.431050
        15        16        17        18     9      180.000000        0.915685         4    ;  uncertainty k = 0.301678
        15        16        17        19     9        0.000000        0.309409         1    ;  uncertainty k = 0.338090
        15        16        17        19     9      180.000000        8.685456         2    ;  uncertainty k = 0.600813
        15        16        17        19     9        0.000000        1.302275         3    ;  uncertainty k = 0.420104
        15        16        17        19     9      180.000000        1.806136         4    ;  uncertainty k = 0.242347
        16        17        18        39     9        0.000000        0.255434         1    ;  uncertainty k = 0.332067
        16        17        18        39     9      180.000000        8.320365         2    ;  uncertainty k = 0.480036
        16        17        18        39     9        0.000000        1.477869         3    ;  uncertainty k = 0.227399
        16        17        18        39     9      180.000000        1.668731         4    ;  uncertainty k = 0.153873
        16        17        19        20     9        0.000000       -0.502648         1    ;  uncertainty k = 1.172516
        16        17        19        20     9      180.000000       -0.311487         2    ;  uncertainty k = 0.247766
        16        17        19        20     9        0.000000        0.789899         3    ;  uncertainty k = 0.241029
        16        17        19        20     9      180.000000        0.138126         4    ;  uncertainty k = 0.126498
        16        17        19        40     9        0.000000       -0.779480         1    ;  uncertainty k = 0.316160
        16        17        19        40     9      180.000000        1.643899         2    ;  uncertainty k = 0.203375
        16        17        19        40     9        0.000000        0.566007         3    ;  uncertainty k = 0.131158
        16        17        19        40     9      180.000000        0.097303         4    ;  uncertainty k = 0.092749
        16        17        19        41     9        0.000000       -0.779480         1    ;  uncertainty k = 0.316160
        16        17        19        41     9      180.000000        1.643899         2    ;  uncertainty k = 0.203375
        16        17        19        41     9        0.000000        0.566007         3    ;  uncertainty k = 0.131158
        16        17        19        41     9      180.000000        0.097303         4    ;  uncertainty k = 0.092749
        17        16        15        37     9        0.000000        0.062625         1    ;  uncertainty k = 0.188029
        17        16        15        37     9      180.000000        8.653029         2    ;  uncertainty k = 0.558389
        17        16        15        37     9        0.000000        1.424910         3    ;  uncertainty k = 0.169008
        17        16        15        37     9      180.000000        1.741614         4    ;  uncertainty k = 0.149464
        17        19        20        21     9        0.000000        0.228024         1    ;  uncertainty k = 1.306396
        17        19        20        21     9      180.000000       -0.094217         2    ;  uncertainty k = 0.261243
        17        19        20        21     9        0.000000        1.131702         3    ;  uncertainty k = 0.248749
        17        19        20        21     9      180.000000        0.011547         4    ;  uncertainty k = 0.094504
        17        19        20        25     9        0.000000        0.228024         1    ;  uncertainty k = 1.306396
        17        19        20        25     9      180.000000       -0.094217         2    ;  uncertainty k = 0.261243
        17        19        20        25     9        0.000000        1.131702         3    ;  uncertainty k = 0.248749
        17        19        20        25     9      180.000000        0.011547         4    ;  uncertainty k = 0.094504
        17        19        20        42     9        0.000000        1.154674         1    ;  uncertainty k = 1.040771
        17        19        20        42     9      180.000000       -0.124686         2    ;  uncertainty k = 0.522409
        17        19        20        42     9        0.000000        0.784931         3    ;  uncertainty k = 0.114049
        17        19        20        42     9      180.000000       -0.130874         4    ;  uncertainty k = 0.109286
        18        13        12        36     9        0.000000        0.461655         1    ;  uncertainty k = 0.985717
        18        13        12        36     9      180.000000        4.269004         2    ;  uncertainty k = 0.713269
        18        13        12        36     9        0.000000        1.295441         3    ;  uncertainty k = 0.311370
        18        13        12        36     9      180.000000        0.090060         4    ;  uncertainty k = 0.170435
        18        17        16        38     9        0.000000        0.085635         1    ;  uncertainty k = 0.380041
        18        17        16        38     9      180.000000        7.117360         2    ;  uncertainty k = 0.584951
        18        17        16        38     9        0.000000        1.371620         3    ;  uncertainty k = 0.155099
        18        17        16        38     9      180.000000        1.456083         4    ;  uncertainty k = 0.133603
        18        17        19        20     9        0.000000       -0.542129         1    ;  uncertainty k = 1.426110
        18        17        19        20     9      180.000000       -0.213649         2    ;  uncertainty k = 0.320963
        18        17        19        20     9        0.000000        0.492927         3    ;  uncertainty k = 0.186694
        18        17        19        20     9      180.000000        0.117443         4    ;  uncertainty k = 0.107545
        18        17        19        40     9        0.000000       -0.478151         1    ;  uncertainty k = 0.298124
        18        17        19        40     9      180.000000        1.736761         2    ;  uncertainty k = 0.361256
        18        17        19        40     9        0.000000        0.380981         3    ;  uncertainty k = 0.163856
        18        17        19        40     9      180.000000        0.078124         4    ;  uncertainty k = 0.111272
        18        17        19        41     9        0.000000       -0.478151         1    ;  uncertainty k = 0.298124
        18        17        19        41     9      180.000000        1.736761         2    ;  uncertainty k = 0.361256
        18        17        19        41     9        0.000000        0.380981         3    ;  uncertainty k = 0.163856
        18        17        19        41     9      180.000000        0.078124         4    ;  uncertainty k = 0.111272
        19        17        16        38     9        0.000000        0.122853         1    ;  uncertainty k = 0.462101
        19        17        16        38     9      180.000000        6.723881         2    ;  uncertainty k = 0.452487
        19        17        16        38     9        0.000000        0.764244         3    ;  uncertainty k = 0.258190
        19        17        16        38     9      180.000000        1.116906         4    ;  uncertainty k = 0.304850
        19        17        18        39     9        0.000000        0.097601         1    ;  uncertainty k = 0.277337
        19        17        18        39     9      180.000000        7.549729         2    ;  uncertainty k = 0.389850
        19        17        18        39     9        0.000000        0.959678         3    ;  uncertainty k = 0.304181
        19        17        18        39     9      180.000000        1.284138         4    ;  uncertainty k = 0.347818
        19        20        21        22     9        0.000000       -2.574566         1    ;  uncertainty k = 0.281796
        19        20        21        22     9      180.000000        0.479104         2    ;  uncertainty k = 0.475507
        19        20        21        22     9        0.000000        0.885379         3    ;  uncertainty k = 0.094303
        19        20        21        22     9      180.000000       -0.088547         4    ;  uncertainty k = 0.097600
        19        20        21        43     9        0.000000       -0.105984         1    ;  uncertainty k = 0.325338
        19        20        21        43     9      180.000000       -1.019772         2    ;  uncertainty k = 0.208597
        19        20        21        43     9        0.000000        0.825381         3    ;  uncertainty k = 0.098256
        19        20        21        43     9      180.000000       -0.051999         4    ;  uncertainty k = 0.047873
        19        20        21        44     9        0.000000       -0.105984         1    ;  uncertainty k = 0.325338
        19        20        21        44     9      180.000000       -1.019772         2    ;  uncertainty k = 0.208597
        19        20        21        44     9        0.000000        0.825381         3    ;  uncertainty k = 0.098256
        19        20        21        44     9      180.000000       -0.051999         4    ;  uncertainty k = 0.047873
        19        20        25        24     9        0.000000       -2.574566         1    ;  uncertainty k = 0.281796
        19        20        25        24     9      180.000000        0.479104         2    ;  uncertainty k = 0.475507
        19        20        25        24     9        0.000000        0.885379         3    ;  uncertainty k = 0.094303
        19        20        25        24     9      180.000000       -0.088547         4    ;  uncertainty k = 0.097600
        19        20        25        51     9        0.000000       -0.105984         1    ;  uncertainty k = 0.325338
        19        20        25        51     9      180.000000       -1.019772         2    ;  uncertainty k = 0.208597
        19        20        25        51     9        0.000000        0.825381         3    ;  uncertainty k = 0.098256
        19        20        25        51     9      180.000000       -0.051999         4    ;  uncertainty k = 0.047873
        19        20        25        52     9        0.000000       -0.105984         1    ;  uncertainty k = 0.325338
        19        20        25        52     9      180.000000       -1.019772         2    ;  uncertainty k = 0.208597
        19        20        25        52     9        0.000000        0.825381         3    ;  uncertainty k = 0.098256
        19        20        25        52     9      180.000000       -0.051999         4    ;  uncertainty k = 0.047873
        20        21        22        23     9        0.000000       -0.960043         1    ;  uncertainty k = 1.015404
        20        21        22        23     9      180.000000       -1.839615         2    ;  uncertainty k = 0.830077
        20        21        22        23     9        0.000000        1.912143         3    ;  uncertainty k = 0.244230
        20        21        22        23     9      180.000000       -0.904406         4    ;  uncertainty k = 0.229121
        20        21        22        45     9        0.000000       -0.583337         1    ;  uncertainty k = 0.759808
        20        21        22        45     9      180.000000       -1.764027         2    ;  uncertainty k = 0.462837
        20        21        22        45     9        0.000000        0.775149         3    ;  uncertainty k = 0.096083
        20        21        22        45     9      180.000000       -0.068994         4    ;  uncertainty k = 0.160962
        20        21        22        46     9        0.000000       -0.583337         1    ;  uncertainty k = 0.759808
        20        21        22        46     9      180.000000       -1.764027         2    ;  uncertainty k = 0.462837
        20        21        22        46     9        0.000000        0.775149         3    ;  uncertainty k = 0.096083
        20        21        22        46     9      180.000000       -0.068994         4    ;  uncertainty k = 0.160962
        20        25        24        23     9        0.000000       -0.960043         1    ;  uncertainty k = 1.015404
        20        25        24        23     9      180.000000       -1.839615         2    ;  uncertainty k = 0.830077
        20        25        24        23     9        0.000000        1.912143         3    ;  uncertainty k = 0.244230
        20        25        24        23     9      180.000000       -0.904406         4    ;  uncertainty k = 0.229121
        20        25        24        49     9        0.000000       -0.583337         1    ;  uncertainty k = 0.759808
        20        25        24        49     9      180.000000       -1.764027         2    ;  uncertainty k = 0.462837
        20        25        24        49     9        0.000000        0.775149         3    ;  uncertainty k = 0.096083
        20        25        24        49     9      180.000000       -0.068994         4    ;  uncertainty k = 0.160962
        20        25        24        50     9        0.000000       -0.583337         1    ;  uncertainty k = 0.759808
        20        25        24        50     9      180.000000       -1.764027         2    ;  uncertainty k = 0.462837
        20        25        24        50     9        0.000000        0.775149         3    ;  uncertainty k = 0.096083
        20        25        24        50     9      180.000000       -0.068994         4    ;  uncertainty k = 0.160962
        21        20        19        40     9        0.000000       -0.486273         1    ;  uncertainty k = 0.396482
        21        20        19        40     9      180.000000       -0.446871         2    ;  uncertainty k = 0.239801
        21        20        19        40     9        0.000000        0.889072         3    ;  uncertainty k = 0.185769
        21        20        19        40     9      180.000000       -0.057138         4    ;  uncertainty k = 0.158412
        21        20        19        41     9        0.000000       -0.486273         1    ;  uncertainty k = 0.396482
        21        20        19        41     9      180.000000       -0.446871         2    ;  uncertainty k = 0.239801
        21        20        19        41     9        0.000000        0.889072         3    ;  uncertainty k = 0.185769
        21        20        19        41     9      180.000000       -0.057138         4    ;  uncertainty k = 0.158412
        21        20        25        24     9        0.000000       -0.214545         1    ;  uncertainty k = 0.605913
        21        20        25        24     9      180.000000       -0.310706         2    ;  uncertainty k = 0.547554
        21        20        25        24     9        0.000000        0.727519         3    ;  uncertainty k = 0.267402
        21        20        25        24     9      180.000000       -0.360140         4    ;  uncertainty k = 0.313231
        21        20        25        51     9        0.000000       -0.325973         1    ;  uncertainty k = 0.679075
        21        20        25        51     9      180.000000       -0.892397         2    ;  uncertainty k = 0.294848
        21        20        25        51     9        0.000000        0.425327         3    ;  uncertainty k = 0.253460
        21        20        25        51     9      180.000000        0.013081         4    ;  uncertainty k = 0.187622
        21        20        25        52     9        0.000000       -0.325973         1    ;  uncertainty k = 0.679075
        21        20        25        52     9      180.000000       -0.892397         2    ;  uncertainty k = 0.294848
        21        20        25        52     9        0.000000        0.425327         3    ;  uncertainty k = 0.253460
        21        20        25        52     9      180.000000        0.013081         4    ;  uncertainty k = 0.187622
        21        22        23        24     9        0.000000       -7.024421         1    ;  uncertainty k = 1.282597
        21        22        23        24     9      180.000000        0.534974         2    ;  uncertainty k = 0.812259
        21        22        23        24     9        0.000000        1.706653         3    ;  uncertainty k = 0.095741
        21        22        23        24     9      180.000000       -1.004374         4    ;  uncertainty k = 0.160418
        21        22        23        47     9        0.000000       -1.564502         1    ;  uncertainty k = 0.555680
        21        22        23        47     9      180.000000       -0.696408         2    ;  uncertainty k = 0.204692
        21        22        23        47     9        0.000000        0.561736         3    ;  uncertainty k = 0.091502
        21        22        23        47     9      180.000000       -0.099846         4    ;  uncertainty k = 0.065184
        21        22        23        48     9        0.000000       -1.564502         1    ;  uncertainty k = 0.555680
        21        22        23        48     9      180.000000       -0.696408         2    ;  uncertainty k = 0.204692
        21        22        23        48     9        0.000000        0.561736         3    ;  uncertainty k = 0.091502
        21        22        23        48     9      180.000000       -0.099846         4    ;  uncertainty k = 0.065184
        22        21        20        25     9        0.000000       -0.214545         1    ;  uncertainty k = 0.605913
        22        21        20        25     9      180.000000       -0.310706         2    ;  uncertainty k = 0.547554
        22        21        20        25     9        0.000000        0.727519         3    ;  uncertainty k = 0.267402
        22        21        20        25     9      180.000000       -0.360140         4    ;  uncertainty k = 0.313231
        22        21        20        42     9        0.000000       -0.489044         1    ;  uncertainty k = 0.294494
        22        21        20        42     9      180.000000       -0.418723         2    ;  uncertainty k = 0.251138
        22        21        20        42     9        0.000000        0.374961         3    ;  uncertainty k = 0.183942
        22        21        20        42     9      180.000000       -0.122123         4    ;  uncertainty k = 0.077493
        22        23        24        25     9        0.000000       -7.024421         1    ;  uncertainty k = 1.282597
        22        23        24        25     9      180.000000        0.534974         2    ;  uncertainty k = 0.812259
        22        23        24        25     9        0.000000        1.706653         3    ;  uncertainty k = 0.095741
        22        23        24        25     9      180.000000       -1.004374         4    ;  uncertainty k = 0.160418
        22        23        24        49     9        0.000000       -1.731084         1    ;  uncertainty k = 0.118909
        22        23        24        49     9      180.000000       -0.275642         2    ;  uncertainty k = 0.205940
        22        23        24        49     9        0.000000        0.507808         3    ;  uncertainty k = 0.221376
        22        23        24        49     9      180.000000       -0.022493         4    ;  uncertainty k = 0.102359
        22        23        24        50     9        0.000000       -1.731084         1    ;  uncertainty k = 0.118909
        22        23        24        50     9      180.000000       -0.275642         2    ;  uncertainty k = 0.205940
        22        23        24        50     9        0.000000        0.507808         3    ;  uncertainty k = 0.221376
        22        23        24        50     9      180.000000       -0.022493         4    ;  uncertainty k = 0.102359
        23        22        21        43     9        0.000000       -0.255252         1    ;  uncertainty k = 0.641429
        23        22        21        43     9      180.000000       -0.702894         2    ;  uncertainty k = 0.251438
        23        22        21        43     9        0.000000        0.502590         3    ;  uncertainty k = 0.195279
        23        22        21        43     9      180.000000        0.108164         4    ;  uncertainty k = 0.079509
        23        22        21        44     9        0.000000       -0.255252         1    ;  uncertainty k = 0.641429
        23        22        21        44     9      180.000000       -0.702894         2    ;  uncertainty k = 0.251438
        23        22        21        44     9        0.000000        0.502590         3    ;  uncertainty k = 0.195279
        23        22        21        44     9      180.000000        0.108164         4    ;  uncertainty k = 0.079509
        23        24        25        51     9        0.000000       -0.255252         1    ;  uncertainty k = 0.641429
        23        24        25        51     9      180.000000       -0.702894         2    ;  uncertainty k = 0.251438
        23        24        25        51     9        0.000000        0.502590         3    ;  uncertainty k = 0.195279
        23        24        25        51     9      180.000000        0.108164         4    ;  uncertainty k = 0.079509
        23        24        25        52     9        0.000000       -0.255252         1    ;  uncertainty k = 0.641429
        23        24        25        52     9      180.000000       -0.702894         2    ;  uncertainty k = 0.251438
        23        24        25        52     9        0.000000        0.502590         3    ;  uncertainty k = 0.195279
        23        24        25        52     9      180.000000        0.108164         4    ;  uncertainty k = 0.079509
        24        23        22        45     9        0.000000       -1.731084         1    ;  uncertainty k = 0.118909
        24        23        22        45     9      180.000000       -0.275642         2    ;  uncertainty k = 0.205940
        24        23        22        45     9        0.000000        0.507808         3    ;  uncertainty k = 0.221376
        24        23        22        45     9      180.000000       -0.022493         4    ;  uncertainty k = 0.102359
        24        23        22        46     9        0.000000       -1.731084         1    ;  uncertainty k = 0.118909
        24        23        22        46     9      180.000000       -0.275642         2    ;  uncertainty k = 0.205940
        24        23        22        46     9        0.000000        0.507808         3    ;  uncertainty k = 0.221376
        24        23        22        46     9      180.000000       -0.022493         4    ;  uncertainty k = 0.102359
        24        25        20        42     9        0.000000       -0.489044         1    ;  uncertainty k = 0.294494
        24        25        20        42     9      180.000000       -0.418723         2    ;  uncertainty k = 0.251138
        24        25        20        42     9        0.000000        0.374961         3    ;  uncertainty k = 0.183942
        24        25        20        42     9      180.000000       -0.122123         4    ;  uncertainty k = 0.077493
        25        20        19        40     9        0.000000       -0.486273         1    ;  uncertainty k = 0.396482
        25        20        19        40     9      180.000000       -0.446871         2    ;  uncertainty k = 0.239801
        25        20        19        40     9        0.000000        0.889072         3    ;  uncertainty k = 0.185769
        25        20        19        40     9      180.000000       -0.057138         4    ;  uncertainty k = 0.158412
        25        20        19        41     9        0.000000       -0.486273         1    ;  uncertainty k = 0.396482
        25        20        19        41     9      180.000000       -0.446871         2    ;  uncertainty k = 0.239801
        25        20        19        41     9        0.000000        0.889072         3    ;  uncertainty k = 0.185769
        25        20        19        41     9      180.000000       -0.057138         4    ;  uncertainty k = 0.158412
        25        20        21        43     9        0.000000       -0.325973         1    ;  uncertainty k = 0.679075
        25        20        21        43     9      180.000000       -0.892397         2    ;  uncertainty k = 0.294848
        25        20        21        43     9        0.000000        0.425327         3    ;  uncertainty k = 0.253460
        25        20        21        43     9      180.000000        0.013081         4    ;  uncertainty k = 0.187622
        25        20        21        44     9        0.000000       -0.325973         1    ;  uncertainty k = 0.679075
        25        20        21        44     9      180.000000       -0.892397         2    ;  uncertainty k = 0.294848
        25        20        21        44     9        0.000000        0.425327         3    ;  uncertainty k = 0.253460
        25        20        21        44     9      180.000000        0.013081         4    ;  uncertainty k = 0.187622
        25        24        23        47     9        0.000000       -1.564502         1    ;  uncertainty k = 0.555680
        25        24        23        47     9      180.000000       -0.696408         2    ;  uncertainty k = 0.204692
        25        24        23        47     9        0.000000        0.561736         3    ;  uncertainty k = 0.091502
        25        24        23        47     9      180.000000       -0.099846         4    ;  uncertainty k = 0.065184
        25        24        23        48     9        0.000000       -1.564502         1    ;  uncertainty k = 0.555680
        25        24        23        48     9      180.000000       -0.696408         2    ;  uncertainty k = 0.204692
        25        24        23        48     9        0.000000        0.561736         3    ;  uncertainty k = 0.091502
        25        24        23        48     9      180.000000       -0.099846         4    ;  uncertainty k = 0.065184
        26         2         1        31     9        0.000000       -0.451897         1    ;  uncertainty k = 0.455821
        26         2         1        31     9      180.000000        6.865087         2    ;  uncertainty k = 0.506171
        26         2         1        31     9        0.000000        0.834709         3    ;  uncertainty k = 0.135848
        26         2         1        31     9      180.000000        1.029310         4    ;  uncertainty k = 0.249975
        26         2         3        32     9        0.000000       -0.370123         1    ;  uncertainty k = 0.475116
        26         2         3        32     9      180.000000        7.808774         2    ;  uncertainty k = 0.319449
        26         2         3        32     9        0.000000        0.866040         3    ;  uncertainty k = 0.108099
        26         2         3        32     9      180.000000        1.084691         4    ;  uncertainty k = 0.146123
        26        27        28        29     9        0.000000       -0.040849         1    ;  uncertainty k = 0.568439
        26        27        28        29     9      180.000000       25.928055         2    ;  uncertainty k = 0.312916
        26        27        28        29     9        0.000000       -7.801411         3    ;  uncertainty k = 0.401393
        26        27        28        29     9      180.000000        2.176253         4    ;  uncertainty k = 0.656588
        26        30        29        28     9        0.000000       -0.285984         1    ;  uncertainty k = 1.154248
        26        30        29        28     9      180.000000       17.812375         2    ;  uncertainty k = 0.740749
        26        30        29        28     9        0.000000       -9.754001         3    ;  uncertainty k = 1.014922
        26        30        29        28     9      180.000000        1.176093         4    ;  uncertainty k = 0.561930
        26        30        29        54     9        0.000000        2.673243         1    ;  uncertainty k = 1.547079
        26        30        29        54     9      180.000000        9.728297         2    ;  uncertainty k = 0.431945
        26        30        29        54     9        0.000000        1.750691         3    ;  uncertainty k = 0.655595
        26        30        29        54     9      180.000000       -0.286575         4    ;  uncertainty k = 0.183043
        27        26        30        29     9        0.000000        0.078470         1    ;  uncertainty k = 0.453156
        27        26        30        29     9      180.000000       19.162967         2    ;  uncertainty k = 0.169580
        27        26        30        29     9        0.000000       -9.775767         3    ;  uncertainty k = 0.304783
        27        26        30        29     9      180.000000        1.707713         4    ;  uncertainty k = 0.591812
        27        26        30        55     9        0.000000        0.070994         1    ;  uncertainty k = 0.290393
        27        26        30        55     9      180.000000       10.586743         2    ;  uncertainty k = 0.265513
        27        26        30        55     9        0.000000        1.697413         3    ;  uncertainty k = 0.347284
        27        26        30        55     9      180.000000        0.605802         4    ;  uncertainty k = 0.219810
        27        28        29        30     9        0.000000        0.081646         1    ;  uncertainty k = 0.544864
        27        28        29        30     9      180.000000       17.442825         2    ;  uncertainty k = 0.430300
        27        28        29        30     9        0.000000       -7.986674         3    ;  uncertainty k = 1.478689
        27        28        29        30     9      180.000000        1.481496         4    ;  uncertainty k = 0.378428
        27        28        29        54     9        0.000000        2.977258         1    ;  uncertainty k = 2.067069
        27        28        29        54     9      180.000000       15.582559         2    ;  uncertainty k = 0.326354
        27        28        29        54     9        0.000000        1.447614         3    ;  uncertainty k = 0.946235
        27        28        29        54     9      180.000000       -0.511594         4    ;  uncertainty k = 0.449508
        28        27        26        30     9        0.000000       -0.312610         1    ;  uncertainty k = 0.393014
        28        27        26        30     9      180.000000       14.796455         2    ;  uncertainty k = 1.023541
        28        27        26        30     9        0.000000       -8.883052         3    ;  uncertainty k = 0.821159
        28        27        26        30     9      180.000000        1.868718         4    ;  uncertainty k = 0.522125
        28        29        30        55     9        0.000000        0.929719         1    ;  uncertainty k = 0.586348
        28        29        30        55     9      180.000000       11.334502         2    ;  uncertainty k = 0.396342
        28        29        30        55     9        0.000000        1.723964         3    ;  uncertainty k = 0.505153
        28        29        30        55     9      180.000000       -0.021143         4    ;  uncertainty k = 0.277186
        29        28        27        53     9        0.000000        0.390254         1    ;  uncertainty k = 0.568461
        29        28        27        53     9      180.000000       23.482807         2    ;  uncertainty k = 0.271445
        29        28        27        53     9        0.000000        1.354839         3    ;  uncertainty k = 0.705690
        29        28        27        53     9      180.000000        1.195799         4    ;  uncertainty k = 0.527981
        30        26        27        53     9        0.000000       -0.032877         1    ;  uncertainty k = 0.301141
        30        26        27        53     9      180.000000        8.167004         2    ;  uncertainty k = 0.521574
        30        26        27        53     9        0.000000        1.236677         3    ;  uncertainty k = 0.329268
        30        26        27        53     9      180.000000        0.504095         4    ;  uncertainty k = 0.137601
        31         1         4        33     9        0.000000       -0.110944         1    ;  uncertainty k = 0.103984
        31         1         4        33     9      180.000000        8.305947         2    ;  uncertainty k = 0.348628
        31         1         4        33     9        0.000000       -0.188513         3    ;  uncertainty k = 0.225744
        31         1         4        33     9      180.000000        0.324162         4    ;  uncertainty k = 0.271071
        37        15        16        38     9        0.000000       -0.013045         1    ;  uncertainty k = 0.178040
        37        15        16        38     9      180.000000        7.749499         2    ;  uncertainty k = 0.110935
        37        15        16        38     9        0.000000       -0.170352         3    ;  uncertainty k = 0.227080
        37        15        16        38     9      180.000000        0.302639         4    ;  uncertainty k = 0.156541
        40        19        20        42     9        0.000000        0.633594         1    ;  uncertainty k = 0.761392
        40        19        20        42     9      180.000000       -0.469721         2    ;  uncertainty k = 0.224849
        40        19        20        42     9        0.000000        0.121846         3    ;  uncertainty k = 0.102010
        40        19        20        42     9      180.000000       -0.010722         4    ;  uncertainty k = 0.068107
        41        19        20        42     9        0.000000        0.633594         1    ;  uncertainty k = 0.761392
        41        19        20        42     9      180.000000       -0.469721         2    ;  uncertainty k = 0.224849
        41        19        20        42     9        0.000000        0.121846         3    ;  uncertainty k = 0.102010
        41        19        20        42     9      180.000000       -0.010722         4    ;  uncertainty k = 0.068107
        42        20        21        43     9        0.000000        0.505820         1    ;  uncertainty k = 0.508179
        42        20        21        43     9      180.000000       -0.445261         2    ;  uncertainty k = 0.343433
        42        20        21        43     9        0.000000        0.063530         3    ;  uncertainty k = 0.166996
        42        20        21        43     9      180.000000        0.024300         4    ;  uncertainty k = 0.084356
        42        20        21        44     9        0.000000        0.505820         1    ;  uncertainty k = 0.508179
        42        20        21        44     9      180.000000       -0.445261         2    ;  uncertainty k = 0.343433
        42        20        21        44     9        0.000000        0.063530         3    ;  uncertainty k = 0.166996
        42        20        21        44     9      180.000000        0.024300         4    ;  uncertainty k = 0.084356
        42        20        25        51     9        0.000000        0.505820         1    ;  uncertainty k = 0.508179
        42        20        25        51     9      180.000000       -0.445261         2    ;  uncertainty k = 0.343433
        42        20        25        51     9        0.000000        0.063530         3    ;  uncertainty k = 0.166996
        42        20        25        51     9      180.000000        0.024300         4    ;  uncertainty k = 0.084356
        42        20        25        52     9        0.000000        0.505820         1    ;  uncertainty k = 0.508179
        42        20        25        52     9      180.000000       -0.445261         2    ;  uncertainty k = 0.343433
        42        20        25        52     9        0.000000        0.063530         3    ;  uncertainty k = 0.166996
        42        20        25        52     9      180.000000        0.024300         4    ;  uncertainty k = 0.084356
        43        21        22        45     9        0.000000        0.353241         1    ;  uncertainty k = 0.247073
        43        21        22        45     9      180.000000        0.356302         2    ;  uncertainty k = 0.088459
        43        21        22        45     9        0.000000        0.281586         3    ;  uncertainty k = 0.082622
        43        21        22        45     9      180.000000       -0.046333         4    ;  uncertainty k = 0.052441
        43        21        22        46     9        0.000000        0.353241         1    ;  uncertainty k = 0.247073
        43        21        22        46     9      180.000000        0.356302         2    ;  uncertainty k = 0.088459
        43        21        22        46     9        0.000000        0.281586         3    ;  uncertainty k = 0.082622
        43        21        22        46     9      180.000000       -0.046333         4    ;  uncertainty k = 0.052441
        44        21        22        45     9        0.000000        0.353241         1    ;  uncertainty k = 0.247073
        44        21        22        45     9      180.000000        0.356302         2    ;  uncertainty k = 0.088459
        44        21        22        45     9        0.000000        0.281586         3    ;  uncertainty k = 0.082622
        44        21        22        45     9      180.000000       -0.046333         4    ;  uncertainty k = 0.052441
        44        21        22        46     9        0.000000        0.353241         1    ;  uncertainty k = 0.247073
        44        21        22        46     9      180.000000        0.356302         2    ;  uncertainty k = 0.088459
        44        21        22        46     9        0.000000        0.281586         3    ;  uncertainty k = 0.082622
        44        21        22        46     9      180.000000       -0.046333         4    ;  uncertainty k = 0.052441
        45        22        23        47     9        0.000000        2.065466         1    ;  uncertainty k = 0.581086
        45        22        23        47     9      180.000000        0.128238         2    ;  uncertainty k = 0.153427
        45        22        23        47     9        0.000000        0.323705         3    ;  uncertainty k = 0.122348
        45        22        23        47     9      180.000000        0.126782         4    ;  uncertainty k = 0.032762
        45        22        23        48     9        0.000000        2.065466         1    ;  uncertainty k = 0.581086
        45        22        23        48     9      180.000000        0.128238         2    ;  uncertainty k = 0.153427
        45        22        23        48     9        0.000000        0.323705         3    ;  uncertainty k = 0.122348
        45        22        23        48     9      180.000000        0.126782         4    ;  uncertainty k = 0.032762
        46        22        23        47     9        0.000000        2.065466         1    ;  uncertainty k = 0.581086
        46        22        23        47     9      180.000000        0.128238         2    ;  uncertainty k = 0.153427
        46        22        23        47     9        0.000000        0.323705         3    ;  uncertainty k = 0.122348
        46        22        23        47     9      180.000000        0.126782         4    ;  uncertainty k = 0.032762
        46        22        23        48     9        0.000000        2.065466         1    ;  uncertainty k = 0.581086
        46        22        23        48     9      180.000000        0.128238         2    ;  uncertainty k = 0.153427
        46        22        23        48     9        0.000000        0.323705         3    ;  uncertainty k = 0.122348
        46        22        23        48     9      180.000000        0.126782         4    ;  uncertainty k = 0.032762
        47        23        24        49     9        0.000000        2.065466         1    ;  uncertainty k = 0.581086
        47        23        24        49     9      180.000000        0.128238         2    ;  uncertainty k = 0.153427
        47        23        24        49     9        0.000000        0.323705         3    ;  uncertainty k = 0.122348
        47        23        24        49     9      180.000000        0.126782         4    ;  uncertainty k = 0.032762
        47        23        24        50     9        0.000000        2.065466         1    ;  uncertainty k = 0.581086
        47        23        24        50     9      180.000000        0.128238         2    ;  uncertainty k = 0.153427
        47        23        24        50     9        0.000000        0.323705         3    ;  uncertainty k = 0.122348
        47        23        24        50     9      180.000000        0.126782         4    ;  uncertainty k = 0.032762
        48        23        24        49     9        0.000000        2.065466         1    ;  uncertainty k = 0.581086
        48        23        24        49     9      180.000000        0.128238         2    ;  uncertainty k = 0.153427
        48        23        24        49     9        0.000000        0.323705         3    ;  uncertainty k = 0.122348
        48        23        24        49     9      180.000000        0.126782         4    ;  uncertainty k = 0.032762
        48        23        24        50     9        0.000000        2.065466         1    ;  uncertainty k = 0.581086
        48        23        24        50     9      180.000000        0.128238         2    ;  uncertainty k = 0.153427
        48        23        24        50     9        0.000000        0.323705         3    ;  uncertainty k = 0.122348
        48        23        24        50     9      180.000000        0.126782         4    ;  uncertainty k = 0.032762
        49        24        25        51     9        0.000000        0.353241         1    ;  uncertainty k = 0.247073
        49        24        25        51     9      180.000000        0.356302         2    ;  uncertainty k = 0.088459
        49        24        25        51     9        0.000000        0.281586         3    ;  uncertainty k = 0.082622
        49        24        25        51     9      180.000000       -0.046333         4    ;  uncertainty k = 0.052441
        49        24        25        52     9        0.000000        0.353241         1    ;  uncertainty k = 0.247073
        49        24        25        52     9      180.000000        0.356302         2    ;  uncertainty k = 0.088459
        49        24        25        52     9        0.000000        0.281586         3    ;  uncertainty k = 0.082622
        49        24        25        52     9      180.000000       -0.046333         4    ;  uncertainty k = 0.052441
        50        24        25        51     9        0.000000        0.353241         1    ;  uncertainty k = 0.247073
        50        24        25        51     9      180.000000        0.356302         2    ;  uncertainty k = 0.088459
        50        24        25        51     9        0.000000        0.281586         3    ;  uncertainty k = 0.082622
        50        24        25        51     9      180.000000       -0.046333         4    ;  uncertainty k = 0.052441
        50        24        25        52     9        0.000000        0.353241         1    ;  uncertainty k = 0.247073
        50        24        25        52     9      180.000000        0.356302         2    ;  uncertainty k = 0.088459
        50        24        25        52     9        0.000000        0.281586         3    ;  uncertainty k = 0.082622
        50        24        25        52     9      180.000000       -0.046333         4    ;  uncertainty k = 0.052441
        54        29        30        55     9        0.000000       -0.681582         1    ;  uncertainty k = 1.364541
        54        29        30        55     9      180.000000        1.636359         2    ;  uncertainty k = 0.764336
        54        29        30        55     9        0.000000        1.129556         3    ;  uncertainty k = 0.554589
        54        29        30        55     9      180.000000        0.016831         4    ;  uncertainty k = 0.187265

[ dihedrals ] ; impropers
;       ai        aj        ak        al funct           phase               k        pn
         1         2         4        31     4      180.000000        2.760331         2    ;  uncertainty k = 0.287356
         1         4        31         2     4      180.000000        2.760331         2    ;  uncertainty k = 0.287356
         1        31         2         4     4      180.000000        2.760331         2    ;  uncertainty k = 0.287356
         2         1         3        26     4      180.000000       15.404095         2    ;  uncertainty k = 0.101349
         2         3        26         1     4      180.000000       15.404095         2    ;  uncertainty k = 0.101349
         2        26         1         3     4      180.000000       15.404095         2    ;  uncertainty k = 0.101349
         3         2         6        32     4      180.000000        2.399201         2    ;  uncertainty k = 0.174943
         3         6        32         2     4      180.000000        2.399201         2    ;  uncertainty k = 0.174943
         3        32         2         6     4      180.000000        2.399201         2    ;  uncertainty k = 0.174943
         4         1         5        33     4      180.000000        5.156711         2    ;  uncertainty k = 0.147286
         4         5        33         1     4      180.000000        5.156711         2    ;  uncertainty k = 0.147286
         4        33         1         5     4      180.000000        5.156711         2    ;  uncertainty k = 0.147286
         6         3         5         7     4      180.000000        1.571835         2    ;  uncertainty k = 0.900867
         6         5         7         3     4      180.000000        1.571835         2    ;  uncertainty k = 0.900867
         6         7         3         5     4      180.000000        1.571835         2    ;  uncertainty k = 0.900867
         9         5         8        10     4      180.000000        7.128464         2    ;  uncertainty k = 0.226522
         9         8        10         5     4      180.000000        7.128464         2    ;  uncertainty k = 0.226522
         9        10         5         8     4      180.000000        7.128464         2    ;  uncertainty k = 0.226522
        10         9        11        12     4      180.000000        6.131355         2    ;  uncertainty k = 0.374886
        10        11        12         9     4      180.000000        6.131355         2    ;  uncertainty k = 0.374886
        10        12         9        11     4      180.000000        6.131355         2    ;  uncertainty k = 0.374886
        12        10        13        36     4      180.000000        0.300082         2    ;  uncertainty k = 0.671004
        12        13        36        10     4      180.000000        0.300082         2    ;  uncertainty k = 0.671004
        12        36        10        13     4      180.000000        0.300082         2    ;  uncertainty k = 0.671004
        13        12        14        18     4      180.000000        0.203680         2    ;  uncertainty k = 0.447823
        13        14        18        12     4      180.000000        0.203680         2    ;  uncertainty k = 0.447823
        13        18        12        14     4      180.000000        0.203680         2    ;  uncertainty k = 0.447823
        14        11        13        15     4      180.000000        1.547994         2    ;  uncertainty k = 0.529255
        14        13        15        11     4      180.000000        1.547994         2    ;  uncertainty k = 0.529255
        14        15        11        13     4      180.000000        1.547994         2    ;  uncertainty k = 0.529255
        15        14        16        37     4      180.000000        3.328892         2    ;  uncertainty k = 0.304190
        15        16        37        14     4      180.000000        3.328892         2    ;  uncertainty k = 0.304190
        15        37        14        16     4      180.000000        3.328892         2    ;  uncertainty k = 0.304190
        16        15        17        38     4      180.000000        3.703974         2    ;  uncertainty k = 0.231890
        16        17        38        15     4      180.000000        3.703974         2    ;  uncertainty k = 0.231890
        16        38        15        17     4      180.000000        3.703974         2    ;  uncertainty k = 0.231890
        17        16        18        19     4      180.000000        8.046870         2    ;  uncertainty k = 0.338239
        17        18        19        16     4      180.000000        8.046870         2    ;  uncertainty k = 0.338239
        17        19        16        18     4      180.000000        8.046870         2    ;  uncertainty k = 0.338239
        18        13        17        39     4      180.000000        4.453195         2    ;  uncertainty k = 0.297877
        18        17        39        13     4      180.000000        4.453195         2    ;  uncertainty k = 0.297877
        18        39        13        17     4      180.000000        4.453195         2    ;  uncertainty k = 0.297877
        26         2        27        30     4      180.000000        2.462011         2    ;  uncertainty k = 0.593295
        26        27        30         2     4      180.000000        2.462011         2    ;  uncertainty k = 0.593295
        26        30         2        27     4      180.000000        2.462011         2    ;  uncertainty k = 0.593295
        27        26        28        53     4      180.000000        0.421004         2    ;  uncertainty k = 0.602423
        27        28        53        26     4      180.000000        0.421004         2    ;  uncertainty k = 0.602423
        27        53        26        28     4      180.000000        0.421004         2    ;  uncertainty k = 0.602423
        30        26        29        55     4      180.000000        1.059237         2    ;  uncertainty k = 0.636779
        30        29        55        26     4      180.000000        1.059237         2    ;  uncertainty k = 0.636779
        30        55        26        29     4      180.000000        1.059237         2    ;  uncertainty k = 0.636779

[ pairs ]
;       ai        aj funct
         1         6     1
         1         9     1
         1        27     1
         1        30     1
         1        32     1
         2         5     1
         2         7     1
         2        28     1
         2        29     1
         2        33     1
         2        53     1
         2        55     1
         3         4     1
         3         8     1
         3         9     1
         3        27     1
         3        30     1
         3        31     1
         3        34     1
         4         7     1
         4         8     1
         4        10     1
         4        26     1
         5        11     1
         5        12     1
         5        31     1
         5        32     1
         5        34     1
         6        10     1
         6        26     1
         6        33     1
         7        10     1
         7        32     1
         8        11     1
         8        12     1
         9        13     1
         9        14     1
         9        33     1
         9        34     1
         9        35     1
         9        36     1
        10        15     1
        10        18     1
        11        16     1
        11        18     1
        11        36     1
        11        37     1
        12        15     1
        12        17     1
        12        35     1
        12        39     1
        13        16     1
        13        19     1
        13        35     1
        13        37     1
        14        17     1
        14        36     1
        14        38     1
        14        39     1
        15        18     1
        15        19     1
        15        35     1
        16        20     1
        16        39     1
        16        40     1
        16        41     1
        17        21     1
        17        25     1
        17        37     1
        17        42     1
        18        20     1
        18        36     1
        18        38     1
        18        40     1
        18        41     1
        19        22     1
        19        24     1
        19        38     1
        19        39     1
        19        43     1
        19        44     1
        19        51     1
        19        52     1
        20        23     1
        20        45     1
        20        46     1
        20        49     1
        20        50     1
        21        24     1
        21        40     1
        21        41     1
        21        47     1
        21        48     1
        21        51     1
        21        52     1
        22        25     1
        22        42     1
        22        49     1
        22        50     1
        23        43     1
        23        44     1
        23        51     1
        23        52     1
        24        42     1
        24        45     1
        24        46     1
        25        40     1
        25        41     1
        25        43     1
        25        44     1
        25        47     1
        25        48     1
        26        31     1
        26        32     1
        26        54     1
        27        54     1
        27        55     1
        28        55     1
        29        53     1
        30        53     1
        31        33     1
        37        38     1
        40        42     1
        41        42     1
        42        43     1
        42        44     1
        42        51     1
        42        52     1
        43        45     1
        43        46     1
        44        45     1
        44        46     1
        45        47     1
        45        48     1
        46        47     1
        46        48     1
        47        49     1
        47        50     1
        48        49     1
        48        50     1
        49        51     1
        49        52     1
        50        51     1
        50        52     1
        54        55     1
