; ITP file created by ByteFF-joint-25, 2025-07-14 11:38:25.053794

[ atomtypes ]
;name           bonded.type        at.num        mass        charge   ptype           sigma         epsilon
 c0bf                                   6      0.0000       0.00000       A     3.31518e-01     4.13374e-01    ;  uncertainty sigma = 0.000006, epsilon = 0.000653
 c1bf                                   6      0.0000       0.00000       A     3.31531e-01     4.13124e-01    ;  uncertainty sigma = 0.000011, epsilon = 0.001104
 c2bf                                   6      0.0000       0.00000       A     3.31510e-01     4.13245e-01    ;  uncertainty sigma = 0.000006, epsilon = 0.000897
 c3bf                                   6      0.0000       0.00000       A     3.31526e-01     4.13315e-01    ;  uncertainty sigma = 0.000007, epsilon = 0.000822
 c4bf                                   6      0.0000       0.00000       A     3.31522e-01     4.13336e-01    ;  uncertainty sigma = 0.000007, epsilon = 0.000636
 c5bf                                   6      0.0000       0.00000       A     3.31517e-01     4.12784e-01    ;  uncertainty sigma = 0.000014, epsilon = 0.000944
 n6bf                                   7      0.0000       0.00000       A     3.20633e-01     8.53978e-01    ;  uncertainty sigma = 0.000014, epsilon = 0.001845
 n7bf                                   7      0.0000       0.00000       A     3.38429e-01     3.93681e-01    ;  uncertainty sigma = 0.000012, epsilon = 0.000578
 c8bf                                   6      0.0000       0.00000       A     3.31525e-01     4.13030e-01    ;  uncertainty sigma = 0.000010, epsilon = 0.000939
 c9bf                                   6      0.0000       0.00000       A     3.31487e-01     4.13616e-01    ;  uncertainty sigma = 0.000020, epsilon = 0.001109
 n10bf                                  7      0.0000       0.00000       A     3.20612e-01     8.51418e-01    ;  uncertainty sigma = 0.000030, epsilon = 0.001559
 c11bf                                  6      0.0000       0.00000       A     3.31545e-01     4.13175e-01    ;  uncertainty sigma = 0.000004, epsilon = 0.000228
 c12bf                                  6      0.0000       0.00000       A     3.31513e-01     4.13679e-01    ;  uncertainty sigma = 0.000008, epsilon = 0.001038
 c13bf                                  6      0.0000       0.00000       A     3.31539e-01     4.13372e-01    ;  uncertainty sigma = 0.000002, epsilon = 0.000832
 c14bf                                  6      0.0000       0.00000       A     3.31510e-01     4.13227e-01    ;  uncertainty sigma = 0.000003, epsilon = 0.000744
 c15bf                                  6      0.0000       0.00000       A     3.31530e-01     4.13453e-01    ;  uncertainty sigma = 0.000012, epsilon = 0.000423
 c16bf                                  6      0.0000       0.00000       A     3.31639e-01     4.14074e-01    ;  uncertainty sigma = 0.000029, epsilon = 0.001725
 c17bf                                  6      0.0000       0.00000       A     3.31542e-01     4.13583e-01    ;  uncertainty sigma = 0.000009, epsilon = 0.000998
 c18bf                                  6      0.0000       0.00000       A     3.39772e-01     4.50459e-01    ;  uncertainty sigma = 0.000036, epsilon = 0.001319
 n19bf                                  7      0.0000       0.00000       A     2.58850e-01     1.06511e+01    ;  uncertainty sigma = 0.000059, epsilon = 0.000963
 c20bf                                  6      0.0000       0.00000       A     3.39748e-01     4.51339e-01    ;  uncertainty sigma = 0.000013, epsilon = 0.000962
 c21bf                                  6      0.0000       0.00000       A     3.39798e-01     4.51058e-01    ;  uncertainty sigma = 0.000016, epsilon = 0.001422
 o22bf                                  8      0.0000       0.00000       A     3.15690e-01     3.03675e-01    ;  uncertainty sigma = 0.000030, epsilon = 0.001123
 c23bf                                  6      0.0000       0.00000       A     3.39798e-01     4.51058e-01    ;  uncertainty sigma = 0.000016, epsilon = 0.001422
 c24bf                                  6      0.0000       0.00000       A     3.39748e-01     4.51339e-01    ;  uncertainty sigma = 0.000013, epsilon = 0.000962
 c25bf                                  6      0.0000       0.00000       A     3.31532e-01     4.13142e-01    ;  uncertainty sigma = 0.000003, epsilon = 0.001011
 c26bf                                  6      0.0000       0.00000       A     3.31522e-01     4.13306e-01    ;  uncertainty sigma = 0.000008, epsilon = 0.000593
 n27bf                                  7      0.0000       0.00000       A     3.20584e-01     8.54185e-01    ;  uncertainty sigma = 0.000011, epsilon = 0.001160
 n28bf                                  7      0.0000       0.00000       A     3.38434e-01     3.93689e-01    ;  uncertainty sigma = 0.000004, epsilon = 0.000786
 c29bf                                  6      0.0000       0.00000       A     3.31534e-01     4.12978e-01    ;  uncertainty sigma = 0.000006, epsilon = 0.000686
 c30bf                                  6      0.0000       0.00000       A     3.39777e-01     4.50912e-01    ;  uncertainty sigma = 0.000003, epsilon = 0.000595
 h31bf                                  1      0.0000       0.00000       A     2.62563e-01     6.70693e-02    ;  uncertainty sigma = 0.000010, epsilon = 0.000477
 h32bf                                  1      0.0000       0.00000       A     2.62595e-01     6.71778e-02    ;  uncertainty sigma = 0.000013, epsilon = 0.000322
 h33bf                                  1      0.0000       0.00000       A     2.62559e-01     6.68904e-02    ;  uncertainty sigma = 0.000013, epsilon = 0.000443
 h34bf                                  1      0.0000       0.00000       A     1.10655e-01     4.14032e-02    ;  uncertainty sigma = 0.000071, epsilon = 0.000793
 h35bf                                  1      0.0000       0.00000       A     1.10661e-01     4.09777e-02    ;  uncertainty sigma = 0.000073, epsilon = 0.000702
 h36bf                                  1      0.0000       0.00000       A     2.62548e-01     6.71074e-02    ;  uncertainty sigma = 0.000030, epsilon = 0.000235
 h37bf                                  1      0.0000       0.00000       A     2.62571e-01     6.70381e-02    ;  uncertainty sigma = 0.000008, epsilon = 0.000473
 h38bf                                  1      0.0000       0.00000       A     2.62577e-01     6.71749e-02    ;  uncertainty sigma = 0.000013, epsilon = 0.000695
 h39bf                                  1      0.0000       0.00000       A     2.62608e-01     6.70651e-02    ;  uncertainty sigma = 0.000010, epsilon = 0.000435
 h40bf                                  1      0.0000       0.00000       A     1.88839e-01     8.73239e-02    ;  uncertainty sigma = 0.000129, epsilon = 0.001577
 h41bf                                  1      0.0000       0.00000       A     1.88839e-01     8.73239e-02    ;  uncertainty sigma = 0.000129, epsilon = 0.001577
 h42bf                                  1      0.0000       0.00000       A     1.10675e-01     4.09842e-02    ;  uncertainty sigma = 0.000166, epsilon = 0.001207
 h43bf                                  1      0.0000       0.00000       A     1.88786e-01     8.66424e-02    ;  uncertainty sigma = 0.000063, epsilon = 0.000694
 h44bf                                  1      0.0000       0.00000       A     1.88786e-01     8.66424e-02    ;  uncertainty sigma = 0.000063, epsilon = 0.000694
 h45bf                                  1      0.0000       0.00000       A     2.42217e-01     8.68912e-02    ;  uncertainty sigma = 0.000047, epsilon = 0.000725
 h46bf                                  1      0.0000       0.00000       A     2.42217e-01     8.68912e-02    ;  uncertainty sigma = 0.000047, epsilon = 0.000725
 h47bf                                  1      0.0000       0.00000       A     2.42217e-01     8.68912e-02    ;  uncertainty sigma = 0.000047, epsilon = 0.000725
 h48bf                                  1      0.0000       0.00000       A     2.42217e-01     8.68912e-02    ;  uncertainty sigma = 0.000047, epsilon = 0.000725
 h49bf                                  1      0.0000       0.00000       A     1.88786e-01     8.66424e-02    ;  uncertainty sigma = 0.000063, epsilon = 0.000694
 h50bf                                  1      0.0000       0.00000       A     1.88786e-01     8.66424e-02    ;  uncertainty sigma = 0.000063, epsilon = 0.000694
 h51bf                                  1      0.0000       0.00000       A     2.53668e-01     6.70573e-02    ;  uncertainty sigma = 0.000029, epsilon = 0.000503
 h52bf                                  1      0.0000       0.00000       A     2.53681e-01     6.72124e-02    ;  uncertainty sigma = 0.000016, epsilon = 0.000497
 h53bf                                  1      0.0000       0.00000       A     2.42209e-01     8.68410e-02    ;  uncertainty sigma = 0.000019, epsilon = 0.000599
 h54bf                                  1      0.0000       0.00000       A     2.42209e-01     8.68410e-02    ;  uncertainty sigma = 0.000019, epsilon = 0.000599
 h55bf                                  1      0.0000       0.00000       A     2.42209e-01     8.68410e-02    ;  uncertainty sigma = 0.000019, epsilon = 0.000599

[ moleculetype ]
;name             nrexcl
 MOL                   3

[ atoms ]
;       nr            type      resi   res      atom      cgnr      charge          mass ; qtot
         1            c0bf         1   UNL        c0         1    -0.16699       12.0110 ; qtot   -0.167
         2            c1bf         1   UNL        c1         2     0.05445       12.0110 ; qtot   -0.113
         3            c2bf         1   UNL        c2         3    -0.15595       12.0110 ; qtot   -0.268
         4            c3bf         1   UNL        c3         4    -0.05069       12.0110 ; qtot   -0.319
         5            c4bf         1   UNL        c4         5    -0.21296       12.0110 ; qtot   -0.532
         6            c5bf         1   UNL        c5         6    -0.01820       12.0110 ; qtot   -0.550
         7            n6bf         1   UNL        n6         7    -0.02579       14.0070 ; qtot   -0.576
         8            n7bf         1   UNL        n7         8    -0.50896       14.0070 ; qtot   -1.085
         9            c8bf         1   UNL        c8         9     0.42430       12.0110 ; qtot   -0.661
        10            c9bf         1   UNL        c9        10    -0.09297       12.0110 ; qtot   -0.754
        11           n10bf         1   UNL       n10        11    -0.17863       14.0070 ; qtot   -0.932
        12           c11bf         1   UNL       c11        12    -0.14624       12.0110 ; qtot   -1.079
        13           c12bf         1   UNL       c12        13    -0.09138       12.0110 ; qtot   -1.170
        14           c13bf         1   UNL       c13        14    -0.01122       12.0110 ; qtot   -1.181
        15           c14bf         1   UNL       c14        15    -0.11583       12.0110 ; qtot   -1.297
        16           c15bf         1   UNL       c15        16    -0.09384       12.0110 ; qtot   -1.391
        17           c16bf         1   UNL       c16        17    -0.21455       12.0110 ; qtot   -1.605
        18           c17bf         1   UNL       c17        18    -0.02211       12.0110 ; qtot   -1.628
        19           c18bf         1   UNL       c18        19     0.22407       12.0110 ; qtot   -1.403
        20           n19bf         1   UNL       n19        20    -0.72222       14.0070 ; qtot   -2.126
        21           c20bf         1   UNL       c20        21     0.09378       12.0110 ; qtot   -2.032
        22           c21bf         1   UNL       c21        22     0.10321       12.0110 ; qtot   -1.929
        23           o22bf         1   UNL       o22        23    -0.37175       15.9990 ; qtot   -2.300
        24           c23bf         1   UNL       c23        24     0.10321       12.0110 ; qtot   -2.197
        25           c24bf         1   UNL       c24        25     0.09378       12.0110 ; qtot   -2.103
        26           c25bf         1   UNL       c25        26    -0.22784       12.0110 ; qtot   -2.331
        27           c26bf         1   UNL       c26        27    -0.11433       12.0110 ; qtot   -2.446
        28           n27bf         1   UNL       n27        28     0.08653       14.0070 ; qtot   -2.359
        29           n28bf         1   UNL       n28        29    -0.52338       14.0070 ; qtot   -2.882
        30           c29bf         1   UNL       c29        30     0.31804       12.0110 ; qtot   -2.564
        31           c30bf         1   UNL       c30        31     0.04276       12.0110 ; qtot   -2.522
        32           h31bf         1   UNL       h31        32     0.13537        1.0080 ; qtot   -2.386
        33           h32bf         1   UNL       h32        33     0.14118        1.0080 ; qtot   -2.245
        34           h33bf         1   UNL       h33        34     0.14799        1.0080 ; qtot   -2.097
        35           h34bf         1   UNL       h34        35     0.32964        1.0080 ; qtot   -1.768
        36           h35bf         1   UNL       h35        36     0.30972        1.0080 ; qtot   -1.458
        37           h36bf         1   UNL       h36        37     0.16185        1.0080 ; qtot   -1.296
        38           h37bf         1   UNL       h37        38     0.14571        1.0080 ; qtot   -1.150
        39           h38bf         1   UNL       h38        39     0.14052        1.0080 ; qtot   -1.010
        40           h39bf         1   UNL       h39        40     0.14264        1.0080 ; qtot   -0.867
        41           h40bf         1   UNL       h40        41     0.09938        1.0080 ; qtot   -0.768
        42           h41bf         1   UNL       h41        42     0.09938        1.0080 ; qtot   -0.668
        43           h42bf         1   UNL       h42        43     0.45509        1.0080 ; qtot   -0.213
        44           h43bf         1   UNL       h43        44     0.10927        1.0080 ; qtot   -0.104
        45           h44bf         1   UNL       h44        45     0.10927        1.0080 ; qtot    0.005
        46           h45bf         1   UNL       h45        46     0.09758        1.0080 ; qtot    0.103
        47           h46bf         1   UNL       h46        47     0.09758        1.0080 ; qtot    0.200
        48           h47bf         1   UNL       h47        48     0.09758        1.0080 ; qtot    0.298
        49           h48bf         1   UNL       h48        49     0.09758        1.0080 ; qtot    0.396
        50           h49bf         1   UNL       h49        50     0.10927        1.0080 ; qtot    0.505
        51           h50bf         1   UNL       h50        51     0.10927        1.0080 ; qtot    0.614
        52           h51bf         1   UNL       h51        52     0.17297        1.0080 ; qtot    0.787
        53           h52bf         1   UNL       h52        53     0.03826        1.0080 ; qtot    0.825
        54           h53bf         1   UNL       h53        54     0.05820        1.0080 ; qtot    0.884
        55           h54bf         1   UNL       h54        55     0.05820        1.0080 ; qtot    0.942
        56           h55bf         1   UNL       h55        56     0.05820        1.0080 ; qtot    1.000

[ bonds ]
;       ai        aj funct               r               k
         1         2     1        0.142326   333626.552051    ;  uncertainty r = 0.000180, k = 6.530306
         1         4     1        0.138550   363232.616748    ;  uncertainty r = 0.000066, k = 3.719212
         1        32     1        0.108815   336153.295801    ;  uncertainty r = 0.000021, k = 1.277949
         2         3     1        0.139380   354577.171045    ;  uncertainty r = 0.000061, k = 5.671721
         2        26     1        0.146662   275441.780566    ;  uncertainty r = 0.000018, k = 7.132939
         3         6     1        0.139923   362181.432715    ;  uncertainty r = 0.000059, k = 3.093052
         3        33     1        0.108899   336025.099512    ;  uncertainty r = 0.000039, k = 1.330432
         4         5     1        0.140387   357123.399609    ;  uncertainty r = 0.000053, k = 2.604980
         4        34     1        0.108694   334764.894238    ;  uncertainty r = 0.000029, k = 1.175002
         5         6     1        0.141673   395879.997949    ;  uncertainty r = 0.000079, k = 6.657734
         5         9     1        0.144344   226895.327051    ;  uncertainty r = 0.000037, k = 15.828667
         6         7     1        0.137610   296704.309814    ;  uncertainty r = 0.000021, k = 10.989985
         7         8     1        0.136151   293880.084277    ;  uncertainty r = 0.000063, k = 4.069476
         7        35     1        0.101079   415253.904736    ;  uncertainty r = 0.000031, k = 3.049052
         8         9     1        0.133460   447078.480273    ;  uncertainty r = 0.000096, k = 8.272837
         9        10     1        0.144794   289844.837939    ;  uncertainty r = 0.000097, k = 8.113485
        10        11     1        0.139278   314563.610645    ;  uncertainty r = 0.000138, k = 6.375764
        10        12     1        0.138557   411550.487598    ;  uncertainty r = 0.000054, k = 8.789488
        11        14     1        0.138425   328598.831494    ;  uncertainty r = 0.000062, k = 8.931475
        11        36     1        0.101173   411616.066895    ;  uncertainty r = 0.000057, k = 2.842789
        12        13     1        0.143692   255790.055566    ;  uncertainty r = 0.000105, k = 4.554133
        12        37     1        0.108254   339128.037061    ;  uncertainty r = 0.000025, k = 2.039581
        13        14     1        0.142749   371889.109473    ;  uncertainty r = 0.000072, k = 7.022474
        13        18     1        0.140315   369064.066748    ;  uncertainty r = 0.000085, k = 6.344517
        14        15     1        0.139681   367411.177344    ;  uncertainty r = 0.000052, k = 3.723678
        15        16     1        0.139020   366168.899121    ;  uncertainty r = 0.000059, k = 2.515093
        15        38     1        0.108877   336609.592871    ;  uncertainty r = 0.000015, k = 1.582506
        16        17     1        0.141750   334230.760059    ;  uncertainty r = 0.000211, k = 11.244450
        16        39     1        0.108854   333323.784082    ;  uncertainty r = 0.000014, k = 3.098911
        17        18     1        0.139748   350982.567529    ;  uncertainty r = 0.000152, k = 5.394295
        17        19     1        0.150066   226505.630762    ;  uncertainty r = 0.000119, k = 17.084016
        18        40     1        0.108909   332925.251953    ;  uncertainty r = 0.000037, k = 2.830692
        19        20     1        0.154032   175360.738062    ;  uncertainty r = 0.000279, k = 41.374625
        19        41     1        0.109174   310043.772119    ;  uncertainty r = 0.000035, k = 3.754961
        19        42     1        0.109174   310043.772119    ;  uncertainty r = 0.000035, k = 3.754961
        20        21     1        0.151337   184516.672803    ;  uncertainty r = 0.000074, k = 18.484671
        20        25     1        0.151337   184516.672803    ;  uncertainty r = 0.000074, k = 18.484671
        20        43     1        0.102745   387892.092285    ;  uncertainty r = 0.000058, k = 6.193569
        21        22     1        0.153800   204467.130908    ;  uncertainty r = 0.000034, k = 7.829418
        21        44     1        0.109108   313348.222998    ;  uncertainty r = 0.000020, k = 2.332486
        21        45     1        0.109108   313348.222998    ;  uncertainty r = 0.000020, k = 2.332486
        22        23     1        0.142192   284466.492871    ;  uncertainty r = 0.000046, k = 11.006376
        22        46     1        0.109532   312372.450049    ;  uncertainty r = 0.000033, k = 7.346983
        22        47     1        0.109532   312372.450049    ;  uncertainty r = 0.000033, k = 7.346983
        23        24     1        0.142192   284466.492871    ;  uncertainty r = 0.000046, k = 11.006376
        24        25     1        0.153800   204467.130908    ;  uncertainty r = 0.000034, k = 7.829418
        24        48     1        0.109532   312372.450049    ;  uncertainty r = 0.000033, k = 7.346983
        24        49     1        0.109532   312372.450049    ;  uncertainty r = 0.000033, k = 7.346983
        25        50     1        0.109108   313348.222998    ;  uncertainty r = 0.000020, k = 2.332486
        25        51     1        0.109108   313348.222998    ;  uncertainty r = 0.000020, k = 2.332486
        26        27     1        0.139090   414659.605127    ;  uncertainty r = 0.000019, k = 3.949243
        26        30     1        0.142422   245617.092676    ;  uncertainty r = 0.000018, k = 7.651012
        27        28     1        0.136112   293215.046875    ;  uncertainty r = 0.000043, k = 2.296192
        27        52     1        0.108275   339171.705518    ;  uncertainty r = 0.000031, k = 2.071460
        28        29     1        0.135372   281833.821191    ;  uncertainty r = 0.000063, k = 7.581406
        28        31     1        0.145228   253114.098486    ;  uncertainty r = 0.000011, k = 4.991559
        29        30     1        0.133370   453621.496289    ;  uncertainty r = 0.000041, k = 2.621061
        30        53     1        0.108433   337810.781885    ;  uncertainty r = 0.000019, k = 2.401486
        31        54     1        0.109330   311409.266895    ;  uncertainty r = 0.000011, k = 1.149467
        31        55     1        0.109330   311409.266895    ;  uncertainty r = 0.000011, k = 1.149467
        31        56     1        0.109330   311409.266895    ;  uncertainty r = 0.000011, k = 1.149453

[ angles ]
;       ai        aj        ak funct           theta             cth
         1         2         3     1      122.725601      414.090006    ;  uncertainty theta = 0.002063, k = 0.137959
         1         2        26     1      120.773560      447.307497    ;  uncertainty theta = 0.001087, k = 0.151207
         1         4         5     1      119.131088      538.568443    ;  uncertainty theta = 0.001587, k = 0.043411
         1         4        34     1      120.747482      285.551360    ;  uncertainty theta = 0.000810, k = 0.074929
         2         1         4     1      123.206833      525.752996    ;  uncertainty theta = 0.002810, k = 0.093125
         2         1        32     1      118.233360      284.903452    ;  uncertainty theta = 0.001504, k = 0.078117
         2         3         6     1      116.881615      518.114751    ;  uncertainty theta = 0.003292, k = 0.116340
         2         3        33     1      120.283432      275.945162    ;  uncertainty theta = 0.001915, k = 0.068915
         2        26        27     1      127.645897      343.474951    ;  uncertainty theta = 0.003991, k = 0.170742
         2        26        30     1      126.749352      345.664694    ;  uncertainty theta = 0.003966, k = 0.190768
         3         2        26     1      121.044357      430.836923    ;  uncertainty theta = 0.002928, k = 0.109433
         3         6         5     1      122.128159      374.523320    ;  uncertainty theta = 0.004057, k = 0.220700
         3         6         7     1      129.581223      393.487784    ;  uncertainty theta = 0.003205, k = 0.195819
         4         1        32     1      119.299278      299.598845    ;  uncertainty theta = 0.002179, k = 0.028711
         4         5         6     1      117.033119      396.399270    ;  uncertainty theta = 0.004823, k = 0.086292
         4         5         9     1      131.479568      363.377808    ;  uncertainty theta = 0.004315, k = 0.275797
         5         4        34     1      121.158081      280.555568    ;  uncertainty theta = 0.001179, k = 0.067913
         5         6         7     1      105.470375      656.187070    ;  uncertainty theta = 0.003922, k = 0.147749
         5         9         8     1      113.169456      813.213543    ;  uncertainty theta = 0.003665, k = 0.125410
         5         9        10     1      127.387650      329.627262    ;  uncertainty theta = 0.008479, k = 0.184424
         6         3        33     1      122.085304      296.708077    ;  uncertainty theta = 0.001019, k = 0.093816
         6         5         9     1      103.848572      751.325124    ;  uncertainty theta = 0.005897, k = 0.168338
         6         7         8     1      108.883987     1001.552470    ;  uncertainty theta = 0.003857, k = 0.031100
         6         7        35     1      116.100441      283.912484    ;  uncertainty theta = 0.006501, k = 0.101149
         7         8         9     1      109.048363      921.489546    ;  uncertainty theta = 0.003583, k = 0.165241
         8         7        35     1      108.267250      346.908703    ;  uncertainty theta = 0.005338, k = 0.074888
         8         9        10     1      120.762985      422.043699    ;  uncertainty theta = 0.004996, k = 0.118777
         9        10        11     1      119.132584      397.104668    ;  uncertainty theta = 0.005186, k = 0.178000
         9        10        12     1      128.640167      347.261370    ;  uncertainty theta = 0.004833, k = 0.168064
        10        11        14     1      106.165138      854.002691    ;  uncertainty theta = 0.002753, k = 0.085041
        10        11        36     1      116.293541      283.584141    ;  uncertainty theta = 0.006065, k = 0.113643
        10        12        13     1      107.187729      787.754258    ;  uncertainty theta = 0.002699, k = 0.072143
        10        12        37     1      123.161888      244.573158    ;  uncertainty theta = 0.003527, k = 0.152526
        11        10        12     1      111.264282      650.558244    ;  uncertainty theta = 0.002902, k = 0.165799
        11        14        13     1      108.242752      705.816974    ;  uncertainty theta = 0.002548, k = 0.146960
        11        14        15     1      129.553223      399.783192    ;  uncertainty theta = 0.001405, k = 0.079201
        12        13        14     1      106.846535      662.344706    ;  uncertainty theta = 0.001346, k = 0.176005
        12        13        18     1      132.347778      372.482490    ;  uncertainty theta = 0.003209, k = 0.146270
        13        12        37     1      124.819275      255.898052    ;  uncertainty theta = 0.003779, k = 0.072933
        13        14        15     1      119.718323      387.749499    ;  uncertainty theta = 0.002902, k = 0.065974
        13        18        17     1      119.763710      543.188936    ;  uncertainty theta = 0.005094, k = 0.209394
        13        18        40     1      120.935867      304.812789    ;  uncertainty theta = 0.002476, k = 0.040876
        14        11        36     1      116.981216      292.079827    ;  uncertainty theta = 0.005273, k = 0.076356
        14        13        18     1      116.553329      410.743879    ;  uncertainty theta = 0.005419, k = 0.156523
        14        15        16     1      117.036095      522.748204    ;  uncertainty theta = 0.003091, k = 0.092514
        14        15        38     1      122.463211      292.399360    ;  uncertainty theta = 0.001064, k = 0.070309
        15        16        17     1      123.551590      507.233644    ;  uncertainty theta = 0.008012, k = 0.030918
        15        16        39     1      119.046936      295.375869    ;  uncertainty theta = 0.001171, k = 0.111099
        16        15        38     1      120.796852      284.886821    ;  uncertainty theta = 0.001274, k = 0.066583
        16        17        18     1      124.084671      457.660305    ;  uncertainty theta = 0.007359, k = 0.143504
        16        17        19     1      118.652054      421.351515    ;  uncertainty theta = 0.000790, k = 0.176242
        17        16        39     1      118.020508      280.232140    ;  uncertainty theta = 0.003100, k = 0.193177
        17        18        40     1      119.015297      275.001023    ;  uncertainty theta = 0.004327, k = 0.205861
        17        19        20     1      112.857346      643.128414    ;  uncertainty theta = 0.003786, k = 0.139248
        17        19        41     1      109.916611      412.560780    ;  uncertainty theta = 0.002545, k = 0.136998
        17        19        42     1      109.916611      412.560780    ;  uncertainty theta = 0.002545, k = 0.136998
        18        17        19     1      118.906265      425.049831    ;  uncertainty theta = 0.002548, k = 0.081352
        19        20        21     1      112.292015      595.968651    ;  uncertainty theta = 0.005827, k = 0.123671
        19        20        25     1      112.292015      595.968651    ;  uncertainty theta = 0.005827, k = 0.123671
        19        20        43     1      107.018234      430.387949    ;  uncertainty theta = 0.004140, k = 0.098855
        20        19        41     1      105.749001      451.068954    ;  uncertainty theta = 0.004251, k = 0.195616
        20        19        42     1      105.749001      451.068954    ;  uncertainty theta = 0.004251, k = 0.195616
        20        21        22     1      109.121643      708.758530    ;  uncertainty theta = 0.003250, k = 0.245764
        20        21        44     1      106.715370      463.948180    ;  uncertainty theta = 0.002873, k = 0.076221
        20        21        45     1      106.715370      463.948180    ;  uncertainty theta = 0.002873, k = 0.076221
        20        25        24     1      109.121643      708.758530    ;  uncertainty theta = 0.003250, k = 0.245764
        20        25        50     1      106.715370      463.948180    ;  uncertainty theta = 0.002873, k = 0.076221
        20        25        51     1      106.715370      463.948180    ;  uncertainty theta = 0.002873, k = 0.076221
        21        20        25     1      110.525803      650.712169    ;  uncertainty theta = 0.004226, k = 0.215373
        21        20        43     1      107.120193      445.672452    ;  uncertainty theta = 0.004799, k = 0.196226
        21        22        23     1      110.374329      683.657913    ;  uncertainty theta = 0.002461, k = 0.195633
        21        22        46     1      109.479080      413.757162    ;  uncertainty theta = 0.003398, k = 0.063036
        21        22        47     1      109.479080      413.757162    ;  uncertainty theta = 0.003398, k = 0.063036
        22        21        44     1      110.953720      408.473949    ;  uncertainty theta = 0.001839, k = 0.089925
        22        21        45     1      110.953720      408.473949    ;  uncertainty theta = 0.001839, k = 0.089925
        22        23        24     1      107.073715      567.128700    ;  uncertainty theta = 0.002990, k = 0.169130
        23        22        46     1      107.793442      460.721470    ;  uncertainty theta = 0.002521, k = 0.092228
        23        22        47     1      107.793442      460.721470    ;  uncertainty theta = 0.002521, k = 0.092228
        23        24        25     1      110.374329      683.657913    ;  uncertainty theta = 0.002461, k = 0.195633
        23        24        48     1      107.793442      460.721470    ;  uncertainty theta = 0.002521, k = 0.092228
        23        24        49     1      107.793442      460.721470    ;  uncertainty theta = 0.002521, k = 0.092228
        24        25        50     1      110.953720      408.473949    ;  uncertainty theta = 0.001839, k = 0.089925
        24        25        51     1      110.953720      408.473949    ;  uncertainty theta = 0.001839, k = 0.089925
        25        20        43     1      107.120193      445.672452    ;  uncertainty theta = 0.004799, k = 0.196226
        25        24        48     1      109.479080      413.757162    ;  uncertainty theta = 0.003398, k = 0.063036
        25        24        49     1      109.479080      413.757162    ;  uncertainty theta = 0.003398, k = 0.063036
        26        27        28     1      107.787460      728.712652    ;  uncertainty theta = 0.002375, k = 0.176833
        26        27        52     1      129.335953      225.158698    ;  uncertainty theta = 0.003565, k = 0.129951
        26        30        29     1      112.790451      868.388191    ;  uncertainty theta = 0.004072, k = 0.097567
        26        30        53     1      126.063492      239.567709    ;  uncertainty theta = 0.003655, k = 0.071598
        27        26        30     1      104.334183      683.071390    ;  uncertainty theta = 0.005407, k = 0.151809
        27        28        29     1      109.867676      985.556344    ;  uncertainty theta = 0.002031, k = 0.103396
        27        28        31     1      122.676918      402.053249    ;  uncertainty theta = 0.001740, k = 0.119994
        28        27        52     1      118.078125      269.259738    ;  uncertainty theta = 0.002863, k = 0.151817
        28        29        30     1      106.280663      900.637347    ;  uncertainty theta = 0.001395, k = 0.057798
        28        31        54     1      108.689774      466.172430    ;  uncertainty theta = 0.001193, k = 0.023318
        28        31        55     1      108.689758      466.172430    ;  uncertainty theta = 0.001193, k = 0.023318
        28        31        56     1      108.689758      466.172430    ;  uncertainty theta = 0.001193, k = 0.023318
        29        28        31     1      116.723465      468.949495    ;  uncertainty theta = 0.002619, k = 0.085339
        29        30        53     1      118.672386      285.724310    ;  uncertainty theta = 0.004166, k = 0.051212
        41        19        42     1      106.676773      319.464003    ;  uncertainty theta = 0.003392, k = 0.031629
        44        21        45     1      108.019493      323.673476    ;  uncertainty theta = 0.003761, k = 0.066194
        46        22        47     1      107.590454      318.795186    ;  uncertainty theta = 0.003074, k = 0.085570
        48        24        49     1      107.590454      318.795186    ;  uncertainty theta = 0.003074, k = 0.085570
        50        25        51     1      108.019493      323.673476    ;  uncertainty theta = 0.003761, k = 0.066194
        54        31        55     1      107.724472      320.089279    ;  uncertainty theta = 0.001790, k = 0.014894
        54        31        56     1      107.724472      320.089279    ;  uncertainty theta = 0.001790, k = 0.014894
        55        31        56     1      107.724472      320.089279    ;  uncertainty theta = 0.001790, k = 0.014894

[ dihedrals ] ; propers for gromacs 4.5 or higher, use funct 9
;       ai        aj        ak        al funct           phase               k        pn
         1         2         3         6     9        0.000000        0.128347         1    ;  uncertainty k = 0.173736
         1         2         3         6     9      180.000000       13.985260         2    ;  uncertainty k = 0.304322
         1         2         3         6     9        0.000000        0.201688         3    ;  uncertainty k = 0.104202
         1         2         3         6     9      180.000000        0.865482         4    ;  uncertainty k = 0.296443
         1         2         3        33     9        0.000000        0.300432         1    ;  uncertainty k = 0.274977
         1         2         3        33     9      180.000000        7.919443         2    ;  uncertainty k = 0.664243
         1         2         3        33     9        0.000000        1.617094         3    ;  uncertainty k = 0.125952
         1         2         3        33     9      180.000000        1.729526         4    ;  uncertainty k = 0.260176
         1         2        26        27     9        0.000000        0.493963         1    ;  uncertainty k = 0.661262
         1         2        26        27     9      180.000000        3.244609         2    ;  uncertainty k = 0.303324
         1         2        26        27     9        0.000000        0.332396         3    ;  uncertainty k = 0.200835
         1         2        26        27     9      180.000000       -0.024019         4    ;  uncertainty k = 0.087766
         1         2        26        30     9        0.000000        0.505040         1    ;  uncertainty k = 0.805929
         1         2        26        30     9      180.000000        2.972185         2    ;  uncertainty k = 0.220542
         1         2        26        30     9        0.000000        0.425189         3    ;  uncertainty k = 0.129860
         1         2        26        30     9      180.000000       -0.070474         4    ;  uncertainty k = 0.061134
         1         4         5         6     9        0.000000        0.105116         1    ;  uncertainty k = 0.366509
         1         4         5         6     9      180.000000       13.531162         2    ;  uncertainty k = 0.286625
         1         4         5         6     9        0.000000       -1.891012         3    ;  uncertainty k = 0.651904
         1         4         5         6     9      180.000000        0.678514         4    ;  uncertainty k = 0.331226
         1         4         5         9     9        0.000000        0.287458         1    ;  uncertainty k = 0.359395
         1         4         5         9     9      180.000000        8.638885         2    ;  uncertainty k = 0.468152
         1         4         5         9     9        0.000000        0.611974         3    ;  uncertainty k = 0.445106
         1         4         5         9     9      180.000000        1.279369         4    ;  uncertainty k = 0.109466
         2         1         4         5     9        0.000000       -0.015669         1    ;  uncertainty k = 0.270916
         2         1         4         5     9      180.000000       16.386519         2    ;  uncertainty k = 0.276920
         2         1         4         5     9        0.000000       -0.265408         3    ;  uncertainty k = 0.455088
         2         1         4         5     9      180.000000        0.723509         4    ;  uncertainty k = 0.335088
         2         1         4        34     9        0.000000        0.043262         1    ;  uncertainty k = 0.179456
         2         1         4        34     9      180.000000        9.056171         2    ;  uncertainty k = 0.396623
         2         1         4        34     9        0.000000        1.437366         3    ;  uncertainty k = 0.241655
         2         1         4        34     9      180.000000        1.890585         4    ;  uncertainty k = 0.345584
         2         3         6         5     9        0.000000       -0.008468         1    ;  uncertainty k = 0.253740
         2         3         6         5     9      180.000000       12.269612         2    ;  uncertainty k = 0.193815
         2         3         6         5     9        0.000000       -1.358033         3    ;  uncertainty k = 0.565291
         2         3         6         5     9      180.000000        0.752534         4    ;  uncertainty k = 0.242938
         2         3         6         7     9        0.000000        0.102025         1    ;  uncertainty k = 0.204386
         2         3         6         7     9      180.000000       10.439553         2    ;  uncertainty k = 0.629082
         2         3         6         7     9        0.000000        0.869969         3    ;  uncertainty k = 0.252688
         2         3         6         7     9      180.000000        1.252030         4    ;  uncertainty k = 0.372500
         2        26        27        28     9        0.000000        0.722021         1    ;  uncertainty k = 0.738666
         2        26        27        28     9      180.000000       14.037634         2    ;  uncertainty k = 0.354782
         2        26        27        28     9        0.000000        1.428451         3    ;  uncertainty k = 0.211956
         2        26        27        28     9      180.000000        0.823096         4    ;  uncertainty k = 0.242131
         2        26        27        52     9        0.000000        0.410661         1    ;  uncertainty k = 0.544671
         2        26        27        52     9      180.000000        6.414328         2    ;  uncertainty k = 0.864113
         2        26        27        52     9        0.000000        1.313620         3    ;  uncertainty k = 0.471310
         2        26        27        52     9      180.000000        0.399823         4    ;  uncertainty k = 0.121636
         2        26        30        29     9        0.000000        0.980096         1    ;  uncertainty k = 1.233803
         2        26        30        29     9      180.000000       12.333372         2    ;  uncertainty k = 0.486013
         2        26        30        29     9        0.000000        1.876654         3    ;  uncertainty k = 0.548553
         2        26        30        29     9      180.000000        0.536370         4    ;  uncertainty k = 0.205746
         2        26        30        53     9        0.000000        0.229022         1    ;  uncertainty k = 0.825977
         2        26        30        53     9      180.000000        5.228549         2    ;  uncertainty k = 0.593338
         2        26        30        53     9        0.000000        1.380788         3    ;  uncertainty k = 0.248013
         2        26        30        53     9      180.000000        0.295960         4    ;  uncertainty k = 0.031235
         3         2         1         4     9        0.000000       -0.012581         1    ;  uncertainty k = 0.338567
         3         2         1         4     9      180.000000        8.416495         2    ;  uncertainty k = 0.455557
         3         2         1         4     9        0.000000        0.049946         3    ;  uncertainty k = 0.394212
         3         2         1         4     9      180.000000        1.086500         4    ;  uncertainty k = 0.261257
         3         2         1        32     9        0.000000       -0.171347         1    ;  uncertainty k = 0.283925
         3         2         1        32     9      180.000000        6.259571         2    ;  uncertainty k = 0.718689
         3         2         1        32     9        0.000000        1.266804         3    ;  uncertainty k = 0.192545
         3         2         1        32     9      180.000000        1.458403         4    ;  uncertainty k = 0.223658
         3         2        26        27     9        0.000000        0.428864         1    ;  uncertainty k = 0.533277
         3         2        26        27     9      180.000000        3.248826         2    ;  uncertainty k = 0.365959
         3         2        26        27     9        0.000000        0.544644         3    ;  uncertainty k = 0.221152
         3         2        26        27     9      180.000000       -0.055545         4    ;  uncertainty k = 0.093569
         3         2        26        30     9        0.000000        0.046680         1    ;  uncertainty k = 0.685092
         3         2        26        30     9      180.000000        2.960678         2    ;  uncertainty k = 0.341080
         3         2        26        30     9        0.000000        0.484670         3    ;  uncertainty k = 0.159263
         3         2        26        30     9      180.000000       -0.099266         4    ;  uncertainty k = 0.095860
         3         6         5         4     9        0.000000       -0.663217         1    ;  uncertainty k = 0.929692
         3         6         5         4     9      180.000000        7.307970         2    ;  uncertainty k = 0.447026
         3         6         5         4     9        0.000000        0.210374         3    ;  uncertainty k = 0.193850
         3         6         5         4     9      180.000000        1.007243         4    ;  uncertainty k = 0.348905
         3         6         5         9     9        0.000000        0.045484         1    ;  uncertainty k = 0.438166
         3         6         5         9     9      180.000000        7.136978         2    ;  uncertainty k = 0.425143
         3         6         5         9     9        0.000000        0.235143         3    ;  uncertainty k = 0.363305
         3         6         5         9     9      180.000000        1.309496         4    ;  uncertainty k = 0.383731
         3         6         7         8     9        0.000000        0.914269         1    ;  uncertainty k = 0.758104
         3         6         7         8     9      180.000000        6.983536         2    ;  uncertainty k = 0.224427
         3         6         7         8     9        0.000000        0.720920         3    ;  uncertainty k = 0.424543
         3         6         7         8     9      180.000000        0.307610         4    ;  uncertainty k = 0.245794
         3         6         7        35     9        0.000000        2.040319         1    ;  uncertainty k = 1.142489
         3         6         7        35     9      180.000000        1.621970         2    ;  uncertainty k = 0.682064
         3         6         7        35     9        0.000000        1.300101         3    ;  uncertainty k = 0.574818
         3         6         7        35     9      180.000000        0.126425         4    ;  uncertainty k = 0.119095
         4         1         2        26     9        0.000000       -0.125075         1    ;  uncertainty k = 0.484041
         4         1         2        26     9      180.000000        7.830841         2    ;  uncertainty k = 0.648796
         4         1         2        26     9        0.000000        1.173011         3    ;  uncertainty k = 0.364472
         4         1         2        26     9      180.000000        1.597834         4    ;  uncertainty k = 0.218907
         4         5         6         7     9        0.000000       -0.074818         1    ;  uncertainty k = 0.515948
         4         5         6         7     9      180.000000        8.395537         2    ;  uncertainty k = 0.233545
         4         5         6         7     9        0.000000       -0.196563         3    ;  uncertainty k = 0.484103
         4         5         6         7     9      180.000000        1.224026         4    ;  uncertainty k = 0.359971
         4         5         9         8     9        0.000000        0.869963         1    ;  uncertainty k = 0.447696
         4         5         9         8     9      180.000000        6.450477         2    ;  uncertainty k = 0.541484
         4         5         9         8     9        0.000000        0.389738         3    ;  uncertainty k = 0.243411
         4         5         9         8     9      180.000000        0.948810         4    ;  uncertainty k = 0.229399
         4         5         9        10     9        0.000000        0.197698         1    ;  uncertainty k = 1.186070
         4         5         9        10     9      180.000000        4.839489         2    ;  uncertainty k = 1.275533
         4         5         9        10     9        0.000000        1.391095         3    ;  uncertainty k = 0.169325
         4         5         9        10     9      180.000000        0.059881         4    ;  uncertainty k = 0.261239
         5         4         1        32     9        0.000000        0.118507         1    ;  uncertainty k = 0.316810
         5         4         1        32     9      180.000000       11.211377         2    ;  uncertainty k = 0.371449
         5         4         1        32     9        0.000000        1.529957         3    ;  uncertainty k = 0.292844
         5         4         1        32     9      180.000000        1.799800         4    ;  uncertainty k = 0.319463
         5         6         3        33     9        0.000000        0.142145         1    ;  uncertainty k = 0.265475
         5         6         3        33     9      180.000000        6.735007         2    ;  uncertainty k = 1.306009
         5         6         3        33     9        0.000000        1.371097         3    ;  uncertainty k = 0.153072
         5         6         3        33     9      180.000000        1.144263         4    ;  uncertainty k = 0.403087
         5         6         7         8     9        0.000000        0.348023         1    ;  uncertainty k = 0.409015
         5         6         7         8     9      180.000000       17.575712         2    ;  uncertainty k = 1.152984
         5         6         7         8     9        0.000000       -8.135803         3    ;  uncertainty k = 1.189341
         5         6         7         8     9      180.000000        0.686446         4    ;  uncertainty k = 0.515773
         5         6         7        35     9        0.000000        4.410424         1    ;  uncertainty k = 1.712130
         5         6         7        35     9      180.000000        5.729746         2    ;  uncertainty k = 1.320370
         5         6         7        35     9        0.000000        1.358018         3    ;  uncertainty k = 0.237777
         5         6         7        35     9      180.000000        0.062049         4    ;  uncertainty k = 0.144191
         5         9         8         7     9        0.000000       -0.152463         1    ;  uncertainty k = 0.527529
         5         9         8         7     9      180.000000       23.103862         2    ;  uncertainty k = 0.273884
         5         9         8         7     9        0.000000       -3.597325         3    ;  uncertainty k = 0.900478
         5         9         8         7     9      180.000000        2.077250         4    ;  uncertainty k = 0.560504
         5         9        10        11     9        0.000000        1.903801         1    ;  uncertainty k = 0.991191
         5         9        10        11     9      180.000000        2.852513         2    ;  uncertainty k = 0.311803
         5         9        10        11     9        0.000000        0.907814         3    ;  uncertainty k = 0.214036
         5         9        10        11     9      180.000000       -0.068704         4    ;  uncertainty k = 0.129687
         5         9        10        12     9        0.000000        0.295894         1    ;  uncertainty k = 0.984650
         5         9        10        12     9      180.000000        2.348433         2    ;  uncertainty k = 0.289649
         5         9        10        12     9        0.000000        0.481515         3    ;  uncertainty k = 0.178789
         5         9        10        12     9      180.000000        0.001695         4    ;  uncertainty k = 0.099466
         6         3         2        26     9        0.000000        0.203429         1    ;  uncertainty k = 0.427431
         6         3         2        26     9      180.000000       12.969216         2    ;  uncertainty k = 0.538652
         6         3         2        26     9        0.000000        1.330999         3    ;  uncertainty k = 0.305859
         6         3         2        26     9      180.000000        1.249953         4    ;  uncertainty k = 0.306656
         6         5         4        34     9        0.000000        0.076721         1    ;  uncertainty k = 0.511337
         6         5         4        34     9      180.000000        7.661923         2    ;  uncertainty k = 0.913247
         6         5         4        34     9        0.000000        1.282461         3    ;  uncertainty k = 0.369762
         6         5         4        34     9      180.000000        1.124843         4    ;  uncertainty k = 0.443258
         6         5         9         8     9        0.000000        0.481449         1    ;  uncertainty k = 0.448067
         6         5         9         8     9      180.000000       13.369195         2    ;  uncertainty k = 0.818247
         6         5         9         8     9        0.000000      -10.541430         3    ;  uncertainty k = 1.840182
         6         5         9         8     9      180.000000        2.001034         4    ;  uncertainty k = 0.453766
         6         5         9        10     9        0.000000        1.041528         1    ;  uncertainty k = 1.872081
         6         5         9        10     9      180.000000        9.358826         2    ;  uncertainty k = 0.387540
         6         5         9        10     9        0.000000        1.288247         3    ;  uncertainty k = 0.286854
         6         5         9        10     9      180.000000        0.444981         4    ;  uncertainty k = 0.273323
         6         7         8         9     9        0.000000       -0.776290         1    ;  uncertainty k = 0.774124
         6         7         8         9     9      180.000000       17.480299         2    ;  uncertainty k = 0.702625
         6         7         8         9     9        0.000000       -4.742459         3    ;  uncertainty k = 1.217381
         6         7         8         9     9      180.000000        1.006469         4    ;  uncertainty k = 0.569132
         7         6         3        33     9        0.000000        0.264576         1    ;  uncertainty k = 0.444830
         7         6         3        33     9      180.000000        5.608436         2    ;  uncertainty k = 0.915621
         7         6         3        33     9        0.000000        1.123133         3    ;  uncertainty k = 0.346537
         7         6         3        33     9      180.000000        0.852480         4    ;  uncertainty k = 0.450820
         7         6         5         9     9        0.000000       -0.427236         1    ;  uncertainty k = 0.145358
         7         6         5         9     9      180.000000       12.659133         2    ;  uncertainty k = 0.767344
         7         6         5         9     9        0.000000       -3.917352         3    ;  uncertainty k = 1.496761
         7         6         5         9     9      180.000000        1.556568         4    ;  uncertainty k = 0.516301
         7         8         9        10     9        0.000000        0.075600         1    ;  uncertainty k = 0.462753
         7         8         9        10     9      180.000000       25.017677         2    ;  uncertainty k = 0.430608
         7         8         9        10     9        0.000000        1.726979         3    ;  uncertainty k = 0.539591
         7         8         9        10     9      180.000000        1.073174         4    ;  uncertainty k = 0.433352
         8         9        10        11     9        0.000000        0.781710         1    ;  uncertainty k = 0.994313
         8         9        10        11     9      180.000000        4.218386         2    ;  uncertainty k = 0.146827
         8         9        10        11     9        0.000000        0.456255         3    ;  uncertainty k = 0.336140
         8         9        10        11     9      180.000000        0.006739         4    ;  uncertainty k = 0.109076
         8         9        10        12     9        0.000000        1.294517         1    ;  uncertainty k = 0.682896
         8         9        10        12     9      180.000000        3.396277         2    ;  uncertainty k = 0.207658
         8         9        10        12     9        0.000000        1.007984         3    ;  uncertainty k = 0.211819
         8         9        10        12     9      180.000000       -0.027329         4    ;  uncertainty k = 0.091070
         9         5         4        34     9        0.000000        0.277582         1    ;  uncertainty k = 0.507884
         9         5         4        34     9      180.000000        5.493377         2    ;  uncertainty k = 0.387697
         9         5         4        34     9        0.000000        1.135144         3    ;  uncertainty k = 0.107962
         9         5         4        34     9      180.000000        0.624838         4    ;  uncertainty k = 0.290557
         9         8         7        35     9        0.000000        3.342230         1    ;  uncertainty k = 2.444709
         9         8         7        35     9      180.000000       12.205419         2    ;  uncertainty k = 0.276133
         9         8         7        35     9        0.000000        1.618226         3    ;  uncertainty k = 1.032837
         9         8         7        35     9      180.000000       -0.142384         4    ;  uncertainty k = 0.501616
         9        10        11        14     9        0.000000        0.972876         1    ;  uncertainty k = 0.747688
         9        10        11        14     9      180.000000        9.072037         2    ;  uncertainty k = 0.685183
         9        10        11        14     9        0.000000        1.396325         3    ;  uncertainty k = 0.437267
         9        10        11        14     9      180.000000        0.162816         4    ;  uncertainty k = 0.433254
         9        10        11        36     9        0.000000        0.918600         1    ;  uncertainty k = 1.149431
         9        10        11        36     9      180.000000        2.312194         2    ;  uncertainty k = 0.875632
         9        10        11        36     9        0.000000        1.179158         3    ;  uncertainty k = 0.546571
         9        10        11        36     9      180.000000        0.033563         4    ;  uncertainty k = 0.163922
         9        10        12        13     9        0.000000        0.445398         1    ;  uncertainty k = 0.425637
         9        10        12        13     9      180.000000       14.898008         2    ;  uncertainty k = 0.250982
         9        10        12        13     9        0.000000        1.555908         3    ;  uncertainty k = 0.315662
         9        10        12        13     9      180.000000        0.839320         4    ;  uncertainty k = 0.195174
         9        10        12        37     9        0.000000        0.548979         1    ;  uncertainty k = 0.628695
         9        10        12        37     9      180.000000        8.040030         2    ;  uncertainty k = 0.846047
         9        10        12        37     9        0.000000        1.437429         3    ;  uncertainty k = 0.231870
         9        10        12        37     9      180.000000        0.430055         4    ;  uncertainty k = 0.351490
        10        11        14        13     9        0.000000        0.677224         1    ;  uncertainty k = 0.484040
        10        11        14        13     9      180.000000       15.391538         2    ;  uncertainty k = 0.543861
        10        11        14        13     9        0.000000       -7.176031         3    ;  uncertainty k = 1.504592
        10        11        14        13     9      180.000000        0.720549         4    ;  uncertainty k = 0.312836
        10        11        14        15     9        0.000000        1.177185         1    ;  uncertainty k = 1.388290
        10        11        14        15     9      180.000000        6.066057         2    ;  uncertainty k = 0.681074
        10        11        14        15     9        0.000000        0.556232         3    ;  uncertainty k = 0.680744
        10        11        14        15     9      180.000000        0.362922         4    ;  uncertainty k = 0.189431
        10        12        13        14     9        0.000000        0.361292         1    ;  uncertainty k = 1.330430
        10        12        13        14     9      180.000000       13.508990         2    ;  uncertainty k = 0.841570
        10        12        13        14     9        0.000000      -10.232746         3    ;  uncertainty k = 2.429813
        10        12        13        14     9      180.000000        1.943500         4    ;  uncertainty k = 0.699510
        10        12        13        18     9        0.000000        0.719928         1    ;  uncertainty k = 1.051785
        10        12        13        18     9      180.000000        7.152434         2    ;  uncertainty k = 0.463258
        10        12        13        18     9        0.000000        0.639458         3    ;  uncertainty k = 0.568479
        10        12        13        18     9      180.000000        0.881597         4    ;  uncertainty k = 0.181196
        11        10        12        13     9        0.000000       -0.170591         1    ;  uncertainty k = 0.457887
        11        10        12        13     9      180.000000       21.183000         2    ;  uncertainty k = 0.305566
        11        10        12        13     9        0.000000       -5.763849         3    ;  uncertainty k = 0.923330
        11        10        12        13     9      180.000000        1.114901         4    ;  uncertainty k = 0.646691
        11        10        12        37     9        0.000000        0.167060         1    ;  uncertainty k = 0.788367
        11        10        12        37     9      180.000000       13.631220         2    ;  uncertainty k = 0.279679
        11        10        12        37     9        0.000000        1.611237         3    ;  uncertainty k = 0.521630
        11        10        12        37     9      180.000000        0.833703         4    ;  uncertainty k = 0.212157
        11        14        13        12     9        0.000000       -0.202825         1    ;  uncertainty k = 0.478407
        11        14        13        12     9      180.000000       13.002652         2    ;  uncertainty k = 0.931177
        11        14        13        12     9        0.000000       -3.504618         3    ;  uncertainty k = 1.340468
        11        14        13        12     9      180.000000        1.499261         4    ;  uncertainty k = 0.893862
        11        14        13        18     9        0.000000       -0.009400         1    ;  uncertainty k = 0.665287
        11        14        13        18     9      180.000000        8.599465         2    ;  uncertainty k = 0.303691
        11        14        13        18     9        0.000000        0.039108         3    ;  uncertainty k = 0.634312
        11        14        13        18     9      180.000000        1.157750         4    ;  uncertainty k = 0.318749
        11        14        15        16     9        0.000000        0.101687         1    ;  uncertainty k = 0.492650
        11        14        15        16     9      180.000000       10.396881         2    ;  uncertainty k = 0.405513
        11        14        15        16     9        0.000000        0.905536         3    ;  uncertainty k = 0.217852
        11        14        15        16     9      180.000000        1.193490         4    ;  uncertainty k = 0.199283
        11        14        15        38     9        0.000000        0.297608         1    ;  uncertainty k = 0.281792
        11        14        15        38     9      180.000000        5.979846         2    ;  uncertainty k = 0.436306
        11        14        15        38     9        0.000000        1.081486         3    ;  uncertainty k = 0.443402
        11        14        15        38     9      180.000000        0.788557         4    ;  uncertainty k = 0.396366
        12        10        11        14     9        0.000000       -0.312845         1    ;  uncertainty k = 0.580788
        12        10        11        14     9      180.000000       14.762202         2    ;  uncertainty k = 0.576008
        12        10        11        14     9        0.000000       -6.005934         3    ;  uncertainty k = 0.754875
        12        10        11        14     9      180.000000        0.807473         4    ;  uncertainty k = 0.503918
        12        10        11        36     9        0.000000        2.692548         1    ;  uncertainty k = 0.930202
        12        10        11        36     9      180.000000        7.104361         2    ;  uncertainty k = 0.633239
        12        10        11        36     9        0.000000        1.708608         3    ;  uncertainty k = 0.800499
        12        10        11        36     9      180.000000       -0.086000         4    ;  uncertainty k = 0.169592
        12        13        14        15     9        0.000000        0.122372         1    ;  uncertainty k = 0.493782
        12        13        14        15     9      180.000000        7.658649         2    ;  uncertainty k = 0.231490
        12        13        14        15     9        0.000000        0.307669         3    ;  uncertainty k = 0.516181
        12        13        14        15     9      180.000000        1.225404         4    ;  uncertainty k = 0.295152
        12        13        18        17     9        0.000000        0.273940         1    ;  uncertainty k = 0.242143
        12        13        18        17     9      180.000000        9.158220         2    ;  uncertainty k = 0.581427
        12        13        18        17     9        0.000000        0.774232         3    ;  uncertainty k = 0.207770
        12        13        18        17     9      180.000000        1.313479         4    ;  uncertainty k = 0.061551
        12        13        18        40     9        0.000000        0.176521         1    ;  uncertainty k = 0.521884
        12        13        18        40     9      180.000000        6.160616         2    ;  uncertainty k = 0.516039
        12        13        18        40     9        0.000000        1.150569         3    ;  uncertainty k = 0.299354
        12        13        18        40     9      180.000000        0.773380         4    ;  uncertainty k = 0.265485
        13        14        11        36     9        0.000000        4.251255         1    ;  uncertainty k = 1.360478
        13        14        11        36     9      180.000000        5.652297         2    ;  uncertainty k = 0.865941
        13        14        11        36     9        0.000000        1.218097         3    ;  uncertainty k = 0.455419
        13        14        11        36     9      180.000000        0.178738         4    ;  uncertainty k = 0.095967
        13        14        15        16     9        0.000000        0.138507         1    ;  uncertainty k = 0.419631
        13        14        15        16     9      180.000000       12.342478         2    ;  uncertainty k = 0.198431
        13        14        15        16     9        0.000000       -1.190024         3    ;  uncertainty k = 0.162598
        13        14        15        16     9      180.000000        0.787465         4    ;  uncertainty k = 0.236198
        13        14        15        38     9        0.000000        0.110142         1    ;  uncertainty k = 0.471897
        13        14        15        38     9      180.000000        6.826218         2    ;  uncertainty k = 0.834942
        13        14        15        38     9        0.000000        1.286748         3    ;  uncertainty k = 0.286966
        13        14        15        38     9      180.000000        1.215500         4    ;  uncertainty k = 0.381963
        13        18        17        16     9        0.000000       -0.120548         1    ;  uncertainty k = 0.442668
        13        18        17        16     9      180.000000       14.435859         2    ;  uncertainty k = 0.456972
        13        18        17        16     9        0.000000       -0.084202         3    ;  uncertainty k = 0.428045
        13        18        17        16     9      180.000000        0.846335         4    ;  uncertainty k = 0.451327
        13        18        17        19     9        0.000000        0.080301         1    ;  uncertainty k = 0.272633
        13        18        17        19     9      180.000000       12.448777         2    ;  uncertainty k = 0.378350
        13        18        17        19     9        0.000000        1.422809         3    ;  uncertainty k = 0.341848
        13        18        17        19     9      180.000000        1.637286         4    ;  uncertainty k = 0.224817
        14        13        12        37     9        0.000000        0.017967         1    ;  uncertainty k = 0.631560
        14        13        12        37     9      180.000000        8.382173         2    ;  uncertainty k = 0.283584
        14        13        12        37     9        0.000000        1.223121         3    ;  uncertainty k = 0.388946
        14        13        12        37     9      180.000000        0.290886         4    ;  uncertainty k = 0.214805
        14        13        18        17     9        0.000000        0.115653         1    ;  uncertainty k = 0.417507
        14        13        18        17     9      180.000000       13.211841         2    ;  uncertainty k = 0.348487
        14        13        18        17     9        0.000000       -1.525755         3    ;  uncertainty k = 0.580502
        14        13        18        17     9      180.000000        0.752655         4    ;  uncertainty k = 0.130469
        14        13        18        40     9        0.000000        0.217180         1    ;  uncertainty k = 0.371606
        14        13        18        40     9      180.000000        7.628301         2    ;  uncertainty k = 0.907146
        14        13        18        40     9        0.000000        1.336832         3    ;  uncertainty k = 0.359407
        14        13        18        40     9      180.000000        1.243972         4    ;  uncertainty k = 0.290146
        14        15        16        17     9        0.000000       -0.069405         1    ;  uncertainty k = 0.317444
        14        15        16        17     9      180.000000       15.480187         2    ;  uncertainty k = 0.356555
        14        15        16        17     9        0.000000       -0.213723         3    ;  uncertainty k = 0.302107
        14        15        16        17     9      180.000000        0.786315         4    ;  uncertainty k = 0.335466
        14        15        16        39     9        0.000000       -0.162996         1    ;  uncertainty k = 0.244564
        14        15        16        39     9      180.000000       11.002376         2    ;  uncertainty k = 0.216657
        14        15        16        39     9        0.000000        1.394471         3    ;  uncertainty k = 0.287042
        14        15        16        39     9      180.000000        1.583323         4    ;  uncertainty k = 0.169870
        15        14        11        36     9        0.000000        1.269472         1    ;  uncertainty k = 0.837827
        15        14        11        36     9      180.000000        2.067532         2    ;  uncertainty k = 0.608338
        15        14        11        36     9        0.000000        1.208102         3    ;  uncertainty k = 0.532703
        15        14        11        36     9      180.000000        0.096571         4    ;  uncertainty k = 0.215072
        15        14        13        18     9        0.000000       -0.706833         1    ;  uncertainty k = 0.684641
        15        14        13        18     9      180.000000        7.606582         2    ;  uncertainty k = 0.334024
        15        14        13        18     9        0.000000        0.144136         3    ;  uncertainty k = 0.309429
        15        14        13        18     9      180.000000        0.910966         4    ;  uncertainty k = 0.352736
        15        16        17        18     9        0.000000       -0.338036         1    ;  uncertainty k = 0.337143
        15        16        17        18     9      180.000000       11.066610         2    ;  uncertainty k = 0.368774
        15        16        17        18     9        0.000000       -0.486274         3    ;  uncertainty k = 0.431050
        15        16        17        18     9      180.000000        0.915685         4    ;  uncertainty k = 0.301678
        15        16        17        19     9        0.000000        0.313025         1    ;  uncertainty k = 0.337218
        15        16        17        19     9      180.000000        8.654181         2    ;  uncertainty k = 0.594478
        15        16        17        19     9        0.000000        1.294904         3    ;  uncertainty k = 0.419121
        15        16        17        19     9      180.000000        1.808641         4    ;  uncertainty k = 0.235420
        16        17        18        40     9        0.000000        0.255434         1    ;  uncertainty k = 0.332067
        16        17        18        40     9      180.000000        8.320365         2    ;  uncertainty k = 0.480036
        16        17        18        40     9        0.000000        1.477869         3    ;  uncertainty k = 0.227399
        16        17        18        40     9      180.000000        1.668731         4    ;  uncertainty k = 0.153873
        16        17        19        20     9        0.000000       -0.520813         1    ;  uncertainty k = 1.299158
        16        17        19        20     9      180.000000       -0.356646         2    ;  uncertainty k = 0.268685
        16        17        19        20     9        0.000000        0.779235         3    ;  uncertainty k = 0.227853
        16        17        19        20     9      180.000000        0.143873         4    ;  uncertainty k = 0.127893
        16        17        19        41     9        0.000000       -0.776665         1    ;  uncertainty k = 0.323857
        16        17        19        41     9      180.000000        1.646929         2    ;  uncertainty k = 0.206598
        16        17        19        41     9        0.000000        0.561916         3    ;  uncertainty k = 0.134134
        16        17        19        41     9      180.000000        0.097113         4    ;  uncertainty k = 0.091890
        16        17        19        42     9        0.000000       -0.776665         1    ;  uncertainty k = 0.323857
        16        17        19        42     9      180.000000        1.646929         2    ;  uncertainty k = 0.206598
        16        17        19        42     9        0.000000        0.561916         3    ;  uncertainty k = 0.134134
        16        17        19        42     9      180.000000        0.097113         4    ;  uncertainty k = 0.091890
        17        16        15        38     9        0.000000        0.062625         1    ;  uncertainty k = 0.188029
        17        16        15        38     9      180.000000        8.653029         2    ;  uncertainty k = 0.558389
        17        16        15        38     9        0.000000        1.424910         3    ;  uncertainty k = 0.169008
        17        16        15        38     9      180.000000        1.741614         4    ;  uncertainty k = 0.149464
        17        19        20        21     9        0.000000        0.473175         1    ;  uncertainty k = 1.333110
        17        19        20        21     9      180.000000       -0.139716         2    ;  uncertainty k = 0.387122
        17        19        20        21     9        0.000000        1.110494         3    ;  uncertainty k = 0.193554
        17        19        20        21     9      180.000000       -0.015971         4    ;  uncertainty k = 0.104414
        17        19        20        25     9        0.000000        0.473175         1    ;  uncertainty k = 1.333110
        17        19        20        25     9      180.000000       -0.139716         2    ;  uncertainty k = 0.387122
        17        19        20        25     9        0.000000        1.110494         3    ;  uncertainty k = 0.193554
        17        19        20        25     9      180.000000       -0.015971         4    ;  uncertainty k = 0.104414
        17        19        20        43     9        0.000000        1.018761         1    ;  uncertainty k = 1.034814
        17        19        20        43     9      180.000000       -0.137721         2    ;  uncertainty k = 0.507797
        17        19        20        43     9        0.000000        0.797568         3    ;  uncertainty k = 0.139490
        17        19        20        43     9      180.000000       -0.122368         4    ;  uncertainty k = 0.114750
        18        13        12        37     9        0.000000        0.461655         1    ;  uncertainty k = 0.985717
        18        13        12        37     9      180.000000        4.269004         2    ;  uncertainty k = 0.713269
        18        13        12        37     9        0.000000        1.295441         3    ;  uncertainty k = 0.311370
        18        13        12        37     9      180.000000        0.090060         4    ;  uncertainty k = 0.170435
        18        17        16        39     9        0.000000        0.085635         1    ;  uncertainty k = 0.380041
        18        17        16        39     9      180.000000        7.117360         2    ;  uncertainty k = 0.584951
        18        17        16        39     9        0.000000        1.371620         3    ;  uncertainty k = 0.155099
        18        17        16        39     9      180.000000        1.456083         4    ;  uncertainty k = 0.133603
        18        17        19        20     9        0.000000       -0.558454         1    ;  uncertainty k = 1.489111
        18        17        19        20     9      180.000000       -0.274642         2    ;  uncertainty k = 0.364696
        18        17        19        20     9        0.000000        0.480117         3    ;  uncertainty k = 0.181767
        18        17        19        20     9      180.000000        0.122075         4    ;  uncertainty k = 0.110119
        18        17        19        41     9        0.000000       -0.475957         1    ;  uncertainty k = 0.301324
        18        17        19        41     9      180.000000        1.737904         2    ;  uncertainty k = 0.363132
        18        17        19        41     9        0.000000        0.377112         3    ;  uncertainty k = 0.168589
        18        17        19        41     9      180.000000        0.078430         4    ;  uncertainty k = 0.109775
        18        17        19        42     9        0.000000       -0.475957         1    ;  uncertainty k = 0.301324
        18        17        19        42     9      180.000000        1.737904         2    ;  uncertainty k = 0.363132
        18        17        19        42     9        0.000000        0.377112         3    ;  uncertainty k = 0.168589
        18        17        19        42     9      180.000000        0.078430         4    ;  uncertainty k = 0.109775
        19        17        16        39     9        0.000000        0.122149         1    ;  uncertainty k = 0.461332
        19        17        16        39     9      180.000000        6.718705         2    ;  uncertainty k = 0.453135
        19        17        16        39     9        0.000000        0.760629         3    ;  uncertainty k = 0.257853
        19        17        16        39     9      180.000000        1.113759         4    ;  uncertainty k = 0.300676
        19        17        18        40     9        0.000000        0.097777         1    ;  uncertainty k = 0.284723
        19        17        18        40     9      180.000000        7.538069         2    ;  uncertainty k = 0.394437
        19        17        18        40     9        0.000000        0.954993         3    ;  uncertainty k = 0.303522
        19        17        18        40     9      180.000000        1.281178         4    ;  uncertainty k = 0.346508
        19        20        21        22     9        0.000000       -1.888511         1    ;  uncertainty k = 0.651154
        19        20        21        22     9      180.000000       -0.011821         2    ;  uncertainty k = 0.664013
        19        20        21        22     9        0.000000        0.717087         3    ;  uncertainty k = 0.248292
        19        20        21        22     9      180.000000       -0.029334         4    ;  uncertainty k = 0.131552
        19        20        21        44     9        0.000000       -0.252808         1    ;  uncertainty k = 0.233545
        19        20        21        44     9      180.000000       -0.851082         2    ;  uncertainty k = 0.203457
        19        20        21        44     9        0.000000        0.808234         3    ;  uncertainty k = 0.114503
        19        20        21        44     9      180.000000       -0.061122         4    ;  uncertainty k = 0.071506
        19        20        21        45     9        0.000000       -0.252808         1    ;  uncertainty k = 0.233545
        19        20        21        45     9      180.000000       -0.851082         2    ;  uncertainty k = 0.203457
        19        20        21        45     9        0.000000        0.808234         3    ;  uncertainty k = 0.114503
        19        20        21        45     9      180.000000       -0.061122         4    ;  uncertainty k = 0.071506
        19        20        25        24     9        0.000000       -1.888511         1    ;  uncertainty k = 0.651154
        19        20        25        24     9      180.000000       -0.011821         2    ;  uncertainty k = 0.664013
        19        20        25        24     9        0.000000        0.717087         3    ;  uncertainty k = 0.248292
        19        20        25        24     9      180.000000       -0.029334         4    ;  uncertainty k = 0.131552
        19        20        25        50     9        0.000000       -0.252808         1    ;  uncertainty k = 0.233545
        19        20        25        50     9      180.000000       -0.851082         2    ;  uncertainty k = 0.203457
        19        20        25        50     9        0.000000        0.808234         3    ;  uncertainty k = 0.114503
        19        20        25        50     9      180.000000       -0.061122         4    ;  uncertainty k = 0.071506
        19        20        25        51     9        0.000000       -0.252808         1    ;  uncertainty k = 0.233545
        19        20        25        51     9      180.000000       -0.851082         2    ;  uncertainty k = 0.203457
        19        20        25        51     9        0.000000        0.808234         3    ;  uncertainty k = 0.114503
        19        20        25        51     9      180.000000       -0.061122         4    ;  uncertainty k = 0.071506
        20        21        22        23     9        0.000000        2.041742         1    ;  uncertainty k = 1.407758
        20        21        22        23     9      180.000000       -5.353373         2    ;  uncertainty k = 0.712411
        20        21        22        23     9        0.000000        2.006679         3    ;  uncertainty k = 0.510151
        20        21        22        23     9      180.000000       -0.261370         4    ;  uncertainty k = 0.275999
        20        21        22        46     9        0.000000        2.931196         1    ;  uncertainty k = 1.871943
        20        21        22        46     9      180.000000       -3.397211         2    ;  uncertainty k = 0.989543
        20        21        22        46     9        0.000000        0.280338         3    ;  uncertainty k = 0.226645
        20        21        22        46     9      180.000000        0.218849         4    ;  uncertainty k = 0.115750
        20        21        22        47     9        0.000000        2.931196         1    ;  uncertainty k = 1.871943
        20        21        22        47     9      180.000000       -3.397211         2    ;  uncertainty k = 0.989543
        20        21        22        47     9        0.000000        0.280338         3    ;  uncertainty k = 0.226645
        20        21        22        47     9      180.000000        0.218849         4    ;  uncertainty k = 0.115750
        20        25        24        23     9        0.000000        2.041742         1    ;  uncertainty k = 1.407758
        20        25        24        23     9      180.000000       -5.353373         2    ;  uncertainty k = 0.712411
        20        25        24        23     9        0.000000        2.006679         3    ;  uncertainty k = 0.510151
        20        25        24        23     9      180.000000       -0.261370         4    ;  uncertainty k = 0.275999
        20        25        24        48     9        0.000000        2.931196         1    ;  uncertainty k = 1.871943
        20        25        24        48     9      180.000000       -3.397211         2    ;  uncertainty k = 0.989543
        20        25        24        48     9        0.000000        0.280338         3    ;  uncertainty k = 0.226645
        20        25        24        48     9      180.000000        0.218849         4    ;  uncertainty k = 0.115750
        20        25        24        49     9        0.000000        2.931196         1    ;  uncertainty k = 1.871943
        20        25        24        49     9      180.000000       -3.397211         2    ;  uncertainty k = 0.989543
        20        25        24        49     9        0.000000        0.280338         3    ;  uncertainty k = 0.226645
        20        25        24        49     9      180.000000        0.218849         4    ;  uncertainty k = 0.115750
        21        20        19        41     9        0.000000       -0.478729         1    ;  uncertainty k = 0.563276
        21        20        19        41     9      180.000000       -0.535665         2    ;  uncertainty k = 0.310608
        21        20        19        41     9        0.000000        0.911746         3    ;  uncertainty k = 0.120554
        21        20        19        41     9      180.000000       -0.043110         4    ;  uncertainty k = 0.181520
        21        20        19        42     9        0.000000       -0.478729         1    ;  uncertainty k = 0.563276
        21        20        19        42     9      180.000000       -0.535665         2    ;  uncertainty k = 0.310608
        21        20        19        42     9        0.000000        0.911746         3    ;  uncertainty k = 0.120554
        21        20        19        42     9      180.000000       -0.043110         4    ;  uncertainty k = 0.181520
        21        20        25        24     9        0.000000        0.555898         1    ;  uncertainty k = 1.363038
        21        20        25        24     9      180.000000       -0.526110         2    ;  uncertainty k = 0.593599
        21        20        25        24     9        0.000000        0.625049         3    ;  uncertainty k = 0.252190
        21        20        25        24     9      180.000000       -0.361730         4    ;  uncertainty k = 0.235273
        21        20        25        50     9        0.000000       -0.592727         1    ;  uncertainty k = 0.718811
        21        20        25        50     9      180.000000       -0.598658         2    ;  uncertainty k = 0.276416
        21        20        25        50     9        0.000000        0.484077         3    ;  uncertainty k = 0.209024
        21        20        25        50     9      180.000000       -0.037147         4    ;  uncertainty k = 0.257514
        21        20        25        51     9        0.000000       -0.592727         1    ;  uncertainty k = 0.718811
        21        20        25        51     9      180.000000       -0.598658         2    ;  uncertainty k = 0.276416
        21        20        25        51     9        0.000000        0.484077         3    ;  uncertainty k = 0.209024
        21        20        25        51     9      180.000000       -0.037147         4    ;  uncertainty k = 0.257514
        21        22        23        24     9        0.000000       -3.831849         1    ;  uncertainty k = 1.426358
        21        22        23        24     9      180.000000       -1.175653         2    ;  uncertainty k = 0.724334
        21        22        23        24     9        0.000000        0.776157         3    ;  uncertainty k = 0.316008
        21        22        23        24     9      180.000000       -0.264664         4    ;  uncertainty k = 0.320493
        22        21        20        25     9        0.000000        0.555898         1    ;  uncertainty k = 1.363038
        22        21        20        25     9      180.000000       -0.526110         2    ;  uncertainty k = 0.593599
        22        21        20        25     9        0.000000        0.625049         3    ;  uncertainty k = 0.252190
        22        21        20        25     9      180.000000       -0.361730         4    ;  uncertainty k = 0.235273
        22        21        20        43     9        0.000000        0.684778         1    ;  uncertainty k = 0.523871
        22        21        20        43     9      180.000000       -0.431398         2    ;  uncertainty k = 0.440635
        22        21        20        43     9        0.000000        0.295424         3    ;  uncertainty k = 0.226765
        22        21        20        43     9      180.000000       -0.148061         4    ;  uncertainty k = 0.101372
        22        23        24        25     9        0.000000       -3.831849         1    ;  uncertainty k = 1.426358
        22        23        24        25     9      180.000000       -1.175653         2    ;  uncertainty k = 0.724334
        22        23        24        25     9        0.000000        0.776157         3    ;  uncertainty k = 0.316008
        22        23        24        25     9      180.000000       -0.264664         4    ;  uncertainty k = 0.320493
        22        23        24        48     9        0.000000       -4.313596         1    ;  uncertainty k = 1.361932
        22        23        24        48     9      180.000000       -0.256749         2    ;  uncertainty k = 0.481717
        22        23        24        48     9        0.000000        0.788106         3    ;  uncertainty k = 0.169191
        22        23        24        48     9      180.000000       -0.399359         4    ;  uncertainty k = 0.132198
        22        23        24        49     9        0.000000       -4.313596         1    ;  uncertainty k = 1.361932
        22        23        24        49     9      180.000000       -0.256749         2    ;  uncertainty k = 0.481717
        22        23        24        49     9        0.000000        0.788106         3    ;  uncertainty k = 0.169191
        22        23        24        49     9      180.000000       -0.399359         4    ;  uncertainty k = 0.132198
        23        22        21        44     9        0.000000        0.334907         1    ;  uncertainty k = 0.705824
        23        22        21        44     9      180.000000       -0.744502         2    ;  uncertainty k = 0.523446
        23        22        21        44     9        0.000000        1.009840         3    ;  uncertainty k = 0.117897
        23        22        21        44     9      180.000000        0.026836         4    ;  uncertainty k = 0.033118
        23        22        21        45     9        0.000000        0.334907         1    ;  uncertainty k = 0.705824
        23        22        21        45     9      180.000000       -0.744502         2    ;  uncertainty k = 0.523446
        23        22        21        45     9        0.000000        1.009840         3    ;  uncertainty k = 0.117897
        23        22        21        45     9      180.000000        0.026836         4    ;  uncertainty k = 0.033118
        23        24        25        50     9        0.000000        0.334907         1    ;  uncertainty k = 0.705824
        23        24        25        50     9      180.000000       -0.744502         2    ;  uncertainty k = 0.523446
        23        24        25        50     9        0.000000        1.009840         3    ;  uncertainty k = 0.117897
        23        24        25        50     9      180.000000        0.026836         4    ;  uncertainty k = 0.033118
        23        24        25        51     9        0.000000        0.334907         1    ;  uncertainty k = 0.705824
        23        24        25        51     9      180.000000       -0.744502         2    ;  uncertainty k = 0.523446
        23        24        25        51     9        0.000000        1.009840         3    ;  uncertainty k = 0.117897
        23        24        25        51     9      180.000000        0.026836         4    ;  uncertainty k = 0.033118
        24        23        22        46     9        0.000000       -4.313596         1    ;  uncertainty k = 1.361932
        24        23        22        46     9      180.000000       -0.256749         2    ;  uncertainty k = 0.481717
        24        23        22        46     9        0.000000        0.788106         3    ;  uncertainty k = 0.169191
        24        23        22        46     9      180.000000       -0.399359         4    ;  uncertainty k = 0.132198
        24        23        22        47     9        0.000000       -4.313596         1    ;  uncertainty k = 1.361932
        24        23        22        47     9      180.000000       -0.256749         2    ;  uncertainty k = 0.481717
        24        23        22        47     9        0.000000        0.788106         3    ;  uncertainty k = 0.169191
        24        23        22        47     9      180.000000       -0.399359         4    ;  uncertainty k = 0.132198
        24        25        20        43     9        0.000000        0.684778         1    ;  uncertainty k = 0.523871
        24        25        20        43     9      180.000000       -0.431398         2    ;  uncertainty k = 0.440635
        24        25        20        43     9        0.000000        0.295424         3    ;  uncertainty k = 0.226765
        24        25        20        43     9      180.000000       -0.148061         4    ;  uncertainty k = 0.101372
        25        20        19        41     9        0.000000       -0.478729         1    ;  uncertainty k = 0.563276
        25        20        19        41     9      180.000000       -0.535665         2    ;  uncertainty k = 0.310608
        25        20        19        41     9        0.000000        0.911746         3    ;  uncertainty k = 0.120554
        25        20        19        41     9      180.000000       -0.043110         4    ;  uncertainty k = 0.181520
        25        20        19        42     9        0.000000       -0.478729         1    ;  uncertainty k = 0.563276
        25        20        19        42     9      180.000000       -0.535665         2    ;  uncertainty k = 0.310608
        25        20        19        42     9        0.000000        0.911746         3    ;  uncertainty k = 0.120554
        25        20        19        42     9      180.000000       -0.043110         4    ;  uncertainty k = 0.181520
        25        20        21        44     9        0.000000       -0.592727         1    ;  uncertainty k = 0.718811
        25        20        21        44     9      180.000000       -0.598658         2    ;  uncertainty k = 0.276416
        25        20        21        44     9        0.000000        0.484077         3    ;  uncertainty k = 0.209024
        25        20        21        44     9      180.000000       -0.037147         4    ;  uncertainty k = 0.257514
        25        20        21        45     9        0.000000       -0.592727         1    ;  uncertainty k = 0.718811
        25        20        21        45     9      180.000000       -0.598658         2    ;  uncertainty k = 0.276416
        25        20        21        45     9        0.000000        0.484077         3    ;  uncertainty k = 0.209024
        25        20        21        45     9      180.000000       -0.037147         4    ;  uncertainty k = 0.257514
        26         2         1        32     9        0.000000       -0.424897         1    ;  uncertainty k = 0.437017
        26         2         1        32     9      180.000000        6.896948         2    ;  uncertainty k = 0.491684
        26         2         1        32     9        0.000000        0.835712         3    ;  uncertainty k = 0.131761
        26         2         1        32     9      180.000000        1.033537         4    ;  uncertainty k = 0.237604
        26         2         3        33     9        0.000000       -0.367855         1    ;  uncertainty k = 0.475056
        26         2         3        33     9      180.000000        7.819103         2    ;  uncertainty k = 0.301840
        26         2         3        33     9        0.000000        0.857177         3    ;  uncertainty k = 0.122081
        26         2         3        33     9      180.000000        1.085884         4    ;  uncertainty k = 0.137042
        26        27        28        29     9        0.000000       -0.311760         1    ;  uncertainty k = 1.042297
        26        27        28        29     9      180.000000       17.284725         2    ;  uncertainty k = 0.673139
        26        27        28        29     9        0.000000       -9.059028         3    ;  uncertainty k = 0.918563
        26        27        28        29     9      180.000000        1.206923         4    ;  uncertainty k = 0.533728
        26        27        28        31     9        0.000000        1.388921         1    ;  uncertainty k = 1.267722
        26        27        28        31     9      180.000000        9.664661         2    ;  uncertainty k = 0.373575
        26        27        28        31     9        0.000000        1.940212         3    ;  uncertainty k = 0.387320
        26        27        28        31     9      180.000000       -0.114505         4    ;  uncertainty k = 0.071383
        26        30        29        28     9        0.000000       -0.067383         1    ;  uncertainty k = 0.614498
        26        30        29        28     9      180.000000       24.429846         2    ;  uncertainty k = 0.466387
        26        30        29        28     9        0.000000       -7.674405         3    ;  uncertainty k = 0.508355
        26        30        29        28     9      180.000000        2.234185         4    ;  uncertainty k = 0.721698
        27        26        30        29     9        0.000000       -0.339823         1    ;  uncertainty k = 0.518456
        27        26        30        29     9      180.000000       15.099780         2    ;  uncertainty k = 1.059438
        27        26        30        29     9        0.000000       -9.001547         3    ;  uncertainty k = 0.801258
        27        26        30        29     9      180.000000        1.815912         4    ;  uncertainty k = 0.527132
        27        26        30        53     9        0.000000       -0.037623         1    ;  uncertainty k = 0.349758
        27        26        30        53     9      180.000000        8.115724         2    ;  uncertainty k = 0.592163
        27        26        30        53     9        0.000000        1.261289         3    ;  uncertainty k = 0.332954
        27        26        30        53     9      180.000000        0.507033         4    ;  uncertainty k = 0.165767
        27        28        29        30     9        0.000000       -0.227489         1    ;  uncertainty k = 0.847749
        27        28        29        30     9      180.000000       16.673891         2    ;  uncertainty k = 0.420422
        27        28        29        30     9        0.000000       -7.506932         3    ;  uncertainty k = 1.311156
        27        28        29        30     9      180.000000        1.603972         4    ;  uncertainty k = 0.420777
        27        28        31        54     9        0.000000       -0.007109         1    ;  uncertainty k = 0.353415
        27        28        31        54     9      180.000000       -1.116721         2    ;  uncertainty k = 0.174245
        27        28        31        54     9        0.000000        0.792088         3    ;  uncertainty k = 0.018846
        27        28        31        54     9      180.000000        0.209465         4    ;  uncertainty k = 0.050168
        27        28        31        55     9        0.000000       -0.007109         1    ;  uncertainty k = 0.353415
        27        28        31        55     9      180.000000       -1.116721         2    ;  uncertainty k = 0.174245
        27        28        31        55     9        0.000000        0.792088         3    ;  uncertainty k = 0.018846
        27        28        31        55     9      180.000000        0.209465         4    ;  uncertainty k = 0.050168
        27        28        31        56     9        0.000000       -0.007109         1    ;  uncertainty k = 0.353415
        27        28        31        56     9      180.000000       -1.116721         2    ;  uncertainty k = 0.174245
        27        28        31        56     9        0.000000        0.792088         3    ;  uncertainty k = 0.018846
        27        28        31        56     9      180.000000        0.209465         4    ;  uncertainty k = 0.050168
        28        27        26        30     9        0.000000        0.119184         1    ;  uncertainty k = 0.247949
        28        27        26        30     9      180.000000       18.916189         2    ;  uncertainty k = 0.232885
        28        27        26        30     9        0.000000       -9.794546         3    ;  uncertainty k = 0.577655
        28        27        26        30     9      180.000000        1.623944         4    ;  uncertainty k = 0.659555
        28        29        30        53     9        0.000000        0.454883         1    ;  uncertainty k = 0.730224
        28        29        30        53     9      180.000000       22.194024         2    ;  uncertainty k = 0.400805
        28        29        30        53     9        0.000000        1.313557         3    ;  uncertainty k = 0.571866
        28        29        30        53     9      180.000000        1.249022         4    ;  uncertainty k = 0.582511
        29        28        27        52     9        0.000000        0.954584         1    ;  uncertainty k = 0.646047
        29        28        27        52     9      180.000000       11.894322         2    ;  uncertainty k = 0.463627
        29        28        27        52     9        0.000000        1.737771         3    ;  uncertainty k = 0.520067
        29        28        27        52     9      180.000000        0.047259         4    ;  uncertainty k = 0.167579
        29        28        31        54     9        0.000000        1.398759         1    ;  uncertainty k = 0.579543
        29        28        31        54     9      180.000000       -1.134020         2    ;  uncertainty k = 0.131941
        29        28        31        54     9        0.000000        0.742560         3    ;  uncertainty k = 0.044341
        29        28        31        54     9      180.000000        0.251257         4    ;  uncertainty k = 0.037757
        29        28        31        55     9        0.000000        1.398759         1    ;  uncertainty k = 0.579543
        29        28        31        55     9      180.000000       -1.134020         2    ;  uncertainty k = 0.131941
        29        28        31        55     9        0.000000        0.742560         3    ;  uncertainty k = 0.044341
        29        28        31        55     9      180.000000        0.251257         4    ;  uncertainty k = 0.037757
        29        28        31        56     9        0.000000        1.398759         1    ;  uncertainty k = 0.579543
        29        28        31        56     9      180.000000       -1.134020         2    ;  uncertainty k = 0.131941
        29        28        31        56     9        0.000000        0.742560         3    ;  uncertainty k = 0.044341
        29        28        31        56     9      180.000000        0.251257         4    ;  uncertainty k = 0.037757
        30        26        27        52     9        0.000000        0.035627         1    ;  uncertainty k = 0.247948
        30        26        27        52     9      180.000000       10.343209         2    ;  uncertainty k = 0.302181
        30        26        27        52     9        0.000000        1.641740         3    ;  uncertainty k = 0.363922
        30        26        27        52     9      180.000000        0.590175         4    ;  uncertainty k = 0.197513
        30        29        28        31     9        0.000000        0.940625         1    ;  uncertainty k = 1.266604
        30        29        28        31     9      180.000000       13.250653         2    ;  uncertainty k = 0.325140
        30        29        28        31     9        0.000000        1.826573         3    ;  uncertainty k = 0.443301
        30        29        28        31     9      180.000000       -0.164106         4    ;  uncertainty k = 0.301747
        31        28        27        52     9        0.000000       -0.487350         1    ;  uncertainty k = 0.241959
        31        28        27        52     9      180.000000        3.133996         2    ;  uncertainty k = 0.661286
        31        28        27        52     9        0.000000        1.095626         3    ;  uncertainty k = 0.477056
        31        28        27        52     9      180.000000        0.022858         4    ;  uncertainty k = 0.192015
        32         1         4        34     9        0.000000       -0.110944         1    ;  uncertainty k = 0.103984
        32         1         4        34     9      180.000000        8.305947         2    ;  uncertainty k = 0.348628
        32         1         4        34     9        0.000000       -0.188513         3    ;  uncertainty k = 0.225744
        32         1         4        34     9      180.000000        0.324162         4    ;  uncertainty k = 0.271071
        38        15        16        39     9        0.000000       -0.013045         1    ;  uncertainty k = 0.178040
        38        15        16        39     9      180.000000        7.749499         2    ;  uncertainty k = 0.110935
        38        15        16        39     9        0.000000       -0.170352         3    ;  uncertainty k = 0.227080
        38        15        16        39     9      180.000000        0.302639         4    ;  uncertainty k = 0.156541
        41        19        20        43     9        0.000000        0.541417         1    ;  uncertainty k = 0.765548
        41        19        20        43     9      180.000000       -0.496762         2    ;  uncertainty k = 0.248173
        41        19        20        43     9        0.000000        0.124734         3    ;  uncertainty k = 0.130235
        41        19        20        43     9      180.000000       -0.002886         4    ;  uncertainty k = 0.072362
        42        19        20        43     9        0.000000        0.541417         1    ;  uncertainty k = 0.765548
        42        19        20        43     9      180.000000       -0.496762         2    ;  uncertainty k = 0.248173
        42        19        20        43     9        0.000000        0.124734         3    ;  uncertainty k = 0.130235
        42        19        20        43     9      180.000000       -0.002886         4    ;  uncertainty k = 0.072362
        43        20        21        44     9        0.000000        0.382863         1    ;  uncertainty k = 0.451842
        43        20        21        44     9      180.000000       -0.368939         2    ;  uncertainty k = 0.212330
        43        20        21        44     9        0.000000        0.066358         3    ;  uncertainty k = 0.093735
        43        20        21        44     9      180.000000        0.003508         4    ;  uncertainty k = 0.090871
        43        20        21        45     9        0.000000        0.382863         1    ;  uncertainty k = 0.451842
        43        20        21        45     9      180.000000       -0.368939         2    ;  uncertainty k = 0.212330
        43        20        21        45     9        0.000000        0.066358         3    ;  uncertainty k = 0.093735
        43        20        21        45     9      180.000000        0.003508         4    ;  uncertainty k = 0.090871
        43        20        25        50     9        0.000000        0.382863         1    ;  uncertainty k = 0.451842
        43        20        25        50     9      180.000000       -0.368939         2    ;  uncertainty k = 0.212330
        43        20        25        50     9        0.000000        0.066358         3    ;  uncertainty k = 0.093735
        43        20        25        50     9      180.000000        0.003508         4    ;  uncertainty k = 0.090871
        43        20        25        51     9        0.000000        0.382863         1    ;  uncertainty k = 0.451842
        43        20        25        51     9      180.000000       -0.368939         2    ;  uncertainty k = 0.212330
        43        20        25        51     9        0.000000        0.066358         3    ;  uncertainty k = 0.093735
        43        20        25        51     9      180.000000        0.003508         4    ;  uncertainty k = 0.090871
        44        21        22        46     9        0.000000       -1.147146         1    ;  uncertainty k = 0.682372
        44        21        22        46     9      180.000000        1.151965         2    ;  uncertainty k = 0.386368
        44        21        22        46     9        0.000000        0.109941         3    ;  uncertainty k = 0.178553
        44        21        22        46     9      180.000000       -0.382679         4    ;  uncertainty k = 0.098270
        44        21        22        47     9        0.000000       -1.147146         1    ;  uncertainty k = 0.682372
        44        21        22        47     9      180.000000        1.151965         2    ;  uncertainty k = 0.386368
        44        21        22        47     9        0.000000        0.109941         3    ;  uncertainty k = 0.178553
        44        21        22        47     9      180.000000       -0.382679         4    ;  uncertainty k = 0.098270
        45        21        22        46     9        0.000000       -1.147146         1    ;  uncertainty k = 0.682372
        45        21        22        46     9      180.000000        1.151965         2    ;  uncertainty k = 0.386368
        45        21        22        46     9        0.000000        0.109941         3    ;  uncertainty k = 0.178553
        45        21        22        46     9      180.000000       -0.382679         4    ;  uncertainty k = 0.098270
        45        21        22        47     9        0.000000       -1.147146         1    ;  uncertainty k = 0.682372
        45        21        22        47     9      180.000000        1.151965         2    ;  uncertainty k = 0.386368
        45        21        22        47     9        0.000000        0.109941         3    ;  uncertainty k = 0.178553
        45        21        22        47     9      180.000000       -0.382679         4    ;  uncertainty k = 0.098270
        48        24        25        50     9        0.000000       -1.147146         1    ;  uncertainty k = 0.682372
        48        24        25        50     9      180.000000        1.151965         2    ;  uncertainty k = 0.386368
        48        24        25        50     9        0.000000        0.109941         3    ;  uncertainty k = 0.178553
        48        24        25        50     9      180.000000       -0.382679         4    ;  uncertainty k = 0.098270
        48        24        25        51     9        0.000000       -1.147146         1    ;  uncertainty k = 0.682372
        48        24        25        51     9      180.000000        1.151965         2    ;  uncertainty k = 0.386368
        48        24        25        51     9        0.000000        0.109941         3    ;  uncertainty k = 0.178553
        48        24        25        51     9      180.000000       -0.382679         4    ;  uncertainty k = 0.098270
        49        24        25        50     9        0.000000       -1.147146         1    ;  uncertainty k = 0.682372
        49        24        25        50     9      180.000000        1.151965         2    ;  uncertainty k = 0.386368
        49        24        25        50     9        0.000000        0.109941         3    ;  uncertainty k = 0.178553
        49        24        25        50     9      180.000000       -0.382679         4    ;  uncertainty k = 0.098270
        49        24        25        51     9        0.000000       -1.147146         1    ;  uncertainty k = 0.682372
        49        24        25        51     9      180.000000        1.151965         2    ;  uncertainty k = 0.386368
        49        24        25        51     9        0.000000        0.109941         3    ;  uncertainty k = 0.178553
        49        24        25        51     9      180.000000       -0.382679         4    ;  uncertainty k = 0.098270

[ dihedrals ] ; impropers
;       ai        aj        ak        al funct           phase               k        pn
         1         2         4        32     4      180.000000        2.677854         2    ;  uncertainty k = 0.313907
         1         4        32         2     4      180.000000        2.677854         2    ;  uncertainty k = 0.313907
         1        32         2         4     4      180.000000        2.677854         2    ;  uncertainty k = 0.313907
         2         1         3        26     4      180.000000       15.387711         2    ;  uncertainty k = 0.095540
         2         3        26         1     4      180.000000       15.387711         2    ;  uncertainty k = 0.095540
         2        26         1         3     4      180.000000       15.387711         2    ;  uncertainty k = 0.095540
         3         2         6        33     4      180.000000        2.317278         2    ;  uncertainty k = 0.213595
         3         6        33         2     4      180.000000        2.317278         2    ;  uncertainty k = 0.213595
         3        33         2         6     4      180.000000        2.317278         2    ;  uncertainty k = 0.213595
         4         1         5        34     4      180.000000        5.156711         2    ;  uncertainty k = 0.147286
         4         5        34         1     4      180.000000        5.156711         2    ;  uncertainty k = 0.147286
         4        34         1         5     4      180.000000        5.156711         2    ;  uncertainty k = 0.147286
         6         3         5         7     4      180.000000        1.571835         2    ;  uncertainty k = 0.900867
         6         5         7         3     4      180.000000        1.571835         2    ;  uncertainty k = 0.900867
         6         7         3         5     4      180.000000        1.571835         2    ;  uncertainty k = 0.900867
         9         5         8        10     4      180.000000        7.128464         2    ;  uncertainty k = 0.226522
         9         8        10         5     4      180.000000        7.128464         2    ;  uncertainty k = 0.226522
         9        10         5         8     4      180.000000        7.128464         2    ;  uncertainty k = 0.226522
        10         9        11        12     4      180.000000        6.131355         2    ;  uncertainty k = 0.374886
        10        11        12         9     4      180.000000        6.131355         2    ;  uncertainty k = 0.374886
        10        12         9        11     4      180.000000        6.131355         2    ;  uncertainty k = 0.374886
        12        10        13        37     4      180.000000        0.300082         2    ;  uncertainty k = 0.671004
        12        13        37        10     4      180.000000        0.300082         2    ;  uncertainty k = 0.671004
        12        37        10        13     4      180.000000        0.300082         2    ;  uncertainty k = 0.671004
        13        12        14        18     4      180.000000        0.203680         2    ;  uncertainty k = 0.447823
        13        14        18        12     4      180.000000        0.203680         2    ;  uncertainty k = 0.447823
        13        18        12        14     4      180.000000        0.203680         2    ;  uncertainty k = 0.447823
        14        11        13        15     4      180.000000        1.547994         2    ;  uncertainty k = 0.529255
        14        13        15        11     4      180.000000        1.547994         2    ;  uncertainty k = 0.529255
        14        15        11        13     4      180.000000        1.547994         2    ;  uncertainty k = 0.529255
        15        14        16        38     4      180.000000        3.328892         2    ;  uncertainty k = 0.304190
        15        16        38        14     4      180.000000        3.328892         2    ;  uncertainty k = 0.304190
        15        38        14        16     4      180.000000        3.328892         2    ;  uncertainty k = 0.304190
        16        15        17        39     4      180.000000        3.703974         2    ;  uncertainty k = 0.231890
        16        17        39        15     4      180.000000        3.703974         2    ;  uncertainty k = 0.231890
        16        39        15        17     4      180.000000        3.703974         2    ;  uncertainty k = 0.231890
        17        16        18        19     4      180.000000        8.032837         2    ;  uncertainty k = 0.336696
        17        18        19        16     4      180.000000        8.032837         2    ;  uncertainty k = 0.336696
        17        19        16        18     4      180.000000        8.032837         2    ;  uncertainty k = 0.336696
        18        13        17        40     4      180.000000        4.453195         2    ;  uncertainty k = 0.297877
        18        17        40        13     4      180.000000        4.453195         2    ;  uncertainty k = 0.297877
        18        40        13        17     4      180.000000        4.453195         2    ;  uncertainty k = 0.297877
        26         2        27        30     4      180.000000        2.352099         2    ;  uncertainty k = 0.505237
        26        27        30         2     4      180.000000        2.352099         2    ;  uncertainty k = 0.505237
        26        30         2        27     4      180.000000        2.352099         2    ;  uncertainty k = 0.505237
        27        26        28        52     4      180.000000        0.793759         2    ;  uncertainty k = 0.736034
        27        28        52        26     4      180.000000        0.793759         2    ;  uncertainty k = 0.736034
        27        52        26        28     4      180.000000        0.793759         2    ;  uncertainty k = 0.736034
        30        26        29        53     4      180.000000        0.233838         2    ;  uncertainty k = 0.321622
        30        29        53        26     4      180.000000        0.233838         2    ;  uncertainty k = 0.321622
        30        53        26        29     4      180.000000        0.233838         2    ;  uncertainty k = 0.321622

[ pairs ]
;       ai        aj funct
         1         6     1
         1         9     1
         1        27     1
         1        30     1
         1        33     1
         2         5     1
         2         7     1
         2        28     1
         2        29     1
         2        34     1
         2        52     1
         2        53     1
         3         4     1
         3         8     1
         3         9     1
         3        27     1
         3        30     1
         3        32     1
         3        35     1
         4         7     1
         4         8     1
         4        10     1
         4        26     1
         5        11     1
         5        12     1
         5        32     1
         5        33     1
         5        35     1
         6        10     1
         6        26     1
         6        34     1
         7        10     1
         7        33     1
         8        11     1
         8        12     1
         9        13     1
         9        14     1
         9        34     1
         9        35     1
         9        36     1
         9        37     1
        10        15     1
        10        18     1
        11        16     1
        11        18     1
        11        37     1
        11        38     1
        12        15     1
        12        17     1
        12        36     1
        12        40     1
        13        16     1
        13        19     1
        13        36     1
        13        38     1
        14        17     1
        14        37     1
        14        39     1
        14        40     1
        15        18     1
        15        19     1
        15        36     1
        16        20     1
        16        40     1
        16        41     1
        16        42     1
        17        21     1
        17        25     1
        17        38     1
        17        43     1
        18        20     1
        18        37     1
        18        39     1
        18        41     1
        18        42     1
        19        22     1
        19        24     1
        19        39     1
        19        40     1
        19        44     1
        19        45     1
        19        50     1
        19        51     1
        20        23     1
        20        46     1
        20        47     1
        20        48     1
        20        49     1
        21        24     1
        21        41     1
        21        42     1
        21        50     1
        21        51     1
        22        25     1
        22        43     1
        22        48     1
        22        49     1
        23        44     1
        23        45     1
        23        50     1
        23        51     1
        24        43     1
        24        46     1
        24        47     1
        25        41     1
        25        42     1
        25        44     1
        25        45     1
        26        31     1
        26        32     1
        26        33     1
        27        53     1
        27        54     1
        27        55     1
        27        56     1
        28        53     1
        29        52     1
        29        54     1
        29        55     1
        29        56     1
        30        31     1
        30        52     1
        31        52     1
        32        34     1
        38        39     1
        41        43     1
        42        43     1
        43        44     1
        43        45     1
        43        50     1
        43        51     1
        44        46     1
        44        47     1
        45        46     1
        45        47     1
        48        50     1
        48        51     1
        49        50     1
        49        51     1
