; ITP file created by ByteFF-joint-25, 2025-07-14 11:38:27.131950

[ atomtypes ]
;name           bonded.type        at.num        mass        charge   ptype           sigma         epsilon
 c0bf                                   6      0.0000       0.00000       A     3.31515e-01     4.13415e-01    ;  uncertainty sigma = 0.000005, epsilon = 0.000555
 c1bf                                   6      0.0000       0.00000       A     3.31530e-01     4.13095e-01    ;  uncertainty sigma = 0.000010, epsilon = 0.001122
 c2bf                                   6      0.0000       0.00000       A     3.31510e-01     4.13203e-01    ;  uncertainty sigma = 0.000010, epsilon = 0.000814
 c3bf                                   6      0.0000       0.00000       A     3.31524e-01     4.13294e-01    ;  uncertainty sigma = 0.000008, epsilon = 0.000871
 c4bf                                   6      0.0000       0.00000       A     3.31522e-01     4.13336e-01    ;  uncertainty sigma = 0.000007, epsilon = 0.000636
 c5bf                                   6      0.0000       0.00000       A     3.31517e-01     4.12766e-01    ;  uncertainty sigma = 0.000014, epsilon = 0.000960
 n6bf                                   7      0.0000       0.00000       A     3.20633e-01     8.53978e-01    ;  uncertainty sigma = 0.000014, epsilon = 0.001845
 n7bf                                   7      0.0000       0.00000       A     3.38429e-01     3.93681e-01    ;  uncertainty sigma = 0.000012, epsilon = 0.000578
 c8bf                                   6      0.0000       0.00000       A     3.31525e-01     4.13030e-01    ;  uncertainty sigma = 0.000010, epsilon = 0.000939
 c9bf                                   6      0.0000       0.00000       A     3.31487e-01     4.13616e-01    ;  uncertainty sigma = 0.000020, epsilon = 0.001109
 n10bf                                  7      0.0000       0.00000       A     3.20612e-01     8.51418e-01    ;  uncertainty sigma = 0.000030, epsilon = 0.001559
 c11bf                                  6      0.0000       0.00000       A     3.31545e-01     4.13175e-01    ;  uncertainty sigma = 0.000004, epsilon = 0.000228
 c12bf                                  6      0.0000       0.00000       A     3.31513e-01     4.13679e-01    ;  uncertainty sigma = 0.000008, epsilon = 0.001038
 c13bf                                  6      0.0000       0.00000       A     3.31539e-01     4.13372e-01    ;  uncertainty sigma = 0.000002, epsilon = 0.000832
 c14bf                                  6      0.0000       0.00000       A     3.31510e-01     4.13227e-01    ;  uncertainty sigma = 0.000003, epsilon = 0.000744
 c15bf                                  6      0.0000       0.00000       A     3.31530e-01     4.13453e-01    ;  uncertainty sigma = 0.000012, epsilon = 0.000423
 c16bf                                  6      0.0000       0.00000       A     3.31639e-01     4.14074e-01    ;  uncertainty sigma = 0.000029, epsilon = 0.001725
 c17bf                                  6      0.0000       0.00000       A     3.31542e-01     4.13583e-01    ;  uncertainty sigma = 0.000009, epsilon = 0.000998
 c18bf                                  6      0.0000       0.00000       A     3.39772e-01     4.50459e-01    ;  uncertainty sigma = 0.000036, epsilon = 0.001319
 n19bf                                  7      0.0000       0.00000       A     2.58850e-01     1.06511e+01    ;  uncertainty sigma = 0.000059, epsilon = 0.000963
 c20bf                                  6      0.0000       0.00000       A     3.39748e-01     4.51339e-01    ;  uncertainty sigma = 0.000013, epsilon = 0.000962
 c21bf                                  6      0.0000       0.00000       A     3.39798e-01     4.51058e-01    ;  uncertainty sigma = 0.000016, epsilon = 0.001422
 o22bf                                  8      0.0000       0.00000       A     3.15690e-01     3.03675e-01    ;  uncertainty sigma = 0.000030, epsilon = 0.001123
 c23bf                                  6      0.0000       0.00000       A     3.39798e-01     4.51058e-01    ;  uncertainty sigma = 0.000016, epsilon = 0.001422
 c24bf                                  6      0.0000       0.00000       A     3.39748e-01     4.51339e-01    ;  uncertainty sigma = 0.000013, epsilon = 0.000962
 c25bf                                  6      0.0000       0.00000       A     3.31497e-01     4.13430e-01    ;  uncertainty sigma = 0.000016, epsilon = 0.000827
 c26bf                                  6      0.0000       0.00000       A     3.31530e-01     4.13133e-01    ;  uncertainty sigma = 0.000009, epsilon = 0.000582
 c27bf                                  6      0.0000       0.00000       A     3.31535e-01     4.13306e-01    ;  uncertainty sigma = 0.000007, epsilon = 0.000667
 n28bf                                  7      0.0000       0.00000       A     3.38406e-01     3.93394e-01    ;  uncertainty sigma = 0.000010, epsilon = 0.000710
 n29bf                                  7      0.0000       0.00000       A     3.20633e-01     8.52630e-01    ;  uncertainty sigma = 0.000025, epsilon = 0.001701
 h30bf                                  1      0.0000       0.00000       A     2.62563e-01     6.71021e-02    ;  uncertainty sigma = 0.000009, epsilon = 0.000490
 h31bf                                  1      0.0000       0.00000       A     2.62584e-01     6.71111e-02    ;  uncertainty sigma = 0.000013, epsilon = 0.000356
 h32bf                                  1      0.0000       0.00000       A     2.62559e-01     6.68904e-02    ;  uncertainty sigma = 0.000013, epsilon = 0.000443
 h33bf                                  1      0.0000       0.00000       A     1.10655e-01     4.14032e-02    ;  uncertainty sigma = 0.000071, epsilon = 0.000793
 h34bf                                  1      0.0000       0.00000       A     1.10661e-01     4.09777e-02    ;  uncertainty sigma = 0.000073, epsilon = 0.000702
 h35bf                                  1      0.0000       0.00000       A     2.62548e-01     6.71074e-02    ;  uncertainty sigma = 0.000030, epsilon = 0.000235
 h36bf                                  1      0.0000       0.00000       A     2.62571e-01     6.70381e-02    ;  uncertainty sigma = 0.000008, epsilon = 0.000473
 h37bf                                  1      0.0000       0.00000       A     2.62577e-01     6.71749e-02    ;  uncertainty sigma = 0.000013, epsilon = 0.000695
 h38bf                                  1      0.0000       0.00000       A     2.62608e-01     6.70651e-02    ;  uncertainty sigma = 0.000010, epsilon = 0.000435
 h39bf                                  1      0.0000       0.00000       A     1.88839e-01     8.73239e-02    ;  uncertainty sigma = 0.000129, epsilon = 0.001577
 h40bf                                  1      0.0000       0.00000       A     1.88839e-01     8.73239e-02    ;  uncertainty sigma = 0.000129, epsilon = 0.001577
 h41bf                                  1      0.0000       0.00000       A     1.10675e-01     4.09842e-02    ;  uncertainty sigma = 0.000166, epsilon = 0.001207
 h42bf                                  1      0.0000       0.00000       A     1.88786e-01     8.66424e-02    ;  uncertainty sigma = 0.000063, epsilon = 0.000694
 h43bf                                  1      0.0000       0.00000       A     1.88786e-01     8.66424e-02    ;  uncertainty sigma = 0.000063, epsilon = 0.000694
 h44bf                                  1      0.0000       0.00000       A     2.42217e-01     8.68912e-02    ;  uncertainty sigma = 0.000047, epsilon = 0.000725
 h45bf                                  1      0.0000       0.00000       A     2.42217e-01     8.68912e-02    ;  uncertainty sigma = 0.000047, epsilon = 0.000725
 h46bf                                  1      0.0000       0.00000       A     2.42217e-01     8.68912e-02    ;  uncertainty sigma = 0.000047, epsilon = 0.000725
 h47bf                                  1      0.0000       0.00000       A     2.42217e-01     8.68912e-02    ;  uncertainty sigma = 0.000047, epsilon = 0.000725
 h48bf                                  1      0.0000       0.00000       A     1.88786e-01     8.66424e-02    ;  uncertainty sigma = 0.000063, epsilon = 0.000694
 h49bf                                  1      0.0000       0.00000       A     1.88786e-01     8.66424e-02    ;  uncertainty sigma = 0.000063, epsilon = 0.000694
 h50bf                                  1      0.0000       0.00000       A     2.62581e-01     6.66489e-02    ;  uncertainty sigma = 0.000017, epsilon = 0.000671
 h51bf                                  1      0.0000       0.00000       A     2.53574e-01     6.72515e-02    ;  uncertainty sigma = 0.000040, epsilon = 0.000470
 h52bf                                  1      0.0000       0.00000       A     1.10676e-01     4.14690e-02    ;  uncertainty sigma = 0.000103, epsilon = 0.000964

[ moleculetype ]
;name             nrexcl
 MOL                   3

[ atoms ]
;       nr            type      resi   res      atom      cgnr      charge          mass ; qtot
         1            c0bf         1   UNL        c0         1    -0.15420       12.0110 ; qtot   -0.154
         2            c1bf         1   UNL        c1         2     0.01622       12.0110 ; qtot   -0.138
         3            c2bf         1   UNL        c2         3    -0.13427       12.0110 ; qtot   -0.272
         4            c3bf         1   UNL        c3         4    -0.04928       12.0110 ; qtot   -0.322
         5            c4bf         1   UNL        c4         5    -0.20926       12.0110 ; qtot   -0.531
         6            c5bf         1   UNL        c5         6    -0.02114       12.0110 ; qtot   -0.552
         7            n6bf         1   UNL        n6         7    -0.02413       14.0070 ; qtot   -0.576
         8            n7bf         1   UNL        n7         8    -0.50896       14.0070 ; qtot   -1.085
         9            c8bf         1   UNL        c8         9     0.42430       12.0110 ; qtot   -0.661
        10            c9bf         1   UNL        c9        10    -0.09297       12.0110 ; qtot   -0.754
        11           n10bf         1   UNL       n10        11    -0.17863       14.0070 ; qtot   -0.932
        12           c11bf         1   UNL       c11        12    -0.14624       12.0110 ; qtot   -1.079
        13           c12bf         1   UNL       c12        13    -0.09138       12.0110 ; qtot   -1.170
        14           c13bf         1   UNL       c13        14    -0.01122       12.0110 ; qtot   -1.181
        15           c14bf         1   UNL       c14        15    -0.11583       12.0110 ; qtot   -1.297
        16           c15bf         1   UNL       c15        16    -0.09384       12.0110 ; qtot   -1.391
        17           c16bf         1   UNL       c16        17    -0.21455       12.0110 ; qtot   -1.605
        18           c17bf         1   UNL       c17        18    -0.02211       12.0110 ; qtot   -1.627
        19           c18bf         1   UNL       c18        19     0.22407       12.0110 ; qtot   -1.403
        20           n19bf         1   UNL       n19        20    -0.72222       14.0070 ; qtot   -2.126
        21           c20bf         1   UNL       c20        21     0.09378       12.0110 ; qtot   -2.032
        22           c21bf         1   UNL       c21        22     0.10321       12.0110 ; qtot   -1.929
        23           o22bf         1   UNL       o22        23    -0.37175       15.9990 ; qtot   -2.300
        24           c23bf         1   UNL       c23        24     0.10321       12.0110 ; qtot   -2.197
        25           c24bf         1   UNL       c24        25     0.09378       12.0110 ; qtot   -2.103
        26           c25bf         1   UNL       c25        26    -0.03975       12.0110 ; qtot   -2.143
        27           c26bf         1   UNL       c26        27    -0.29741       12.0110 ; qtot   -2.441
        28           c27bf         1   UNL       c27        28     0.30399       12.0110 ; qtot   -2.137
        29           n28bf         1   UNL       n28        29    -0.50781       14.0070 ; qtot   -2.644
        30           n29bf         1   UNL       n29        30    -0.02458       14.0070 ; qtot   -2.669
        31           h30bf         1   UNL       h30        31     0.13877        1.0080 ; qtot   -2.530
        32           h31bf         1   UNL       h31        32     0.14450        1.0080 ; qtot   -2.386
        33           h32bf         1   UNL       h32        33     0.14904        1.0080 ; qtot   -2.237
        34           h33bf         1   UNL       h33        34     0.32964        1.0080 ; qtot   -1.907
        35           h34bf         1   UNL       h34        35     0.30972        1.0080 ; qtot   -1.597
        36           h35bf         1   UNL       h35        36     0.16185        1.0080 ; qtot   -1.435
        37           h36bf         1   UNL       h36        37     0.14571        1.0080 ; qtot   -1.290
        38           h37bf         1   UNL       h37        38     0.14052        1.0080 ; qtot   -1.149
        39           h38bf         1   UNL       h38        39     0.14264        1.0080 ; qtot   -1.007
        40           h39bf         1   UNL       h39        40     0.09938        1.0080 ; qtot   -0.907
        41           h40bf         1   UNL       h40        41     0.09938        1.0080 ; qtot   -0.808
        42           h41bf         1   UNL       h41        42     0.45509        1.0080 ; qtot   -0.353
        43           h42bf         1   UNL       h42        43     0.10927        1.0080 ; qtot   -0.243
        44           h43bf         1   UNL       h43        44     0.10927        1.0080 ; qtot   -0.134
        45           h44bf         1   UNL       h44        45     0.09758        1.0080 ; qtot   -0.037
        46           h45bf         1   UNL       h45        46     0.09758        1.0080 ; qtot    0.061
        47           h46bf         1   UNL       h46        47     0.09758        1.0080 ; qtot    0.159
        48           h47bf         1   UNL       h47        48     0.09758        1.0080 ; qtot    0.256
        49           h48bf         1   UNL       h48        49     0.10927        1.0080 ; qtot    0.365
        50           h49bf         1   UNL       h49        50     0.10927        1.0080 ; qtot    0.475
        51           h50bf         1   UNL       h50        51     0.16371        1.0080 ; qtot    0.638
        52           h51bf         1   UNL       h51        52     0.03964        1.0080 ; qtot    0.678
        53           h52bf         1   UNL       h52        53     0.32198        1.0080 ; qtot    1.000

[ bonds ]
;       ai        aj funct               r               k
         1         2     1        0.142211   336120.250781    ;  uncertainty r = 0.000213, k = 6.653446
         1         4     1        0.138519   362823.639941    ;  uncertainty r = 0.000083, k = 4.145592
         1        31     1        0.108805   335670.031543    ;  uncertainty r = 0.000012, k = 1.582236
         2         3     1        0.139273   356401.286768    ;  uncertainty r = 0.000078, k = 3.462890
         2        26     1        0.146200   275073.739746    ;  uncertainty r = 0.000080, k = 6.224049
         3         6     1        0.139823   363367.044092    ;  uncertainty r = 0.000041, k = 4.399454
         3        32     1        0.108887   335740.181982    ;  uncertainty r = 0.000042, k = 1.176634
         4         5     1        0.140369   357221.257812    ;  uncertainty r = 0.000063, k = 2.905502
         4        33     1        0.108692   334680.621777    ;  uncertainty r = 0.000026, k = 1.174914
         5         6     1        0.141711   394788.465283    ;  uncertainty r = 0.000078, k = 7.234003
         5         9     1        0.144344   226895.327051    ;  uncertainty r = 0.000037, k = 15.828667
         6         7     1        0.137619   296072.751562    ;  uncertainty r = 0.000035, k = 10.573662
         7         8     1        0.136151   293880.084277    ;  uncertainty r = 0.000063, k = 4.069476
         7        34     1        0.101079   415253.904736    ;  uncertainty r = 0.000031, k = 3.049052
         8         9     1        0.133460   447078.480273    ;  uncertainty r = 0.000096, k = 8.272837
         9        10     1        0.144794   289844.837939    ;  uncertainty r = 0.000097, k = 8.113485
        10        11     1        0.139278   314563.610645    ;  uncertainty r = 0.000138, k = 6.375764
        10        12     1        0.138557   411550.487598    ;  uncertainty r = 0.000054, k = 8.789488
        11        14     1        0.138425   328598.831494    ;  uncertainty r = 0.000062, k = 8.931475
        11        35     1        0.101173   411616.066895    ;  uncertainty r = 0.000057, k = 2.842789
        12        13     1        0.143692   255790.055566    ;  uncertainty r = 0.000105, k = 4.554133
        12        36     1        0.108254   339128.037061    ;  uncertainty r = 0.000025, k = 2.039581
        13        14     1        0.142749   371889.109473    ;  uncertainty r = 0.000072, k = 7.022474
        13        18     1        0.140315   369064.066748    ;  uncertainty r = 0.000085, k = 6.344517
        14        15     1        0.139681   367411.177344    ;  uncertainty r = 0.000052, k = 3.723678
        15        16     1        0.139020   366168.899121    ;  uncertainty r = 0.000059, k = 2.515093
        15        37     1        0.108877   336609.592871    ;  uncertainty r = 0.000015, k = 1.582506
        16        17     1        0.141750   334230.760059    ;  uncertainty r = 0.000211, k = 11.244450
        16        38     1        0.108854   333323.784082    ;  uncertainty r = 0.000014, k = 3.098911
        17        18     1        0.139748   350982.567529    ;  uncertainty r = 0.000152, k = 5.394295
        17        19     1        0.150066   226505.630762    ;  uncertainty r = 0.000119, k = 17.084016
        18        39     1        0.108909   332925.251953    ;  uncertainty r = 0.000037, k = 2.830692
        19        20     1        0.154032   175360.738062    ;  uncertainty r = 0.000279, k = 41.374625
        19        40     1        0.109174   310043.772119    ;  uncertainty r = 0.000035, k = 3.754961
        19        41     1        0.109174   310043.772119    ;  uncertainty r = 0.000035, k = 3.754961
        20        21     1        0.151337   184516.672803    ;  uncertainty r = 0.000074, k = 18.484671
        20        25     1        0.151337   184516.672803    ;  uncertainty r = 0.000074, k = 18.484671
        20        42     1        0.102745   387892.092285    ;  uncertainty r = 0.000058, k = 6.193569
        21        22     1        0.153800   204467.130908    ;  uncertainty r = 0.000034, k = 7.829418
        21        43     1        0.109108   313348.222998    ;  uncertainty r = 0.000020, k = 2.332486
        21        44     1        0.109108   313348.222998    ;  uncertainty r = 0.000020, k = 2.332486
        22        23     1        0.142192   284466.492871    ;  uncertainty r = 0.000046, k = 11.006376
        22        45     1        0.109532   312372.450049    ;  uncertainty r = 0.000033, k = 7.346983
        22        46     1        0.109532   312372.450049    ;  uncertainty r = 0.000033, k = 7.346983
        23        24     1        0.142192   284466.492871    ;  uncertainty r = 0.000046, k = 11.006376
        24        25     1        0.153800   204467.130908    ;  uncertainty r = 0.000034, k = 7.829418
        24        47     1        0.109532   312372.450049    ;  uncertainty r = 0.000033, k = 7.346983
        24        48     1        0.109532   312372.450049    ;  uncertainty r = 0.000033, k = 7.346983
        25        49     1        0.109108   313348.222998    ;  uncertainty r = 0.000020, k = 2.332486
        25        50     1        0.109108   313348.222998    ;  uncertainty r = 0.000020, k = 2.332486
        26        27     1        0.139085   410002.453564    ;  uncertainty r = 0.000034, k = 7.257796
        26        30     1        0.137076   274787.009082    ;  uncertainty r = 0.000061, k = 14.518710
        27        28     1        0.141790   254663.460449    ;  uncertainty r = 0.000041, k = 6.847027
        27        51     1        0.108341   339475.980176    ;  uncertainty r = 0.000028, k = 2.388046
        28        29     1        0.133673   462570.210156    ;  uncertainty r = 0.000041, k = 6.927267
        28        52     1        0.108447   337237.958984    ;  uncertainty r = 0.000017, k = 2.255295
        29        30     1        0.135133   306032.607275    ;  uncertainty r = 0.000024, k = 8.097701
        30        53     1        0.101173   417547.622363    ;  uncertainty r = 0.000046, k = 5.412288

[ angles ]
;       ai        aj        ak funct           theta             cth
         1         2         3     1      123.478554      416.261522    ;  uncertainty theta = 0.004512, k = 0.105065
         1         2        26     1      120.023544      436.549319    ;  uncertainty theta = 0.002710, k = 0.052950
         1         4         5     1      119.165024      540.631140    ;  uncertainty theta = 0.001721, k = 0.057615
         1         4        33     1      120.780907      283.962346    ;  uncertainty theta = 0.001080, k = 0.077843
         2         1         4     1      123.119957      526.388966    ;  uncertainty theta = 0.003988, k = 0.082524
         2         1        31     1      118.155434      282.678372    ;  uncertainty theta = 0.001732, k = 0.072718
         2         3         6     1      116.762474      518.683399    ;  uncertainty theta = 0.004326, k = 0.081939
         2         3        32     1      120.215775      276.284901    ;  uncertainty theta = 0.002735, k = 0.079257
         2        26        27     1      132.927902      352.335179    ;  uncertainty theta = 0.003957, k = 0.207118
         2        26        30     1      121.341164      404.408856    ;  uncertainty theta = 0.003763, k = 0.088230
         3         2        26     1      120.263145      419.526889    ;  uncertainty theta = 0.004278, k = 0.173453
         3         6         5     1      122.072998      372.526350    ;  uncertainty theta = 0.005007, k = 0.238273
         3         6         7     1      129.480225      394.961690    ;  uncertainty theta = 0.002900, k = 0.172154
         4         1        31     1      119.333496      298.428256    ;  uncertainty theta = 0.002349, k = 0.027152
         4         5         6     1      117.060547      397.384715    ;  uncertainty theta = 0.004655, k = 0.110795
         4         5         9     1      131.429764      363.388821    ;  uncertainty theta = 0.004126, k = 0.266657
         5         4        33     1      121.161743      280.332022    ;  uncertainty theta = 0.001244, k = 0.069772
         5         6         7     1      105.491127      654.561122    ;  uncertainty theta = 0.003938, k = 0.148136
         5         9         8     1      113.169456      813.213543    ;  uncertainty theta = 0.003665, k = 0.125410
         5         9        10     1      127.387650      329.627262    ;  uncertainty theta = 0.008479, k = 0.184424
         6         3        32     1      122.179665      296.049602    ;  uncertainty theta = 0.001001, k = 0.073636
         6         5         9     1      103.846886      753.180140    ;  uncertainty theta = 0.006166, k = 0.175694
         6         7         8     1      108.888550     1002.581104    ;  uncertainty theta = 0.004032, k = 0.029639
         6         7        34     1      116.061081      284.335954    ;  uncertainty theta = 0.006406, k = 0.100766
         7         8         9     1      109.048363      921.489546    ;  uncertainty theta = 0.003583, k = 0.165241
         8         7        34     1      108.267250      346.908703    ;  uncertainty theta = 0.005338, k = 0.074888
         8         9        10     1      120.762985      422.043699    ;  uncertainty theta = 0.004996, k = 0.118777
         9        10        11     1      119.132584      397.104668    ;  uncertainty theta = 0.005186, k = 0.178000
         9        10        12     1      128.640167      347.261370    ;  uncertainty theta = 0.004833, k = 0.168064
        10        11        14     1      106.165138      854.002691    ;  uncertainty theta = 0.002753, k = 0.085041
        10        11        35     1      116.293541      283.584141    ;  uncertainty theta = 0.006065, k = 0.113643
        10        12        13     1      107.187729      787.754258    ;  uncertainty theta = 0.002699, k = 0.072143
        10        12        36     1      123.161888      244.573158    ;  uncertainty theta = 0.003527, k = 0.152526
        11        10        12     1      111.264282      650.558244    ;  uncertainty theta = 0.002902, k = 0.165799
        11        14        13     1      108.242752      705.816974    ;  uncertainty theta = 0.002548, k = 0.146960
        11        14        15     1      129.553223      399.783192    ;  uncertainty theta = 0.001405, k = 0.079201
        12        13        14     1      106.846535      662.344706    ;  uncertainty theta = 0.001346, k = 0.176005
        12        13        18     1      132.347778      372.482490    ;  uncertainty theta = 0.003209, k = 0.146270
        13        12        36     1      124.819275      255.898052    ;  uncertainty theta = 0.003779, k = 0.072933
        13        14        15     1      119.718323      387.749499    ;  uncertainty theta = 0.002902, k = 0.065974
        13        18        17     1      119.763710      543.188936    ;  uncertainty theta = 0.005094, k = 0.209394
        13        18        39     1      120.935867      304.812789    ;  uncertainty theta = 0.002476, k = 0.040876
        14        11        35     1      116.981216      292.079827    ;  uncertainty theta = 0.005273, k = 0.076356
        14        13        18     1      116.553329      410.743879    ;  uncertainty theta = 0.005419, k = 0.156523
        14        15        16     1      117.036095      522.748204    ;  uncertainty theta = 0.003091, k = 0.092514
        14        15        37     1      122.463211      292.399360    ;  uncertainty theta = 0.001064, k = 0.070309
        15        16        17     1      123.551590      507.233644    ;  uncertainty theta = 0.008012, k = 0.030918
        15        16        38     1      119.046936      295.375869    ;  uncertainty theta = 0.001171, k = 0.111099
        16        15        37     1      120.796852      284.886821    ;  uncertainty theta = 0.001274, k = 0.066583
        16        17        18     1      124.084671      457.660305    ;  uncertainty theta = 0.007359, k = 0.143504
        16        17        19     1      118.652054      421.351515    ;  uncertainty theta = 0.000790, k = 0.176242
        17        16        38     1      118.020508      280.232140    ;  uncertainty theta = 0.003100, k = 0.193177
        17        18        39     1      119.015297      275.001023    ;  uncertainty theta = 0.004327, k = 0.205861
        17        19        20     1      112.857346      643.128414    ;  uncertainty theta = 0.003786, k = 0.139248
        17        19        40     1      109.916611      412.560780    ;  uncertainty theta = 0.002545, k = 0.136998
        17        19        41     1      109.916611      412.560780    ;  uncertainty theta = 0.002545, k = 0.136998
        18        17        19     1      118.906265      425.049831    ;  uncertainty theta = 0.002548, k = 0.081352
        19        20        21     1      112.292015      595.968651    ;  uncertainty theta = 0.005827, k = 0.123671
        19        20        25     1      112.292015      595.968651    ;  uncertainty theta = 0.005827, k = 0.123671
        19        20        42     1      107.018234      430.387949    ;  uncertainty theta = 0.004140, k = 0.098855
        20        19        40     1      105.749001      451.068954    ;  uncertainty theta = 0.004251, k = 0.195616
        20        19        41     1      105.749001      451.068954    ;  uncertainty theta = 0.004251, k = 0.195616
        20        21        22     1      109.121643      708.758530    ;  uncertainty theta = 0.003250, k = 0.245764
        20        21        43     1      106.715370      463.948180    ;  uncertainty theta = 0.002873, k = 0.076221
        20        21        44     1      106.715370      463.948180    ;  uncertainty theta = 0.002873, k = 0.076221
        20        25        24     1      109.121643      708.758530    ;  uncertainty theta = 0.003250, k = 0.245764
        20        25        49     1      106.715370      463.948180    ;  uncertainty theta = 0.002873, k = 0.076221
        20        25        50     1      106.715370      463.948180    ;  uncertainty theta = 0.002873, k = 0.076221
        21        20        25     1      110.525803      650.712169    ;  uncertainty theta = 0.004226, k = 0.215373
        21        20        42     1      107.120193      445.672452    ;  uncertainty theta = 0.004799, k = 0.196226
        21        22        23     1      110.374329      683.657913    ;  uncertainty theta = 0.002461, k = 0.195633
        21        22        45     1      109.479080      413.757162    ;  uncertainty theta = 0.003398, k = 0.063036
        21        22        46     1      109.479080      413.757162    ;  uncertainty theta = 0.003398, k = 0.063036
        22        21        43     1      110.953720      408.473949    ;  uncertainty theta = 0.001839, k = 0.089925
        22        21        44     1      110.953720      408.473949    ;  uncertainty theta = 0.001839, k = 0.089925
        22        23        24     1      107.073715      567.128700    ;  uncertainty theta = 0.002990, k = 0.169130
        23        22        45     1      107.793442      460.721470    ;  uncertainty theta = 0.002521, k = 0.092228
        23        22        46     1      107.793442      460.721470    ;  uncertainty theta = 0.002521, k = 0.092228
        23        24        25     1      110.374329      683.657913    ;  uncertainty theta = 0.002461, k = 0.195633
        23        24        47     1      107.793442      460.721470    ;  uncertainty theta = 0.002521, k = 0.092228
        23        24        48     1      107.793442      460.721470    ;  uncertainty theta = 0.002521, k = 0.092228
        24        25        49     1      110.953720      408.473949    ;  uncertainty theta = 0.001839, k = 0.089925
        24        25        50     1      110.953720      408.473949    ;  uncertainty theta = 0.001839, k = 0.089925
        25        20        42     1      107.120193      445.672452    ;  uncertainty theta = 0.004799, k = 0.196226
        25        24        47     1      109.479080      413.757162    ;  uncertainty theta = 0.003398, k = 0.063036
        25        24        48     1      109.479080      413.757162    ;  uncertainty theta = 0.003398, k = 0.063036
        26        27        28     1      104.042702      765.115674    ;  uncertainty theta = 0.003332, k = 0.141853
        26        27        51     1      124.515060      246.640259    ;  uncertainty theta = 0.002115, k = 0.077628
        26        30        29     1      110.192307     1011.133865    ;  uncertainty theta = 0.003108, k = 0.091127
        26        30        53     1      116.093300      284.135168    ;  uncertainty theta = 0.005947, k = 0.150103
        27        26        30     1      107.173622      648.980562    ;  uncertainty theta = 0.003326, k = 0.197973
        27        28        29     1      112.844803      870.484150    ;  uncertainty theta = 0.002217, k = 0.140016
        27        28        52     1      126.258217      244.518078    ;  uncertainty theta = 0.003404, k = 0.076415
        28        27        51     1      124.677002      254.419374    ;  uncertainty theta = 0.001819, k = 0.094225
        28        29        30     1      105.852821      926.847934    ;  uncertainty theta = 0.003305, k = 0.125972
        29        28        52     1      118.722412      284.565309    ;  uncertainty theta = 0.002163, k = 0.083433
        29        30        53     1      109.085617      344.931588    ;  uncertainty theta = 0.003701, k = 0.012503
        40        19        41     1      106.676773      319.464003    ;  uncertainty theta = 0.003392, k = 0.031629
        43        21        44     1      108.019493      323.673476    ;  uncertainty theta = 0.003761, k = 0.066194
        45        22        46     1      107.590454      318.795186    ;  uncertainty theta = 0.003074, k = 0.085570
        47        24        48     1      107.590454      318.795186    ;  uncertainty theta = 0.003074, k = 0.085570
        49        25        50     1      108.019493      323.673476    ;  uncertainty theta = 0.003761, k = 0.066194

[ dihedrals ] ; propers for gromacs 4.5 or higher, use funct 9
;       ai        aj        ak        al funct           phase               k        pn
         1         2         3         6     9        0.000000        0.084209         1    ;  uncertainty k = 0.107505
         1         2         3         6     9      180.000000       13.858676         2    ;  uncertainty k = 0.312841
         1         2         3         6     9        0.000000        0.136834         3    ;  uncertainty k = 0.121481
         1         2         3         6     9      180.000000        0.872924         4    ;  uncertainty k = 0.277005
         1         2         3        32     9        0.000000        0.283135         1    ;  uncertainty k = 0.233039
         1         2         3        32     9      180.000000        7.759629         2    ;  uncertainty k = 0.719078
         1         2         3        32     9        0.000000        1.615819         3    ;  uncertainty k = 0.102404
         1         2         3        32     9      180.000000        1.725064         4    ;  uncertainty k = 0.297826
         1         2        26        27     9        0.000000        0.237478         1    ;  uncertainty k = 0.402517
         1         2        26        27     9      180.000000        2.718219         2    ;  uncertainty k = 0.157674
         1         2        26        27     9        0.000000        0.248040         3    ;  uncertainty k = 0.129678
         1         2        26        27     9      180.000000       -0.130188         4    ;  uncertainty k = 0.083286
         1         2        26        30     9        0.000000        0.550141         1    ;  uncertainty k = 0.651965
         1         2        26        30     9      180.000000        3.925794         2    ;  uncertainty k = 0.184674
         1         2        26        30     9        0.000000        0.591521         3    ;  uncertainty k = 0.171005
         1         2        26        30     9      180.000000        0.010620         4    ;  uncertainty k = 0.097204
         1         4         5         6     9        0.000000        0.121174         1    ;  uncertainty k = 0.372701
         1         4         5         6     9      180.000000       13.538288         2    ;  uncertainty k = 0.279919
         1         4         5         6     9        0.000000       -1.846681         3    ;  uncertainty k = 0.651484
         1         4         5         6     9      180.000000        0.679738         4    ;  uncertainty k = 0.326311
         1         4         5         9     9        0.000000        0.295668         1    ;  uncertainty k = 0.349417
         1         4         5         9     9      180.000000        8.600689         2    ;  uncertainty k = 0.472920
         1         4         5         9     9        0.000000        0.658343         3    ;  uncertainty k = 0.467817
         1         4         5         9     9      180.000000        1.285058         4    ;  uncertainty k = 0.123651
         2         1         4         5     9        0.000000       -0.014243         1    ;  uncertainty k = 0.244458
         2         1         4         5     9      180.000000       16.479990         2    ;  uncertainty k = 0.342335
         2         1         4         5     9        0.000000       -0.244500         3    ;  uncertainty k = 0.486064
         2         1         4         5     9      180.000000        0.722130         4    ;  uncertainty k = 0.337106
         2         1         4        33     9        0.000000       -0.014637         1    ;  uncertainty k = 0.188627
         2         1         4        33     9      180.000000        9.223156         2    ;  uncertainty k = 0.410474
         2         1         4        33     9        0.000000        1.444458         3    ;  uncertainty k = 0.208666
         2         1         4        33     9      180.000000        1.876139         4    ;  uncertainty k = 0.311158
         2         3         6         5     9        0.000000        0.008604         1    ;  uncertainty k = 0.254736
         2         3         6         5     9      180.000000       12.377001         2    ;  uncertainty k = 0.197546
         2         3         6         5     9        0.000000       -1.350101         3    ;  uncertainty k = 0.634883
         2         3         6         5     9      180.000000        0.715842         4    ;  uncertainty k = 0.264911
         2         3         6         7     9        0.000000        0.055875         1    ;  uncertainty k = 0.138791
         2         3         6         7     9      180.000000       10.686745         2    ;  uncertainty k = 0.633989
         2         3         6         7     9        0.000000        0.854501         3    ;  uncertainty k = 0.241735
         2         3         6         7     9      180.000000        1.235416         4    ;  uncertainty k = 0.341641
         2        26        27        28     9        0.000000        0.807598         1    ;  uncertainty k = 0.730982
         2        26        27        28     9      180.000000       12.648888         2    ;  uncertainty k = 0.253278
         2        26        27        28     9        0.000000        1.664275         3    ;  uncertainty k = 0.079456
         2        26        27        28     9      180.000000        0.649734         4    ;  uncertainty k = 0.272814
         2        26        27        51     9        0.000000        0.588044         1    ;  uncertainty k = 0.652280
         2        26        27        51     9      180.000000        6.606641         2    ;  uncertainty k = 0.624804
         2        26        27        51     9        0.000000        1.465990         3    ;  uncertainty k = 0.530073
         2        26        27        51     9      180.000000        0.418192         4    ;  uncertainty k = 0.188628
         2        26        30        29     9        0.000000        0.677838         1    ;  uncertainty k = 0.879265
         2        26        30        29     9      180.000000       13.233642         2    ;  uncertainty k = 0.422108
         2        26        30        29     9        0.000000        1.242035         3    ;  uncertainty k = 0.746404
         2        26        30        29     9      180.000000       -0.276061         4    ;  uncertainty k = 0.161709
         2        26        30        53     9        0.000000        0.646554         1    ;  uncertainty k = 1.032642
         2        26        30        53     9      180.000000        1.959888         2    ;  uncertainty k = 1.063874
         2        26        30        53     9        0.000000        1.109605         3    ;  uncertainty k = 0.641876
         2        26        30        53     9      180.000000       -0.028674         4    ;  uncertainty k = 0.176205
         3         2         1         4     9        0.000000       -0.056857         1    ;  uncertainty k = 0.236918
         3         2         1         4     9      180.000000        8.556903         2    ;  uncertainty k = 0.418661
         3         2         1         4     9        0.000000       -0.045812         3    ;  uncertainty k = 0.379109
         3         2         1         4     9      180.000000        1.081229         4    ;  uncertainty k = 0.225350
         3         2         1        31     9        0.000000       -0.195179         1    ;  uncertainty k = 0.227355
         3         2         1        31     9      180.000000        6.129074         2    ;  uncertainty k = 0.758461
         3         2         1        31     9        0.000000        1.291150         3    ;  uncertainty k = 0.172396
         3         2         1        31     9      180.000000        1.476139         4    ;  uncertainty k = 0.245018
         3         2        26        27     9        0.000000        0.298265         1    ;  uncertainty k = 0.286680
         3         2        26        27     9      180.000000        2.709520         2    ;  uncertainty k = 0.152756
         3         2        26        27     9        0.000000        0.414117         3    ;  uncertainty k = 0.185562
         3         2        26        27     9      180.000000       -0.158918         4    ;  uncertainty k = 0.111850
         3         2        26        30     9        0.000000        0.268057         1    ;  uncertainty k = 0.622869
         3         2        26        30     9      180.000000        3.670630         2    ;  uncertainty k = 0.318875
         3         2        26        30     9        0.000000        0.579920         3    ;  uncertainty k = 0.299378
         3         2        26        30     9      180.000000       -0.015276         4    ;  uncertainty k = 0.113839
         3         6         5         4     9        0.000000       -0.686332         1    ;  uncertainty k = 0.914159
         3         6         5         4     9      180.000000        7.325484         2    ;  uncertainty k = 0.403229
         3         6         5         4     9        0.000000        0.212668         3    ;  uncertainty k = 0.208476
         3         6         5         4     9      180.000000        1.010038         4    ;  uncertainty k = 0.347146
         3         6         5         9     9        0.000000        0.011208         1    ;  uncertainty k = 0.423579
         3         6         5         9     9      180.000000        7.116189         2    ;  uncertainty k = 0.460311
         3         6         5         9     9        0.000000        0.245170         3    ;  uncertainty k = 0.395577
         3         6         5         9     9      180.000000        1.313965         4    ;  uncertainty k = 0.383524
         3         6         7         8     9        0.000000        0.908191         1    ;  uncertainty k = 0.776306
         3         6         7         8     9      180.000000        6.976923         2    ;  uncertainty k = 0.279082
         3         6         7         8     9        0.000000        0.713561         3    ;  uncertainty k = 0.391673
         3         6         7         8     9      180.000000        0.307861         4    ;  uncertainty k = 0.248147
         3         6         7        34     9        0.000000        2.032075         1    ;  uncertainty k = 1.103996
         3         6         7        34     9      180.000000        1.610781         2    ;  uncertainty k = 0.738724
         3         6         7        34     9        0.000000        1.297428         3    ;  uncertainty k = 0.546802
         3         6         7        34     9      180.000000        0.127673         4    ;  uncertainty k = 0.131725
         4         1         2        26     9        0.000000       -0.146699         1    ;  uncertainty k = 0.364824
         4         1         2        26     9      180.000000        7.979592         2    ;  uncertainty k = 0.529458
         4         1         2        26     9        0.000000        1.242933         3    ;  uncertainty k = 0.314334
         4         1         2        26     9      180.000000        1.700284         4    ;  uncertainty k = 0.219650
         4         5         6         7     9        0.000000       -0.085669         1    ;  uncertainty k = 0.499990
         4         5         6         7     9      180.000000        8.403263         2    ;  uncertainty k = 0.227706
         4         5         6         7     9        0.000000       -0.179444         3    ;  uncertainty k = 0.475445
         4         5         6         7     9      180.000000        1.227327         4    ;  uncertainty k = 0.355300
         4         5         9         8     9        0.000000        0.852426         1    ;  uncertainty k = 0.432011
         4         5         9         8     9      180.000000        6.477104         2    ;  uncertainty k = 0.562924
         4         5         9         8     9        0.000000        0.390534         3    ;  uncertainty k = 0.255814
         4         5         9         8     9      180.000000        0.947383         4    ;  uncertainty k = 0.228398
         4         5         9        10     9        0.000000        0.160331         1    ;  uncertainty k = 1.187342
         4         5         9        10     9      180.000000        4.852128         2    ;  uncertainty k = 1.251498
         4         5         9        10     9        0.000000        1.392649         3    ;  uncertainty k = 0.170961
         4         5         9        10     9      180.000000        0.059510         4    ;  uncertainty k = 0.263024
         5         4         1        31     9        0.000000        0.087596         1    ;  uncertainty k = 0.318657
         5         4         1        31     9      180.000000       11.108860         2    ;  uncertainty k = 0.330786
         5         4         1        31     9        0.000000        1.507550         3    ;  uncertainty k = 0.311735
         5         4         1        31     9      180.000000        1.805993         4    ;  uncertainty k = 0.312318
         5         6         3        32     9        0.000000        0.154372         1    ;  uncertainty k = 0.277889
         5         6         3        32     9      180.000000        6.702545         2    ;  uncertainty k = 1.322373
         5         6         3        32     9        0.000000        1.363289         3    ;  uncertainty k = 0.150081
         5         6         3        32     9      180.000000        1.143568         4    ;  uncertainty k = 0.400251
         5         6         7         8     9        0.000000        0.362890         1    ;  uncertainty k = 0.411019
         5         6         7         8     9      180.000000       17.584562         2    ;  uncertainty k = 1.150206
         5         6         7         8     9        0.000000       -8.152929         3    ;  uncertainty k = 1.186273
         5         6         7         8     9      180.000000        0.692957         4    ;  uncertainty k = 0.507120
         5         6         7        34     9        0.000000        4.448589         1    ;  uncertainty k = 1.695036
         5         6         7        34     9      180.000000        5.763414         2    ;  uncertainty k = 1.327684
         5         6         7        34     9        0.000000        1.355466         3    ;  uncertainty k = 0.242496
         5         6         7        34     9      180.000000        0.057767         4    ;  uncertainty k = 0.146448
         5         9         8         7     9        0.000000       -0.152463         1    ;  uncertainty k = 0.527529
         5         9         8         7     9      180.000000       23.103862         2    ;  uncertainty k = 0.273884
         5         9         8         7     9        0.000000       -3.597325         3    ;  uncertainty k = 0.900478
         5         9         8         7     9      180.000000        2.077250         4    ;  uncertainty k = 0.560504
         5         9        10        11     9        0.000000        1.903801         1    ;  uncertainty k = 0.991191
         5         9        10        11     9      180.000000        2.852513         2    ;  uncertainty k = 0.311803
         5         9        10        11     9        0.000000        0.907814         3    ;  uncertainty k = 0.214036
         5         9        10        11     9      180.000000       -0.068704         4    ;  uncertainty k = 0.129687
         5         9        10        12     9        0.000000        0.295894         1    ;  uncertainty k = 0.984650
         5         9        10        12     9      180.000000        2.348433         2    ;  uncertainty k = 0.289649
         5         9        10        12     9        0.000000        0.481515         3    ;  uncertainty k = 0.178789
         5         9        10        12     9      180.000000        0.001695         4    ;  uncertainty k = 0.099466
         6         3         2        26     9        0.000000        0.172419         1    ;  uncertainty k = 0.508007
         6         3         2        26     9      180.000000       12.824974         2    ;  uncertainty k = 0.396830
         6         3         2        26     9        0.000000        1.348080         3    ;  uncertainty k = 0.344591
         6         3         2        26     9      180.000000        1.253106         4    ;  uncertainty k = 0.294738
         6         5         4        33     9        0.000000        0.071381         1    ;  uncertainty k = 0.513456
         6         5         4        33     9      180.000000        7.623915         2    ;  uncertainty k = 0.923381
         6         5         4        33     9        0.000000        1.289720         3    ;  uncertainty k = 0.357738
         6         5         4        33     9      180.000000        1.129009         4    ;  uncertainty k = 0.451043
         6         5         9         8     9        0.000000        0.493903         1    ;  uncertainty k = 0.477682
         6         5         9         8     9      180.000000       13.343390         2    ;  uncertainty k = 0.812667
         6         5         9         8     9        0.000000      -10.577630         3    ;  uncertainty k = 1.860044
         6         5         9         8     9      180.000000        2.004810         4    ;  uncertainty k = 0.451090
         6         5         9        10     9        0.000000        1.021973         1    ;  uncertainty k = 1.836626
         6         5         9        10     9      180.000000        9.371444         2    ;  uncertainty k = 0.384887
         6         5         9        10     9        0.000000        1.290823         3    ;  uncertainty k = 0.287772
         6         5         9        10     9      180.000000        0.450083         4    ;  uncertainty k = 0.279727
         6         7         8         9     9        0.000000       -0.773698         1    ;  uncertainty k = 0.775618
         6         7         8         9     9      180.000000       17.531686         2    ;  uncertainty k = 0.707083
         6         7         8         9     9        0.000000       -4.728717         3    ;  uncertainty k = 1.222735
         6         7         8         9     9      180.000000        1.002455         4    ;  uncertainty k = 0.566518
         7         6         3        32     9        0.000000        0.253220         1    ;  uncertainty k = 0.473774
         7         6         3        32     9      180.000000        5.681972         2    ;  uncertainty k = 1.067531
         7         6         3        32     9        0.000000        1.168823         3    ;  uncertainty k = 0.295897
         7         6         3        32     9      180.000000        0.863995         4    ;  uncertainty k = 0.452373
         7         6         5         9     9        0.000000       -0.428633         1    ;  uncertainty k = 0.140144
         7         6         5         9     9      180.000000       12.688038         2    ;  uncertainty k = 0.765822
         7         6         5         9     9        0.000000       -3.932330         3    ;  uncertainty k = 1.506369
         7         6         5         9     9      180.000000        1.552429         4    ;  uncertainty k = 0.512246
         7         8         9        10     9        0.000000        0.075600         1    ;  uncertainty k = 0.462753
         7         8         9        10     9      180.000000       25.017677         2    ;  uncertainty k = 0.430608
         7         8         9        10     9        0.000000        1.726979         3    ;  uncertainty k = 0.539591
         7         8         9        10     9      180.000000        1.073174         4    ;  uncertainty k = 0.433352
         8         9        10        11     9        0.000000        0.781710         1    ;  uncertainty k = 0.994313
         8         9        10        11     9      180.000000        4.218386         2    ;  uncertainty k = 0.146827
         8         9        10        11     9        0.000000        0.456255         3    ;  uncertainty k = 0.336140
         8         9        10        11     9      180.000000        0.006739         4    ;  uncertainty k = 0.109076
         8         9        10        12     9        0.000000        1.294517         1    ;  uncertainty k = 0.682896
         8         9        10        12     9      180.000000        3.396277         2    ;  uncertainty k = 0.207658
         8         9        10        12     9        0.000000        1.007984         3    ;  uncertainty k = 0.211819
         8         9        10        12     9      180.000000       -0.027329         4    ;  uncertainty k = 0.091070
         9         5         4        33     9        0.000000        0.283642         1    ;  uncertainty k = 0.495595
         9         5         4        33     9      180.000000        5.529343         2    ;  uncertainty k = 0.401878
         9         5         4        33     9        0.000000        1.131818         3    ;  uncertainty k = 0.095211
         9         5         4        33     9      180.000000        0.618215         4    ;  uncertainty k = 0.289755
         9         8         7        34     9        0.000000        3.342230         1    ;  uncertainty k = 2.444709
         9         8         7        34     9      180.000000       12.205419         2    ;  uncertainty k = 0.276133
         9         8         7        34     9        0.000000        1.618226         3    ;  uncertainty k = 1.032837
         9         8         7        34     9      180.000000       -0.142384         4    ;  uncertainty k = 0.501616
         9        10        11        14     9        0.000000        0.972876         1    ;  uncertainty k = 0.747688
         9        10        11        14     9      180.000000        9.072037         2    ;  uncertainty k = 0.685183
         9        10        11        14     9        0.000000        1.396325         3    ;  uncertainty k = 0.437267
         9        10        11        14     9      180.000000        0.162816         4    ;  uncertainty k = 0.433254
         9        10        11        35     9        0.000000        0.918600         1    ;  uncertainty k = 1.149431
         9        10        11        35     9      180.000000        2.312194         2    ;  uncertainty k = 0.875632
         9        10        11        35     9        0.000000        1.179158         3    ;  uncertainty k = 0.546571
         9        10        11        35     9      180.000000        0.033563         4    ;  uncertainty k = 0.163922
         9        10        12        13     9        0.000000        0.445398         1    ;  uncertainty k = 0.425637
         9        10        12        13     9      180.000000       14.898008         2    ;  uncertainty k = 0.250982
         9        10        12        13     9        0.000000        1.555908         3    ;  uncertainty k = 0.315662
         9        10        12        13     9      180.000000        0.839320         4    ;  uncertainty k = 0.195174
         9        10        12        36     9        0.000000        0.548979         1    ;  uncertainty k = 0.628695
         9        10        12        36     9      180.000000        8.040030         2    ;  uncertainty k = 0.846047
         9        10        12        36     9        0.000000        1.437429         3    ;  uncertainty k = 0.231870
         9        10        12        36     9      180.000000        0.430055         4    ;  uncertainty k = 0.351490
        10        11        14        13     9        0.000000        0.677224         1    ;  uncertainty k = 0.484040
        10        11        14        13     9      180.000000       15.391538         2    ;  uncertainty k = 0.543861
        10        11        14        13     9        0.000000       -7.176031         3    ;  uncertainty k = 1.504592
        10        11        14        13     9      180.000000        0.720549         4    ;  uncertainty k = 0.312836
        10        11        14        15     9        0.000000        1.177185         1    ;  uncertainty k = 1.388290
        10        11        14        15     9      180.000000        6.066057         2    ;  uncertainty k = 0.681074
        10        11        14        15     9        0.000000        0.556232         3    ;  uncertainty k = 0.680744
        10        11        14        15     9      180.000000        0.362922         4    ;  uncertainty k = 0.189431
        10        12        13        14     9        0.000000        0.361292         1    ;  uncertainty k = 1.330430
        10        12        13        14     9      180.000000       13.508990         2    ;  uncertainty k = 0.841570
        10        12        13        14     9        0.000000      -10.232746         3    ;  uncertainty k = 2.429813
        10        12        13        14     9      180.000000        1.943500         4    ;  uncertainty k = 0.699510
        10        12        13        18     9        0.000000        0.719928         1    ;  uncertainty k = 1.051785
        10        12        13        18     9      180.000000        7.152434         2    ;  uncertainty k = 0.463258
        10        12        13        18     9        0.000000        0.639458         3    ;  uncertainty k = 0.568479
        10        12        13        18     9      180.000000        0.881597         4    ;  uncertainty k = 0.181196
        11        10        12        13     9        0.000000       -0.170591         1    ;  uncertainty k = 0.457887
        11        10        12        13     9      180.000000       21.183000         2    ;  uncertainty k = 0.305566
        11        10        12        13     9        0.000000       -5.763849         3    ;  uncertainty k = 0.923330
        11        10        12        13     9      180.000000        1.114901         4    ;  uncertainty k = 0.646691
        11        10        12        36     9        0.000000        0.167060         1    ;  uncertainty k = 0.788367
        11        10        12        36     9      180.000000       13.631220         2    ;  uncertainty k = 0.279679
        11        10        12        36     9        0.000000        1.611237         3    ;  uncertainty k = 0.521630
        11        10        12        36     9      180.000000        0.833703         4    ;  uncertainty k = 0.212157
        11        14        13        12     9        0.000000       -0.202825         1    ;  uncertainty k = 0.478407
        11        14        13        12     9      180.000000       13.002652         2    ;  uncertainty k = 0.931177
        11        14        13        12     9        0.000000       -3.504618         3    ;  uncertainty k = 1.340468
        11        14        13        12     9      180.000000        1.499261         4    ;  uncertainty k = 0.893862
        11        14        13        18     9        0.000000       -0.009400         1    ;  uncertainty k = 0.665287
        11        14        13        18     9      180.000000        8.599465         2    ;  uncertainty k = 0.303691
        11        14        13        18     9        0.000000        0.039108         3    ;  uncertainty k = 0.634312
        11        14        13        18     9      180.000000        1.157750         4    ;  uncertainty k = 0.318749
        11        14        15        16     9        0.000000        0.101687         1    ;  uncertainty k = 0.492650
        11        14        15        16     9      180.000000       10.396881         2    ;  uncertainty k = 0.405513
        11        14        15        16     9        0.000000        0.905536         3    ;  uncertainty k = 0.217852
        11        14        15        16     9      180.000000        1.193490         4    ;  uncertainty k = 0.199283
        11        14        15        37     9        0.000000        0.297608         1    ;  uncertainty k = 0.281792
        11        14        15        37     9      180.000000        5.979846         2    ;  uncertainty k = 0.436306
        11        14        15        37     9        0.000000        1.081486         3    ;  uncertainty k = 0.443402
        11        14        15        37     9      180.000000        0.788557         4    ;  uncertainty k = 0.396366
        12        10        11        14     9        0.000000       -0.312845         1    ;  uncertainty k = 0.580788
        12        10        11        14     9      180.000000       14.762202         2    ;  uncertainty k = 0.576008
        12        10        11        14     9        0.000000       -6.005934         3    ;  uncertainty k = 0.754875
        12        10        11        14     9      180.000000        0.807473         4    ;  uncertainty k = 0.503918
        12        10        11        35     9        0.000000        2.692548         1    ;  uncertainty k = 0.930202
        12        10        11        35     9      180.000000        7.104361         2    ;  uncertainty k = 0.633239
        12        10        11        35     9        0.000000        1.708608         3    ;  uncertainty k = 0.800499
        12        10        11        35     9      180.000000       -0.086000         4    ;  uncertainty k = 0.169592
        12        13        14        15     9        0.000000        0.122372         1    ;  uncertainty k = 0.493782
        12        13        14        15     9      180.000000        7.658649         2    ;  uncertainty k = 0.231490
        12        13        14        15     9        0.000000        0.307669         3    ;  uncertainty k = 0.516181
        12        13        14        15     9      180.000000        1.225404         4    ;  uncertainty k = 0.295152
        12        13        18        17     9        0.000000        0.273940         1    ;  uncertainty k = 0.242143
        12        13        18        17     9      180.000000        9.158220         2    ;  uncertainty k = 0.581427
        12        13        18        17     9        0.000000        0.774232         3    ;  uncertainty k = 0.207770
        12        13        18        17     9      180.000000        1.313479         4    ;  uncertainty k = 0.061551
        12        13        18        39     9        0.000000        0.176521         1    ;  uncertainty k = 0.521884
        12        13        18        39     9      180.000000        6.160616         2    ;  uncertainty k = 0.516039
        12        13        18        39     9        0.000000        1.150569         3    ;  uncertainty k = 0.299354
        12        13        18        39     9      180.000000        0.773380         4    ;  uncertainty k = 0.265485
        13        14        11        35     9        0.000000        4.251255         1    ;  uncertainty k = 1.360478
        13        14        11        35     9      180.000000        5.652297         2    ;  uncertainty k = 0.865941
        13        14        11        35     9        0.000000        1.218097         3    ;  uncertainty k = 0.455419
        13        14        11        35     9      180.000000        0.178738         4    ;  uncertainty k = 0.095967
        13        14        15        16     9        0.000000        0.138507         1    ;  uncertainty k = 0.419631
        13        14        15        16     9      180.000000       12.342478         2    ;  uncertainty k = 0.198431
        13        14        15        16     9        0.000000       -1.190024         3    ;  uncertainty k = 0.162598
        13        14        15        16     9      180.000000        0.787465         4    ;  uncertainty k = 0.236198
        13        14        15        37     9        0.000000        0.110142         1    ;  uncertainty k = 0.471897
        13        14        15        37     9      180.000000        6.826218         2    ;  uncertainty k = 0.834942
        13        14        15        37     9        0.000000        1.286748         3    ;  uncertainty k = 0.286966
        13        14        15        37     9      180.000000        1.215500         4    ;  uncertainty k = 0.381963
        13        18        17        16     9        0.000000       -0.120548         1    ;  uncertainty k = 0.442668
        13        18        17        16     9      180.000000       14.435859         2    ;  uncertainty k = 0.456972
        13        18        17        16     9        0.000000       -0.084202         3    ;  uncertainty k = 0.428045
        13        18        17        16     9      180.000000        0.846335         4    ;  uncertainty k = 0.451327
        13        18        17        19     9        0.000000        0.080301         1    ;  uncertainty k = 0.272633
        13        18        17        19     9      180.000000       12.448777         2    ;  uncertainty k = 0.378350
        13        18        17        19     9        0.000000        1.422809         3    ;  uncertainty k = 0.341848
        13        18        17        19     9      180.000000        1.637286         4    ;  uncertainty k = 0.224817
        14        13        12        36     9        0.000000        0.017967         1    ;  uncertainty k = 0.631560
        14        13        12        36     9      180.000000        8.382173         2    ;  uncertainty k = 0.283584
        14        13        12        36     9        0.000000        1.223121         3    ;  uncertainty k = 0.388946
        14        13        12        36     9      180.000000        0.290886         4    ;  uncertainty k = 0.214805
        14        13        18        17     9        0.000000        0.115653         1    ;  uncertainty k = 0.417507
        14        13        18        17     9      180.000000       13.211841         2    ;  uncertainty k = 0.348487
        14        13        18        17     9        0.000000       -1.525755         3    ;  uncertainty k = 0.580502
        14        13        18        17     9      180.000000        0.752655         4    ;  uncertainty k = 0.130469
        14        13        18        39     9        0.000000        0.217180         1    ;  uncertainty k = 0.371606
        14        13        18        39     9      180.000000        7.628301         2    ;  uncertainty k = 0.907146
        14        13        18        39     9        0.000000        1.336832         3    ;  uncertainty k = 0.359407
        14        13        18        39     9      180.000000        1.243972         4    ;  uncertainty k = 0.290146
        14        15        16        17     9        0.000000       -0.069405         1    ;  uncertainty k = 0.317444
        14        15        16        17     9      180.000000       15.480187         2    ;  uncertainty k = 0.356555
        14        15        16        17     9        0.000000       -0.213723         3    ;  uncertainty k = 0.302107
        14        15        16        17     9      180.000000        0.786315         4    ;  uncertainty k = 0.335466
        14        15        16        38     9        0.000000       -0.162996         1    ;  uncertainty k = 0.244564
        14        15        16        38     9      180.000000       11.002376         2    ;  uncertainty k = 0.216657
        14        15        16        38     9        0.000000        1.394471         3    ;  uncertainty k = 0.287042
        14        15        16        38     9      180.000000        1.583323         4    ;  uncertainty k = 0.169870
        15        14        11        35     9        0.000000        1.269472         1    ;  uncertainty k = 0.837827
        15        14        11        35     9      180.000000        2.067532         2    ;  uncertainty k = 0.608338
        15        14        11        35     9        0.000000        1.208102         3    ;  uncertainty k = 0.532703
        15        14        11        35     9      180.000000        0.096571         4    ;  uncertainty k = 0.215072
        15        14        13        18     9        0.000000       -0.706833         1    ;  uncertainty k = 0.684641
        15        14        13        18     9      180.000000        7.606582         2    ;  uncertainty k = 0.334024
        15        14        13        18     9        0.000000        0.144136         3    ;  uncertainty k = 0.309429
        15        14        13        18     9      180.000000        0.910966         4    ;  uncertainty k = 0.352736
        15        16        17        18     9        0.000000       -0.338036         1    ;  uncertainty k = 0.337143
        15        16        17        18     9      180.000000       11.066610         2    ;  uncertainty k = 0.368774
        15        16        17        18     9        0.000000       -0.486274         3    ;  uncertainty k = 0.431050
        15        16        17        18     9      180.000000        0.915685         4    ;  uncertainty k = 0.301678
        15        16        17        19     9        0.000000        0.313025         1    ;  uncertainty k = 0.337218
        15        16        17        19     9      180.000000        8.654181         2    ;  uncertainty k = 0.594478
        15        16        17        19     9        0.000000        1.294904         3    ;  uncertainty k = 0.419121
        15        16        17        19     9      180.000000        1.808641         4    ;  uncertainty k = 0.235420
        16        17        18        39     9        0.000000        0.255434         1    ;  uncertainty k = 0.332067
        16        17        18        39     9      180.000000        8.320365         2    ;  uncertainty k = 0.480036
        16        17        18        39     9        0.000000        1.477869         3    ;  uncertainty k = 0.227399
        16        17        18        39     9      180.000000        1.668731         4    ;  uncertainty k = 0.153873
        16        17        19        20     9        0.000000       -0.520813         1    ;  uncertainty k = 1.299158
        16        17        19        20     9      180.000000       -0.356646         2    ;  uncertainty k = 0.268685
        16        17        19        20     9        0.000000        0.779235         3    ;  uncertainty k = 0.227853
        16        17        19        20     9      180.000000        0.143873         4    ;  uncertainty k = 0.127893
        16        17        19        40     9        0.000000       -0.776665         1    ;  uncertainty k = 0.323857
        16        17        19        40     9      180.000000        1.646929         2    ;  uncertainty k = 0.206598
        16        17        19        40     9        0.000000        0.561916         3    ;  uncertainty k = 0.134134
        16        17        19        40     9      180.000000        0.097113         4    ;  uncertainty k = 0.091890
        16        17        19        41     9        0.000000       -0.776665         1    ;  uncertainty k = 0.323857
        16        17        19        41     9      180.000000        1.646929         2    ;  uncertainty k = 0.206598
        16        17        19        41     9        0.000000        0.561916         3    ;  uncertainty k = 0.134134
        16        17        19        41     9      180.000000        0.097113         4    ;  uncertainty k = 0.091890
        17        16        15        37     9        0.000000        0.062625         1    ;  uncertainty k = 0.188029
        17        16        15        37     9      180.000000        8.653029         2    ;  uncertainty k = 0.558389
        17        16        15        37     9        0.000000        1.424910         3    ;  uncertainty k = 0.169008
        17        16        15        37     9      180.000000        1.741614         4    ;  uncertainty k = 0.149464
        17        19        20        21     9        0.000000        0.473175         1    ;  uncertainty k = 1.333110
        17        19        20        21     9      180.000000       -0.139716         2    ;  uncertainty k = 0.387122
        17        19        20        21     9        0.000000        1.110494         3    ;  uncertainty k = 0.193554
        17        19        20        21     9      180.000000       -0.015971         4    ;  uncertainty k = 0.104414
        17        19        20        25     9        0.000000        0.473175         1    ;  uncertainty k = 1.333110
        17        19        20        25     9      180.000000       -0.139716         2    ;  uncertainty k = 0.387122
        17        19        20        25     9        0.000000        1.110494         3    ;  uncertainty k = 0.193554
        17        19        20        25     9      180.000000       -0.015971         4    ;  uncertainty k = 0.104414
        17        19        20        42     9        0.000000        1.018761         1    ;  uncertainty k = 1.034814
        17        19        20        42     9      180.000000       -0.137721         2    ;  uncertainty k = 0.507797
        17        19        20        42     9        0.000000        0.797568         3    ;  uncertainty k = 0.139490
        17        19        20        42     9      180.000000       -0.122368         4    ;  uncertainty k = 0.114750
        18        13        12        36     9        0.000000        0.461655         1    ;  uncertainty k = 0.985717
        18        13        12        36     9      180.000000        4.269004         2    ;  uncertainty k = 0.713269
        18        13        12        36     9        0.000000        1.295441         3    ;  uncertainty k = 0.311370
        18        13        12        36     9      180.000000        0.090060         4    ;  uncertainty k = 0.170435
        18        17        16        38     9        0.000000        0.085635         1    ;  uncertainty k = 0.380041
        18        17        16        38     9      180.000000        7.117360         2    ;  uncertainty k = 0.584951
        18        17        16        38     9        0.000000        1.371620         3    ;  uncertainty k = 0.155099
        18        17        16        38     9      180.000000        1.456083         4    ;  uncertainty k = 0.133603
        18        17        19        20     9        0.000000       -0.558454         1    ;  uncertainty k = 1.489111
        18        17        19        20     9      180.000000       -0.274642         2    ;  uncertainty k = 0.364696
        18        17        19        20     9        0.000000        0.480117         3    ;  uncertainty k = 0.181767
        18        17        19        20     9      180.000000        0.122075         4    ;  uncertainty k = 0.110119
        18        17        19        40     9        0.000000       -0.475957         1    ;  uncertainty k = 0.301324
        18        17        19        40     9      180.000000        1.737904         2    ;  uncertainty k = 0.363132
        18        17        19        40     9        0.000000        0.377112         3    ;  uncertainty k = 0.168589
        18        17        19        40     9      180.000000        0.078430         4    ;  uncertainty k = 0.109775
        18        17        19        41     9        0.000000       -0.475957         1    ;  uncertainty k = 0.301324
        18        17        19        41     9      180.000000        1.737904         2    ;  uncertainty k = 0.363132
        18        17        19        41     9        0.000000        0.377112         3    ;  uncertainty k = 0.168589
        18        17        19        41     9      180.000000        0.078430         4    ;  uncertainty k = 0.109775
        19        17        16        38     9        0.000000        0.122149         1    ;  uncertainty k = 0.461332
        19        17        16        38     9      180.000000        6.718705         2    ;  uncertainty k = 0.453135
        19        17        16        38     9        0.000000        0.760629         3    ;  uncertainty k = 0.257853
        19        17        16        38     9      180.000000        1.113759         4    ;  uncertainty k = 0.300676
        19        17        18        39     9        0.000000        0.097777         1    ;  uncertainty k = 0.284723
        19        17        18        39     9      180.000000        7.538069         2    ;  uncertainty k = 0.394437
        19        17        18        39     9        0.000000        0.954993         3    ;  uncertainty k = 0.303522
        19        17        18        39     9      180.000000        1.281178         4    ;  uncertainty k = 0.346508
        19        20        21        22     9        0.000000       -1.888511         1    ;  uncertainty k = 0.651154
        19        20        21        22     9      180.000000       -0.011821         2    ;  uncertainty k = 0.664013
        19        20        21        22     9        0.000000        0.717087         3    ;  uncertainty k = 0.248292
        19        20        21        22     9      180.000000       -0.029334         4    ;  uncertainty k = 0.131552
        19        20        21        43     9        0.000000       -0.252808         1    ;  uncertainty k = 0.233545
        19        20        21        43     9      180.000000       -0.851082         2    ;  uncertainty k = 0.203457
        19        20        21        43     9        0.000000        0.808234         3    ;  uncertainty k = 0.114503
        19        20        21        43     9      180.000000       -0.061122         4    ;  uncertainty k = 0.071506
        19        20        21        44     9        0.000000       -0.252808         1    ;  uncertainty k = 0.233545
        19        20        21        44     9      180.000000       -0.851082         2    ;  uncertainty k = 0.203457
        19        20        21        44     9        0.000000        0.808234         3    ;  uncertainty k = 0.114503
        19        20        21        44     9      180.000000       -0.061122         4    ;  uncertainty k = 0.071506
        19        20        25        24     9        0.000000       -1.888511         1    ;  uncertainty k = 0.651154
        19        20        25        24     9      180.000000       -0.011821         2    ;  uncertainty k = 0.664013
        19        20        25        24     9        0.000000        0.717087         3    ;  uncertainty k = 0.248292
        19        20        25        24     9      180.000000       -0.029334         4    ;  uncertainty k = 0.131552
        19        20        25        49     9        0.000000       -0.252808         1    ;  uncertainty k = 0.233545
        19        20        25        49     9      180.000000       -0.851082         2    ;  uncertainty k = 0.203457
        19        20        25        49     9        0.000000        0.808234         3    ;  uncertainty k = 0.114503
        19        20        25        49     9      180.000000       -0.061122         4    ;  uncertainty k = 0.071506
        19        20        25        50     9        0.000000       -0.252808         1    ;  uncertainty k = 0.233545
        19        20        25        50     9      180.000000       -0.851082         2    ;  uncertainty k = 0.203457
        19        20        25        50     9        0.000000        0.808234         3    ;  uncertainty k = 0.114503
        19        20        25        50     9      180.000000       -0.061122         4    ;  uncertainty k = 0.071506
        20        21        22        23     9        0.000000        2.041742         1    ;  uncertainty k = 1.407758
        20        21        22        23     9      180.000000       -5.353373         2    ;  uncertainty k = 0.712411
        20        21        22        23     9        0.000000        2.006679         3    ;  uncertainty k = 0.510151
        20        21        22        23     9      180.000000       -0.261370         4    ;  uncertainty k = 0.275999
        20        21        22        45     9        0.000000        2.931196         1    ;  uncertainty k = 1.871943
        20        21        22        45     9      180.000000       -3.397211         2    ;  uncertainty k = 0.989543
        20        21        22        45     9        0.000000        0.280338         3    ;  uncertainty k = 0.226645
        20        21        22        45     9      180.000000        0.218849         4    ;  uncertainty k = 0.115750
        20        21        22        46     9        0.000000        2.931196         1    ;  uncertainty k = 1.871943
        20        21        22        46     9      180.000000       -3.397211         2    ;  uncertainty k = 0.989543
        20        21        22        46     9        0.000000        0.280338         3    ;  uncertainty k = 0.226645
        20        21        22        46     9      180.000000        0.218849         4    ;  uncertainty k = 0.115750
        20        25        24        23     9        0.000000        2.041742         1    ;  uncertainty k = 1.407758
        20        25        24        23     9      180.000000       -5.353373         2    ;  uncertainty k = 0.712411
        20        25        24        23     9        0.000000        2.006679         3    ;  uncertainty k = 0.510151
        20        25        24        23     9      180.000000       -0.261370         4    ;  uncertainty k = 0.275999
        20        25        24        47     9        0.000000        2.931196         1    ;  uncertainty k = 1.871943
        20        25        24        47     9      180.000000       -3.397211         2    ;  uncertainty k = 0.989543
        20        25        24        47     9        0.000000        0.280338         3    ;  uncertainty k = 0.226645
        20        25        24        47     9      180.000000        0.218849         4    ;  uncertainty k = 0.115750
        20        25        24        48     9        0.000000        2.931196         1    ;  uncertainty k = 1.871943
        20        25        24        48     9      180.000000       -3.397211         2    ;  uncertainty k = 0.989543
        20        25        24        48     9        0.000000        0.280338         3    ;  uncertainty k = 0.226645
        20        25        24        48     9      180.000000        0.218849         4    ;  uncertainty k = 0.115750
        21        20        19        40     9        0.000000       -0.478729         1    ;  uncertainty k = 0.563276
        21        20        19        40     9      180.000000       -0.535665         2    ;  uncertainty k = 0.310608
        21        20        19        40     9        0.000000        0.911746         3    ;  uncertainty k = 0.120554
        21        20        19        40     9      180.000000       -0.043110         4    ;  uncertainty k = 0.181520
        21        20        19        41     9        0.000000       -0.478729         1    ;  uncertainty k = 0.563276
        21        20        19        41     9      180.000000       -0.535665         2    ;  uncertainty k = 0.310608
        21        20        19        41     9        0.000000        0.911746         3    ;  uncertainty k = 0.120554
        21        20        19        41     9      180.000000       -0.043110         4    ;  uncertainty k = 0.181520
        21        20        25        24     9        0.000000        0.555898         1    ;  uncertainty k = 1.363038
        21        20        25        24     9      180.000000       -0.526110         2    ;  uncertainty k = 0.593599
        21        20        25        24     9        0.000000        0.625049         3    ;  uncertainty k = 0.252190
        21        20        25        24     9      180.000000       -0.361730         4    ;  uncertainty k = 0.235273
        21        20        25        49     9        0.000000       -0.592727         1    ;  uncertainty k = 0.718811
        21        20        25        49     9      180.000000       -0.598658         2    ;  uncertainty k = 0.276416
        21        20        25        49     9        0.000000        0.484077         3    ;  uncertainty k = 0.209024
        21        20        25        49     9      180.000000       -0.037147         4    ;  uncertainty k = 0.257514
        21        20        25        50     9        0.000000       -0.592727         1    ;  uncertainty k = 0.718811
        21        20        25        50     9      180.000000       -0.598658         2    ;  uncertainty k = 0.276416
        21        20        25        50     9        0.000000        0.484077         3    ;  uncertainty k = 0.209024
        21        20        25        50     9      180.000000       -0.037147         4    ;  uncertainty k = 0.257514
        21        22        23        24     9        0.000000       -3.831849         1    ;  uncertainty k = 1.426358
        21        22        23        24     9      180.000000       -1.175653         2    ;  uncertainty k = 0.724334
        21        22        23        24     9        0.000000        0.776157         3    ;  uncertainty k = 0.316008
        21        22        23        24     9      180.000000       -0.264664         4    ;  uncertainty k = 0.320493
        22        21        20        25     9        0.000000        0.555898         1    ;  uncertainty k = 1.363038
        22        21        20        25     9      180.000000       -0.526110         2    ;  uncertainty k = 0.593599
        22        21        20        25     9        0.000000        0.625049         3    ;  uncertainty k = 0.252190
        22        21        20        25     9      180.000000       -0.361730         4    ;  uncertainty k = 0.235273
        22        21        20        42     9        0.000000        0.684778         1    ;  uncertainty k = 0.523871
        22        21        20        42     9      180.000000       -0.431398         2    ;  uncertainty k = 0.440635
        22        21        20        42     9        0.000000        0.295424         3    ;  uncertainty k = 0.226765
        22        21        20        42     9      180.000000       -0.148061         4    ;  uncertainty k = 0.101372
        22        23        24        25     9        0.000000       -3.831849         1    ;  uncertainty k = 1.426358
        22        23        24        25     9      180.000000       -1.175653         2    ;  uncertainty k = 0.724334
        22        23        24        25     9        0.000000        0.776157         3    ;  uncertainty k = 0.316008
        22        23        24        25     9      180.000000       -0.264664         4    ;  uncertainty k = 0.320493
        22        23        24        47     9        0.000000       -4.313596         1    ;  uncertainty k = 1.361932
        22        23        24        47     9      180.000000       -0.256749         2    ;  uncertainty k = 0.481717
        22        23        24        47     9        0.000000        0.788106         3    ;  uncertainty k = 0.169191
        22        23        24        47     9      180.000000       -0.399359         4    ;  uncertainty k = 0.132198
        22        23        24        48     9        0.000000       -4.313596         1    ;  uncertainty k = 1.361932
        22        23        24        48     9      180.000000       -0.256749         2    ;  uncertainty k = 0.481717
        22        23        24        48     9        0.000000        0.788106         3    ;  uncertainty k = 0.169191
        22        23        24        48     9      180.000000       -0.399359         4    ;  uncertainty k = 0.132198
        23        22        21        43     9        0.000000        0.334907         1    ;  uncertainty k = 0.705824
        23        22        21        43     9      180.000000       -0.744502         2    ;  uncertainty k = 0.523446
        23        22        21        43     9        0.000000        1.009840         3    ;  uncertainty k = 0.117897
        23        22        21        43     9      180.000000        0.026836         4    ;  uncertainty k = 0.033118
        23        22        21        44     9        0.000000        0.334907         1    ;  uncertainty k = 0.705824
        23        22        21        44     9      180.000000       -0.744502         2    ;  uncertainty k = 0.523446
        23        22        21        44     9        0.000000        1.009840         3    ;  uncertainty k = 0.117897
        23        22        21        44     9      180.000000        0.026836         4    ;  uncertainty k = 0.033118
        23        24        25        49     9        0.000000        0.334907         1    ;  uncertainty k = 0.705824
        23        24        25        49     9      180.000000       -0.744502         2    ;  uncertainty k = 0.523446
        23        24        25        49     9        0.000000        1.009840         3    ;  uncertainty k = 0.117897
        23        24        25        49     9      180.000000        0.026836         4    ;  uncertainty k = 0.033118
        23        24        25        50     9        0.000000        0.334907         1    ;  uncertainty k = 0.705824
        23        24        25        50     9      180.000000       -0.744502         2    ;  uncertainty k = 0.523446
        23        24        25        50     9        0.000000        1.009840         3    ;  uncertainty k = 0.117897
        23        24        25        50     9      180.000000        0.026836         4    ;  uncertainty k = 0.033118
        24        23        22        45     9        0.000000       -4.313596         1    ;  uncertainty k = 1.361932
        24        23        22        45     9      180.000000       -0.256749         2    ;  uncertainty k = 0.481717
        24        23        22        45     9        0.000000        0.788106         3    ;  uncertainty k = 0.169191
        24        23        22        45     9      180.000000       -0.399359         4    ;  uncertainty k = 0.132198
        24        23        22        46     9        0.000000       -4.313596         1    ;  uncertainty k = 1.361932
        24        23        22        46     9      180.000000       -0.256749         2    ;  uncertainty k = 0.481717
        24        23        22        46     9        0.000000        0.788106         3    ;  uncertainty k = 0.169191
        24        23        22        46     9      180.000000       -0.399359         4    ;  uncertainty k = 0.132198
        24        25        20        42     9        0.000000        0.684778         1    ;  uncertainty k = 0.523871
        24        25        20        42     9      180.000000       -0.431398         2    ;  uncertainty k = 0.440635
        24        25        20        42     9        0.000000        0.295424         3    ;  uncertainty k = 0.226765
        24        25        20        42     9      180.000000       -0.148061         4    ;  uncertainty k = 0.101372
        25        20        19        40     9        0.000000       -0.478729         1    ;  uncertainty k = 0.563276
        25        20        19        40     9      180.000000       -0.535665         2    ;  uncertainty k = 0.310608
        25        20        19        40     9        0.000000        0.911746         3    ;  uncertainty k = 0.120554
        25        20        19        40     9      180.000000       -0.043110         4    ;  uncertainty k = 0.181520
        25        20        19        41     9        0.000000       -0.478729         1    ;  uncertainty k = 0.563276
        25        20        19        41     9      180.000000       -0.535665         2    ;  uncertainty k = 0.310608
        25        20        19        41     9        0.000000        0.911746         3    ;  uncertainty k = 0.120554
        25        20        19        41     9      180.000000       -0.043110         4    ;  uncertainty k = 0.181520
        25        20        21        43     9        0.000000       -0.592727         1    ;  uncertainty k = 0.718811
        25        20        21        43     9      180.000000       -0.598658         2    ;  uncertainty k = 0.276416
        25        20        21        43     9        0.000000        0.484077         3    ;  uncertainty k = 0.209024
        25        20        21        43     9      180.000000       -0.037147         4    ;  uncertainty k = 0.257514
        25        20        21        44     9        0.000000       -0.592727         1    ;  uncertainty k = 0.718811
        25        20        21        44     9      180.000000       -0.598658         2    ;  uncertainty k = 0.276416
        25        20        21        44     9        0.000000        0.484077         3    ;  uncertainty k = 0.209024
        25        20        21        44     9      180.000000       -0.037147         4    ;  uncertainty k = 0.257514
        26         2         1        31     9        0.000000       -0.303513         1    ;  uncertainty k = 0.530641
        26         2         1        31     9      180.000000        6.999142         2    ;  uncertainty k = 0.373970
        26         2         1        31     9        0.000000        0.737280         3    ;  uncertainty k = 0.149759
        26         2         1        31     9      180.000000        0.963674         4    ;  uncertainty k = 0.220195
        26         2         3        32     9        0.000000       -0.417637         1    ;  uncertainty k = 0.462449
        26         2         3        32     9      180.000000        7.987889         2    ;  uncertainty k = 0.271050
        26         2         3        32     9        0.000000        0.783520         3    ;  uncertainty k = 0.209122
        26         2         3        32     9      180.000000        0.993911         4    ;  uncertainty k = 0.166072
        26        27        28        29     9        0.000000       -0.155126         1    ;  uncertainty k = 0.349486
        26        27        28        29     9      180.000000       15.857215         2    ;  uncertainty k = 0.862161
        26        27        28        29     9        0.000000       -9.752238         3    ;  uncertainty k = 1.008909
        26        27        28        29     9      180.000000        1.937795         4    ;  uncertainty k = 0.541834
        26        27        28        52     9        0.000000        0.132388         1    ;  uncertainty k = 0.198275
        26        27        28        52     9      180.000000        8.684135         2    ;  uncertainty k = 0.311446
        26        27        28        52     9        0.000000        1.219196         3    ;  uncertainty k = 0.540243
        26        27        28        52     9      180.000000        0.538626         4    ;  uncertainty k = 0.284538
        26        30        29        28     9        0.000000        0.307216         1    ;  uncertainty k = 0.384179
        26        30        29        28     9      180.000000       17.705746         2    ;  uncertainty k = 0.286579
        26        30        29        28     9        0.000000       -7.269281         3    ;  uncertainty k = 1.193233
        26        30        29        28     9      180.000000        1.433440         4    ;  uncertainty k = 0.394942
        27        26        30        29     9        0.000000        0.081072         1    ;  uncertainty k = 0.782248
        27        26        30        29     9      180.000000       16.756607         2    ;  uncertainty k = 0.780723
        27        26        30        29     9        0.000000       -9.175209         3    ;  uncertainty k = 1.113526
        27        26        30        29     9      180.000000        1.099166         4    ;  uncertainty k = 0.444212
        27        26        30        53     9        0.000000        2.530719         1    ;  uncertainty k = 0.969671
        27        26        30        53     9      180.000000        8.562919         2    ;  uncertainty k = 0.716225
        27        26        30        53     9        0.000000        1.555620         3    ;  uncertainty k = 0.747055
        27        26        30        53     9      180.000000       -0.241408         4    ;  uncertainty k = 0.188027
        27        28        29        30     9        0.000000       -0.203709         1    ;  uncertainty k = 0.489602
        27        28        29        30     9      180.000000       25.246727         2    ;  uncertainty k = 0.387587
        27        28        29        30     9        0.000000       -9.217996         3    ;  uncertainty k = 0.968394
        27        28        29        30     9      180.000000        2.176856         4    ;  uncertainty k = 0.671679
        28        27        26        30     9        0.000000        0.116491         1    ;  uncertainty k = 0.375985
        28        27        26        30     9      180.000000       19.413993         2    ;  uncertainty k = 0.374844
        28        27        26        30     9        0.000000      -10.183347         3    ;  uncertainty k = 1.020336
        28        27        26        30     9      180.000000        1.529316         4    ;  uncertainty k = 0.544768
        28        29        30        53     9        0.000000        3.594535         1    ;  uncertainty k = 2.209816
        28        29        30        53     9      180.000000       15.382735         2    ;  uncertainty k = 0.458925
        28        29        30        53     9        0.000000        1.604037         3    ;  uncertainty k = 1.077410
        28        29        30        53     9      180.000000       -0.415592         4    ;  uncertainty k = 0.204496
        29        28        27        51     9        0.000000        0.327684         1    ;  uncertainty k = 0.456619
        29        28        27        51     9      180.000000       11.583591         2    ;  uncertainty k = 0.427777
        29        28        27        51     9        0.000000        1.026360         3    ;  uncertainty k = 0.773460
        29        28        27        51     9      180.000000        0.552644         4    ;  uncertainty k = 0.342702
        30        26        27        51     9        0.000000        0.558308         1    ;  uncertainty k = 0.594644
        30        26        27        51     9      180.000000       12.521528         2    ;  uncertainty k = 0.303396
        30        26        27        51     9        0.000000        1.425827         3    ;  uncertainty k = 0.509457
        30        26        27        51     9      180.000000        0.706407         4    ;  uncertainty k = 0.126169
        30        29        28        52     9        0.000000        0.605476         1    ;  uncertainty k = 0.494016
        30        29        28        52     9      180.000000       22.872190         2    ;  uncertainty k = 0.299717
        30        29        28        52     9        0.000000        1.344601         3    ;  uncertainty k = 0.719572
        30        29        28        52     9      180.000000        0.980892         4    ;  uncertainty k = 0.444200
        31         1         4        33     9        0.000000       -0.132814         1    ;  uncertainty k = 0.138128
        31         1         4        33     9      180.000000        8.259097         2    ;  uncertainty k = 0.296325
        31         1         4        33     9        0.000000       -0.183247         3    ;  uncertainty k = 0.208872
        31         1         4        33     9      180.000000        0.333163         4    ;  uncertainty k = 0.248283
        37        15        16        38     9        0.000000       -0.013045         1    ;  uncertainty k = 0.178040
        37        15        16        38     9      180.000000        7.749499         2    ;  uncertainty k = 0.110935
        37        15        16        38     9        0.000000       -0.170352         3    ;  uncertainty k = 0.227080
        37        15        16        38     9      180.000000        0.302639         4    ;  uncertainty k = 0.156541
        40        19        20        42     9        0.000000        0.541417         1    ;  uncertainty k = 0.765548
        40        19        20        42     9      180.000000       -0.496762         2    ;  uncertainty k = 0.248173
        40        19        20        42     9        0.000000        0.124734         3    ;  uncertainty k = 0.130235
        40        19        20        42     9      180.000000       -0.002886         4    ;  uncertainty k = 0.072362
        41        19        20        42     9        0.000000        0.541417         1    ;  uncertainty k = 0.765548
        41        19        20        42     9      180.000000       -0.496762         2    ;  uncertainty k = 0.248173
        41        19        20        42     9        0.000000        0.124734         3    ;  uncertainty k = 0.130235
        41        19        20        42     9      180.000000       -0.002886         4    ;  uncertainty k = 0.072362
        42        20        21        43     9        0.000000        0.382863         1    ;  uncertainty k = 0.451842
        42        20        21        43     9      180.000000       -0.368939         2    ;  uncertainty k = 0.212330
        42        20        21        43     9        0.000000        0.066358         3    ;  uncertainty k = 0.093735
        42        20        21        43     9      180.000000        0.003508         4    ;  uncertainty k = 0.090871
        42        20        21        44     9        0.000000        0.382863         1    ;  uncertainty k = 0.451842
        42        20        21        44     9      180.000000       -0.368939         2    ;  uncertainty k = 0.212330
        42        20        21        44     9        0.000000        0.066358         3    ;  uncertainty k = 0.093735
        42        20        21        44     9      180.000000        0.003508         4    ;  uncertainty k = 0.090871
        42        20        25        49     9        0.000000        0.382863         1    ;  uncertainty k = 0.451842
        42        20        25        49     9      180.000000       -0.368939         2    ;  uncertainty k = 0.212330
        42        20        25        49     9        0.000000        0.066358         3    ;  uncertainty k = 0.093735
        42        20        25        49     9      180.000000        0.003508         4    ;  uncertainty k = 0.090871
        42        20        25        50     9        0.000000        0.382863         1    ;  uncertainty k = 0.451842
        42        20        25        50     9      180.000000       -0.368939         2    ;  uncertainty k = 0.212330
        42        20        25        50     9        0.000000        0.066358         3    ;  uncertainty k = 0.093735
        42        20        25        50     9      180.000000        0.003508         4    ;  uncertainty k = 0.090871
        43        21        22        45     9        0.000000       -1.147146         1    ;  uncertainty k = 0.682372
        43        21        22        45     9      180.000000        1.151965         2    ;  uncertainty k = 0.386368
        43        21        22        45     9        0.000000        0.109941         3    ;  uncertainty k = 0.178553
        43        21        22        45     9      180.000000       -0.382679         4    ;  uncertainty k = 0.098270
        43        21        22        46     9        0.000000       -1.147146         1    ;  uncertainty k = 0.682372
        43        21        22        46     9      180.000000        1.151965         2    ;  uncertainty k = 0.386368
        43        21        22        46     9        0.000000        0.109941         3    ;  uncertainty k = 0.178553
        43        21        22        46     9      180.000000       -0.382679         4    ;  uncertainty k = 0.098270
        44        21        22        45     9        0.000000       -1.147146         1    ;  uncertainty k = 0.682372
        44        21        22        45     9      180.000000        1.151965         2    ;  uncertainty k = 0.386368
        44        21        22        45     9        0.000000        0.109941         3    ;  uncertainty k = 0.178553
        44        21        22        45     9      180.000000       -0.382679         4    ;  uncertainty k = 0.098270
        44        21        22        46     9        0.000000       -1.147146         1    ;  uncertainty k = 0.682372
        44        21        22        46     9      180.000000        1.151965         2    ;  uncertainty k = 0.386368
        44        21        22        46     9        0.000000        0.109941         3    ;  uncertainty k = 0.178553
        44        21        22        46     9      180.000000       -0.382679         4    ;  uncertainty k = 0.098270
        47        24        25        49     9        0.000000       -1.147146         1    ;  uncertainty k = 0.682372
        47        24        25        49     9      180.000000        1.151965         2    ;  uncertainty k = 0.386368
        47        24        25        49     9        0.000000        0.109941         3    ;  uncertainty k = 0.178553
        47        24        25        49     9      180.000000       -0.382679         4    ;  uncertainty k = 0.098270
        47        24        25        50     9        0.000000       -1.147146         1    ;  uncertainty k = 0.682372
        47        24        25        50     9      180.000000        1.151965         2    ;  uncertainty k = 0.386368
        47        24        25        50     9        0.000000        0.109941         3    ;  uncertainty k = 0.178553
        47        24        25        50     9      180.000000       -0.382679         4    ;  uncertainty k = 0.098270
        48        24        25        49     9        0.000000       -1.147146         1    ;  uncertainty k = 0.682372
        48        24        25        49     9      180.000000        1.151965         2    ;  uncertainty k = 0.386368
        48        24        25        49     9        0.000000        0.109941         3    ;  uncertainty k = 0.178553
        48        24        25        49     9      180.000000       -0.382679         4    ;  uncertainty k = 0.098270
        48        24        25        50     9        0.000000       -1.147146         1    ;  uncertainty k = 0.682372
        48        24        25        50     9      180.000000        1.151965         2    ;  uncertainty k = 0.386368
        48        24        25        50     9        0.000000        0.109941         3    ;  uncertainty k = 0.178553
        48        24        25        50     9      180.000000       -0.382679         4    ;  uncertainty k = 0.098270
        51        27        28        52     9        0.000000       -0.456449         1    ;  uncertainty k = 1.000068
        51        27        28        52     9      180.000000        4.382401         2    ;  uncertainty k = 0.801697
        51        27        28        52     9        0.000000        1.327973         3    ;  uncertainty k = 0.395543
        51        27        28        52     9      180.000000        0.139854         4    ;  uncertainty k = 0.124386

[ dihedrals ] ; impropers
;       ai        aj        ak        al funct           phase               k        pn
         1         2         4        31     4      180.000000        2.786458         2    ;  uncertainty k = 0.251940
         1         4        31         2     4      180.000000        2.786458         2    ;  uncertainty k = 0.251940
         1        31         2         4     4      180.000000        2.786458         2    ;  uncertainty k = 0.251940
         2         1         3        26     4      180.000000       13.267792         2    ;  uncertainty k = 0.104119
         2         3        26         1     4      180.000000       13.267792         2    ;  uncertainty k = 0.104119
         2        26         1         3     4      180.000000       13.267792         2    ;  uncertainty k = 0.104119
         3         2         6        32     4      180.000000        2.442566         2    ;  uncertainty k = 0.248798
         3         6        32         2     4      180.000000        2.442566         2    ;  uncertainty k = 0.248798
         3        32         2         6     4      180.000000        2.442566         2    ;  uncertainty k = 0.248798
         4         1         5        33     4      180.000000        5.125724         2    ;  uncertainty k = 0.165740
         4         5        33         1     4      180.000000        5.125724         2    ;  uncertainty k = 0.165740
         4        33         1         5     4      180.000000        5.125724         2    ;  uncertainty k = 0.165740
         6         3         5         7     4      180.000000        1.511912         2    ;  uncertainty k = 0.920930
         6         5         7         3     4      180.000000        1.511912         2    ;  uncertainty k = 0.920930
         6         7         3         5     4      180.000000        1.511912         2    ;  uncertainty k = 0.920930
         9         5         8        10     4      180.000000        7.128464         2    ;  uncertainty k = 0.226522
         9         8        10         5     4      180.000000        7.128464         2    ;  uncertainty k = 0.226522
         9        10         5         8     4      180.000000        7.128464         2    ;  uncertainty k = 0.226522
        10         9        11        12     4      180.000000        6.131355         2    ;  uncertainty k = 0.374886
        10        11        12         9     4      180.000000        6.131355         2    ;  uncertainty k = 0.374886
        10        12         9        11     4      180.000000        6.131355         2    ;  uncertainty k = 0.374886
        12        10        13        36     4      180.000000        0.300082         2    ;  uncertainty k = 0.671004
        12        13        36        10     4      180.000000        0.300082         2    ;  uncertainty k = 0.671004
        12        36        10        13     4      180.000000        0.300082         2    ;  uncertainty k = 0.671004
        13        12        14        18     4      180.000000        0.203680         2    ;  uncertainty k = 0.447823
        13        14        18        12     4      180.000000        0.203680         2    ;  uncertainty k = 0.447823
        13        18        12        14     4      180.000000        0.203680         2    ;  uncertainty k = 0.447823
        14        11        13        15     4      180.000000        1.547994         2    ;  uncertainty k = 0.529255
        14        13        15        11     4      180.000000        1.547994         2    ;  uncertainty k = 0.529255
        14        15        11        13     4      180.000000        1.547994         2    ;  uncertainty k = 0.529255
        15        14        16        37     4      180.000000        3.328892         2    ;  uncertainty k = 0.304190
        15        16        37        14     4      180.000000        3.328892         2    ;  uncertainty k = 0.304190
        15        37        14        16     4      180.000000        3.328892         2    ;  uncertainty k = 0.304190
        16        15        17        38     4      180.000000        3.703974         2    ;  uncertainty k = 0.231890
        16        17        38        15     4      180.000000        3.703974         2    ;  uncertainty k = 0.231890
        16        38        15        17     4      180.000000        3.703974         2    ;  uncertainty k = 0.231890
        17        16        18        19     4      180.000000        8.032837         2    ;  uncertainty k = 0.336696
        17        18        19        16     4      180.000000        8.032837         2    ;  uncertainty k = 0.336696
        17        19        16        18     4      180.000000        8.032837         2    ;  uncertainty k = 0.336696
        18        13        17        39     4      180.000000        4.453195         2    ;  uncertainty k = 0.297877
        18        17        39        13     4      180.000000        4.453195         2    ;  uncertainty k = 0.297877
        18        39        13        17     4      180.000000        4.453195         2    ;  uncertainty k = 0.297877
        26         2        27        30     4      180.000000        6.986869         2    ;  uncertainty k = 0.192942
        26        27        30         2     4      180.000000        6.986869         2    ;  uncertainty k = 0.192942
        26        30         2        27     4      180.000000        6.986869         2    ;  uncertainty k = 0.192942
        28        27        29        52     4      180.000000        1.267624         2    ;  uncertainty k = 0.496790
        28        29        52        27     4      180.000000        1.267624         2    ;  uncertainty k = 0.496790
        28        52        27        29     4      180.000000        1.267624         2    ;  uncertainty k = 0.496790

[ pairs ]
;       ai        aj funct
         1         6     1
         1         9     1
         1        27     1
         1        30     1
         1        32     1
         2         5     1
         2         7     1
         2        28     1
         2        29     1
         2        33     1
         2        51     1
         2        53     1
         3         4     1
         3         8     1
         3         9     1
         3        27     1
         3        30     1
         3        31     1
         3        34     1
         4         7     1
         4         8     1
         4        10     1
         4        26     1
         5        11     1
         5        12     1
         5        31     1
         5        32     1
         5        34     1
         6        10     1
         6        26     1
         6        33     1
         7        10     1
         7        32     1
         8        11     1
         8        12     1
         9        13     1
         9        14     1
         9        33     1
         9        34     1
         9        35     1
         9        36     1
        10        15     1
        10        18     1
        11        16     1
        11        18     1
        11        36     1
        11        37     1
        12        15     1
        12        17     1
        12        35     1
        12        39     1
        13        16     1
        13        19     1
        13        35     1
        13        37     1
        14        17     1
        14        36     1
        14        38     1
        14        39     1
        15        18     1
        15        19     1
        15        35     1
        16        20     1
        16        39     1
        16        40     1
        16        41     1
        17        21     1
        17        25     1
        17        37     1
        17        42     1
        18        20     1
        18        36     1
        18        38     1
        18        40     1
        18        41     1
        19        22     1
        19        24     1
        19        38     1
        19        39     1
        19        43     1
        19        44     1
        19        49     1
        19        50     1
        20        23     1
        20        45     1
        20        46     1
        20        47     1
        20        48     1
        21        24     1
        21        40     1
        21        41     1
        21        49     1
        21        50     1
        22        25     1
        22        42     1
        22        47     1
        22        48     1
        23        43     1
        23        44     1
        23        49     1
        23        50     1
        24        42     1
        24        45     1
        24        46     1
        25        40     1
        25        41     1
        25        43     1
        25        44     1
        26        31     1
        26        32     1
        26        52     1
        27        53     1
        28        53     1
        29        51     1
        30        51     1
        30        52     1
        31        33     1
        37        38     1
        40        42     1
        41        42     1
        42        43     1
        42        44     1
        42        49     1
        42        50     1
        43        45     1
        43        46     1
        44        45     1
        44        46     1
        47        49     1
        47        50     1
        48        49     1
        48        50     1
        51        52     1
