; ITP file created by ByteFF-joint-25, 2025-07-14 11:38:25.544074

[ atomtypes ]
;name           bonded.type        at.num        mass        charge   ptype           sigma         epsilon
 c0bf                                   6      0.0000       0.00000       A     3.31516e-01     4.13578e-01    ;  uncertainty sigma = 0.000007, epsilon = 0.000651
 c1bf                                   6      0.0000       0.00000       A     3.31509e-01     4.13236e-01    ;  uncertainty sigma = 0.000010, epsilon = 0.000503
 c2bf                                   6      0.0000       0.00000       A     3.31513e-01     4.13757e-01    ;  uncertainty sigma = 0.000012, epsilon = 0.001022
 c3bf                                   6      0.0000       0.00000       A     3.31524e-01     4.13291e-01    ;  uncertainty sigma = 0.000009, epsilon = 0.001008
 c4bf                                   6      0.0000       0.00000       A     3.31525e-01     4.13394e-01    ;  uncertainty sigma = 0.000006, epsilon = 0.000671
 c5bf                                   6      0.0000       0.00000       A     3.31518e-01     4.12770e-01    ;  uncertainty sigma = 0.000018, epsilon = 0.001141
 n6bf                                   7      0.0000       0.00000       A     3.20639e-01     8.53602e-01    ;  uncertainty sigma = 0.000018, epsilon = 0.002092
 n7bf                                   7      0.0000       0.00000       A     3.38429e-01     3.93681e-01    ;  uncertainty sigma = 0.000012, epsilon = 0.000578
 c8bf                                   6      0.0000       0.00000       A     3.31525e-01     4.13030e-01    ;  uncertainty sigma = 0.000010, epsilon = 0.000939
 c9bf                                   6      0.0000       0.00000       A     3.31487e-01     4.13616e-01    ;  uncertainty sigma = 0.000020, epsilon = 0.001109
 n10bf                                  7      0.0000       0.00000       A     3.20612e-01     8.51418e-01    ;  uncertainty sigma = 0.000030, epsilon = 0.001559
 c11bf                                  6      0.0000       0.00000       A     3.31545e-01     4.13175e-01    ;  uncertainty sigma = 0.000004, epsilon = 0.000228
 c12bf                                  6      0.0000       0.00000       A     3.31513e-01     4.13679e-01    ;  uncertainty sigma = 0.000008, epsilon = 0.001038
 c13bf                                  6      0.0000       0.00000       A     3.31539e-01     4.13372e-01    ;  uncertainty sigma = 0.000002, epsilon = 0.000832
 c14bf                                  6      0.0000       0.00000       A     3.31510e-01     4.13227e-01    ;  uncertainty sigma = 0.000003, epsilon = 0.000744
 c15bf                                  6      0.0000       0.00000       A     3.31530e-01     4.13453e-01    ;  uncertainty sigma = 0.000012, epsilon = 0.000423
 c16bf                                  6      0.0000       0.00000       A     3.31639e-01     4.14074e-01    ;  uncertainty sigma = 0.000029, epsilon = 0.001725
 c17bf                                  6      0.0000       0.00000       A     3.31542e-01     4.13583e-01    ;  uncertainty sigma = 0.000009, epsilon = 0.000998
 c18bf                                  6      0.0000       0.00000       A     3.39773e-01     4.50389e-01    ;  uncertainty sigma = 0.000036, epsilon = 0.001493
 n19bf                                  7      0.0000       0.00000       A     2.58825e-01     1.06536e+01    ;  uncertainty sigma = 0.000048, epsilon = 0.001081
 c20bf                                  6      0.0000       0.00000       A     3.39751e-01     4.50843e-01    ;  uncertainty sigma = 0.000004, epsilon = 0.001025
 c21bf                                  6      0.0000       0.00000       A     3.39769e-01     4.50680e-01    ;  uncertainty sigma = 0.000010, epsilon = 0.000994
 c22bf                                  6      0.0000       0.00000       A     3.39785e-01     4.50582e-01    ;  uncertainty sigma = 0.000006, epsilon = 0.000924
 c23bf                                  6      0.0000       0.00000       A     3.39769e-01     4.50680e-01    ;  uncertainty sigma = 0.000010, epsilon = 0.000994
 c24bf                                  6      0.0000       0.00000       A     3.39751e-01     4.50843e-01    ;  uncertainty sigma = 0.000004, epsilon = 0.001025
 n25bf                                  7      0.0000       0.00000       A     3.20579e-01     8.53616e-01    ;  uncertainty sigma = 0.000018, epsilon = 0.001746
 c26bf                                  6      0.0000       0.00000       A     3.31543e-01     4.12991e-01    ;  uncertainty sigma = 0.000010, epsilon = 0.000519
 c27bf                                  6      0.0000       0.00000       A     3.31532e-01     4.13420e-01    ;  uncertainty sigma = 0.000003, epsilon = 0.000888
 n28bf                                  7      0.0000       0.00000       A     3.38413e-01     3.93249e-01    ;  uncertainty sigma = 0.000017, epsilon = 0.001113
 n29bf                                  7      0.0000       0.00000       A     3.38393e-01     3.93533e-01    ;  uncertainty sigma = 0.000016, epsilon = 0.001122
 c30bf                                  6      0.0000       0.00000       A     3.39769e-01     4.50712e-01    ;  uncertainty sigma = 0.000005, epsilon = 0.000547
 h31bf                                  1      0.0000       0.00000       A     2.62570e-01     6.72368e-02    ;  uncertainty sigma = 0.000014, epsilon = 0.000566
 h32bf                                  1      0.0000       0.00000       A     2.62584e-01     6.71644e-02    ;  uncertainty sigma = 0.000011, epsilon = 0.000472
 h33bf                                  1      0.0000       0.00000       A     2.62554e-01     6.68847e-02    ;  uncertainty sigma = 0.000014, epsilon = 0.000489
 h34bf                                  1      0.0000       0.00000       A     1.10655e-01     4.14032e-02    ;  uncertainty sigma = 0.000071, epsilon = 0.000793
 h35bf                                  1      0.0000       0.00000       A     1.10661e-01     4.09777e-02    ;  uncertainty sigma = 0.000073, epsilon = 0.000702
 h36bf                                  1      0.0000       0.00000       A     2.62548e-01     6.71074e-02    ;  uncertainty sigma = 0.000030, epsilon = 0.000235
 h37bf                                  1      0.0000       0.00000       A     2.62571e-01     6.70381e-02    ;  uncertainty sigma = 0.000008, epsilon = 0.000473
 h38bf                                  1      0.0000       0.00000       A     2.62577e-01     6.71749e-02    ;  uncertainty sigma = 0.000013, epsilon = 0.000695
 h39bf                                  1      0.0000       0.00000       A     2.62608e-01     6.70651e-02    ;  uncertainty sigma = 0.000010, epsilon = 0.000435
 h40bf                                  1      0.0000       0.00000       A     1.88839e-01     8.73239e-02    ;  uncertainty sigma = 0.000129, epsilon = 0.001577
 h41bf                                  1      0.0000       0.00000       A     1.88839e-01     8.73239e-02    ;  uncertainty sigma = 0.000129, epsilon = 0.001577
 h42bf                                  1      0.0000       0.00000       A     1.10649e-01     4.11876e-02    ;  uncertainty sigma = 0.000180, epsilon = 0.001021
 h43bf                                  1      0.0000       0.00000       A     1.88764e-01     8.66398e-02    ;  uncertainty sigma = 0.000088, epsilon = 0.000806
 h44bf                                  1      0.0000       0.00000       A     1.88764e-01     8.66398e-02    ;  uncertainty sigma = 0.000088, epsilon = 0.000806
 h45bf                                  1      0.0000       0.00000       A     2.60030e-01     8.66906e-02    ;  uncertainty sigma = 0.000008, epsilon = 0.000905
 h46bf                                  1      0.0000       0.00000       A     2.60030e-01     8.66906e-02    ;  uncertainty sigma = 0.000008, epsilon = 0.000905
 h47bf                                  1      0.0000       0.00000       A     2.60047e-01     8.69055e-02    ;  uncertainty sigma = 0.000002, epsilon = 0.000829
 h48bf                                  1      0.0000       0.00000       A     2.60047e-01     8.69055e-02    ;  uncertainty sigma = 0.000002, epsilon = 0.000829
 h49bf                                  1      0.0000       0.00000       A     2.60030e-01     8.66906e-02    ;  uncertainty sigma = 0.000008, epsilon = 0.000905
 h50bf                                  1      0.0000       0.00000       A     2.60030e-01     8.66906e-02    ;  uncertainty sigma = 0.000008, epsilon = 0.000905
 h51bf                                  1      0.0000       0.00000       A     1.88764e-01     8.66398e-02    ;  uncertainty sigma = 0.000088, epsilon = 0.000806
 h52bf                                  1      0.0000       0.00000       A     1.88764e-01     8.66398e-02    ;  uncertainty sigma = 0.000088, epsilon = 0.000806
 h53bf                                  1      0.0000       0.00000       A     2.53606e-01     6.70939e-02    ;  uncertainty sigma = 0.000053, epsilon = 0.000458
 h54bf                                  1      0.0000       0.00000       A     2.60028e-01     8.68660e-02    ;  uncertainty sigma = 0.000008, epsilon = 0.000344
 h55bf                                  1      0.0000       0.00000       A     2.60028e-01     8.68660e-02    ;  uncertainty sigma = 0.000008, epsilon = 0.000344
 h56bf                                  1      0.0000       0.00000       A     2.60028e-01     8.68660e-02    ;  uncertainty sigma = 0.000008, epsilon = 0.000344

[ moleculetype ]
;name             nrexcl
 MOL                   3

[ atoms ]
;       nr            type      resi   res      atom      cgnr      charge          mass ; qtot
         1            c0bf         1   UNL        c0         1    -0.15903       12.0110 ; qtot   -0.159
         2            c1bf         1   UNL        c1         2     0.03651       12.0110 ; qtot   -0.123
         3            c2bf         1   UNL        c2         3    -0.13782       12.0110 ; qtot   -0.260
         4            c3bf         1   UNL        c3         4    -0.03839       12.0110 ; qtot   -0.299
         5            c4bf         1   UNL        c4         5    -0.21554       12.0110 ; qtot   -0.514
         6            c5bf         1   UNL        c5         6    -0.01428       12.0110 ; qtot   -0.529
         7            n6bf         1   UNL        n6         7    -0.02159       14.0070 ; qtot   -0.550
         8            n7bf         1   UNL        n7         8    -0.50923       14.0070 ; qtot   -1.059
         9            c8bf         1   UNL        c8         9     0.42687       12.0110 ; qtot   -0.632
        10            c9bf         1   UNL        c9        10    -0.09297       12.0110 ; qtot   -0.725
        11           n10bf         1   UNL       n10        11    -0.17863       14.0070 ; qtot   -0.904
        12           c11bf         1   UNL       c11        12    -0.14624       12.0110 ; qtot   -1.050
        13           c12bf         1   UNL       c12        13    -0.09138       12.0110 ; qtot   -1.142
        14           c13bf         1   UNL       c13        14    -0.01122       12.0110 ; qtot   -1.153
        15           c14bf         1   UNL       c14        15    -0.11583       12.0110 ; qtot   -1.269
        16           c15bf         1   UNL       c15        16    -0.09384       12.0110 ; qtot   -1.363
        17           c16bf         1   UNL       c16        17    -0.21383       12.0110 ; qtot   -1.576
        18           c17bf         1   UNL       c17        18    -0.02211       12.0110 ; qtot   -1.599
        19           c18bf         1   UNL       c18        19     0.21948       12.0110 ; qtot   -1.379
        20           n19bf         1   UNL       n19        20    -0.72723       14.0070 ; qtot   -2.106
        21           c20bf         1   UNL       c20        21     0.13697       12.0110 ; qtot   -1.969
        22           c21bf         1   UNL       c21        22    -0.10564       12.0110 ; qtot   -2.075
        23           c22bf         1   UNL       c22        23    -0.08930       12.0110 ; qtot   -2.164
        24           c23bf         1   UNL       c23        24    -0.10564       12.0110 ; qtot   -2.270
        25           c24bf         1   UNL       c24        25     0.13697       12.0110 ; qtot   -2.133
        26           n25bf         1   UNL       n25        26     0.14073       14.0070 ; qtot   -1.992
        27           c26bf         1   UNL       c26        27    -0.16292       12.0110 ; qtot   -2.155
        28           c27bf         1   UNL       c27        28     0.24647       12.0110 ; qtot   -1.909
        29           n28bf         1   UNL       n28        29    -0.34697       14.0070 ; qtot   -2.256
        30           n29bf         1   UNL       n29        30    -0.19145       14.0070 ; qtot   -2.447
        31           c30bf         1   UNL       c30        31    -0.02632       12.0110 ; qtot   -2.473
        32           h31bf         1   UNL       h31        32     0.15447        1.0080 ; qtot   -2.319
        33           h32bf         1   UNL       h32        33     0.16312        1.0080 ; qtot   -2.156
        34           h33bf         1   UNL       h33        34     0.15249        1.0080 ; qtot   -2.003
        35           h34bf         1   UNL       h34        35     0.32993        1.0080 ; qtot   -1.673
        36           h35bf         1   UNL       h35        36     0.30972        1.0080 ; qtot   -1.364
        37           h36bf         1   UNL       h36        37     0.16185        1.0080 ; qtot   -1.202
        38           h37bf         1   UNL       h37        38     0.14571        1.0080 ; qtot   -1.056
        39           h38bf         1   UNL       h38        39     0.14052        1.0080 ; qtot   -0.916
        40           h39bf         1   UNL       h39        40     0.14264        1.0080 ; qtot   -0.773
        41           h40bf         1   UNL       h40        41     0.09817        1.0080 ; qtot   -0.675
        42           h41bf         1   UNL       h41        42     0.09817        1.0080 ; qtot   -0.577
        43           h42bf         1   UNL       h42        43     0.44618        1.0080 ; qtot   -0.130
        44           h43bf         1   UNL       h43        44     0.09706        1.0080 ; qtot   -0.033
        45           h44bf         1   UNL       h44        45     0.09706        1.0080 ; qtot    0.064
        46           h45bf         1   UNL       h45        46     0.08728        1.0080 ; qtot    0.151
        47           h46bf         1   UNL       h46        47     0.08728        1.0080 ; qtot    0.238
        48           h47bf         1   UNL       h47        48     0.07955        1.0080 ; qtot    0.318
        49           h48bf         1   UNL       h48        49     0.07955        1.0080 ; qtot    0.397
        50           h49bf         1   UNL       h49        50     0.08728        1.0080 ; qtot    0.485
        51           h50bf         1   UNL       h50        51     0.08728        1.0080 ; qtot    0.572
        52           h51bf         1   UNL       h51        52     0.09706        1.0080 ; qtot    0.669
        53           h52bf         1   UNL       h52        53     0.09706        1.0080 ; qtot    0.766
        54           h53bf         1   UNL       h53        54     0.05251        1.0080 ; qtot    0.819
        55           h54bf         1   UNL       h54        55     0.06049        1.0080 ; qtot    0.879
        56           h55bf         1   UNL       h55        56     0.06049        1.0080 ; qtot    0.940
        57           h56bf         1   UNL       h56        57     0.06048        1.0080 ; qtot    1.000

[ bonds ]
;       ai        aj funct               r               k
         1         2     1        0.141499   334902.692480    ;  uncertainty r = 0.000129, k = 8.215692
         1         4     1        0.138471   364617.008984    ;  uncertainty r = 0.000077, k = 2.345662
         1        32     1        0.108700   335456.260400    ;  uncertainty r = 0.000018, k = 2.249785
         2         3     1        0.138527   350749.898926    ;  uncertainty r = 0.000106, k = 6.976130
         2        26     1        0.141499   319077.728857    ;  uncertainty r = 0.000091, k = 2.155229
         3         6     1        0.139721   363909.196924    ;  uncertainty r = 0.000043, k = 6.422348
         3        33     1        0.108782   336080.336279    ;  uncertainty r = 0.000060, k = 1.967381
         4         5     1        0.140314   357668.259375    ;  uncertainty r = 0.000077, k = 3.239719
         4        34     1        0.108655   334326.549756    ;  uncertainty r = 0.000032, k = 1.168890
         5         6     1        0.141761   397181.394580    ;  uncertainty r = 0.000086, k = 6.944034
         5         9     1        0.144370   228057.546436    ;  uncertainty r = 0.000020, k = 14.189427
         6         7     1        0.137529   293766.699512    ;  uncertainty r = 0.000061, k = 11.695317
         7         8     1        0.136307   293788.482666    ;  uncertainty r = 0.000072, k = 3.990315
         7        35     1        0.101090   415043.810937    ;  uncertainty r = 0.000029, k = 3.234701
         8         9     1        0.133460   447078.480273    ;  uncertainty r = 0.000096, k = 8.272837
         9        10     1        0.144794   289844.837939    ;  uncertainty r = 0.000097, k = 8.113485
        10        11     1        0.139278   314563.610645    ;  uncertainty r = 0.000138, k = 6.375764
        10        12     1        0.138557   411550.487598    ;  uncertainty r = 0.000054, k = 8.789488
        11        14     1        0.138425   328598.831494    ;  uncertainty r = 0.000062, k = 8.931475
        11        36     1        0.101173   411616.066895    ;  uncertainty r = 0.000057, k = 2.842789
        12        13     1        0.143692   255790.055566    ;  uncertainty r = 0.000105, k = 4.554133
        12        37     1        0.108254   339128.037061    ;  uncertainty r = 0.000025, k = 2.039581
        13        14     1        0.142749   371889.109473    ;  uncertainty r = 0.000072, k = 7.022474
        13        18     1        0.140315   369064.066748    ;  uncertainty r = 0.000085, k = 6.344517
        14        15     1        0.139681   367411.177344    ;  uncertainty r = 0.000052, k = 3.723678
        15        16     1        0.139020   366168.899121    ;  uncertainty r = 0.000059, k = 2.515093
        15        38     1        0.108877   336609.592871    ;  uncertainty r = 0.000015, k = 1.582506
        16        17     1        0.141750   334230.760059    ;  uncertainty r = 0.000211, k = 11.244450
        16        39     1        0.108854   333323.784082    ;  uncertainty r = 0.000014, k = 3.098911
        17        18     1        0.139748   350982.567529    ;  uncertainty r = 0.000152, k = 5.394295
        17        19     1        0.150103   226936.288574    ;  uncertainty r = 0.000114, k = 17.047802
        18        40     1        0.108909   332925.251953    ;  uncertainty r = 0.000037, k = 2.830692
        19        20     1        0.153660   179012.748999    ;  uncertainty r = 0.000327, k = 43.366644
        19        41     1        0.109181   310034.246777    ;  uncertainty r = 0.000035, k = 3.833353
        19        42     1        0.109181   310034.246777    ;  uncertainty r = 0.000035, k = 3.833353
        20        21     1        0.152169   180406.066455    ;  uncertainty r = 0.000049, k = 12.452743
        20        25     1        0.152169   180406.066455    ;  uncertainty r = 0.000049, k = 12.452743
        20        43     1        0.102586   390637.842285    ;  uncertainty r = 0.000036, k = 11.281185
        21        22     1        0.152834   209282.701929    ;  uncertainty r = 0.000028, k = 9.286892
        21        44     1        0.109144   310070.075342    ;  uncertainty r = 0.000010, k = 2.395423
        21        45     1        0.109144   310070.075342    ;  uncertainty r = 0.000010, k = 2.395423
        22        23     1        0.153701   218673.041797    ;  uncertainty r = 0.000042, k = 7.507755
        22        46     1        0.109502   309117.592236    ;  uncertainty r = 0.000018, k = 2.859548
        22        47     1        0.109502   309117.592236    ;  uncertainty r = 0.000018, k = 2.859548
        23        24     1        0.153701   218673.041797    ;  uncertainty r = 0.000042, k = 7.507755
        23        48     1        0.109462   308277.702246    ;  uncertainty r = 0.000013, k = 3.408438
        23        49     1        0.109462   308277.702246    ;  uncertainty r = 0.000013, k = 3.408438
        24        25     1        0.152834   209282.701929    ;  uncertainty r = 0.000028, k = 9.286892
        24        50     1        0.109502   309117.592236    ;  uncertainty r = 0.000018, k = 2.859548
        24        51     1        0.109502   309117.592236    ;  uncertainty r = 0.000018, k = 2.859548
        25        52     1        0.109144   310070.075342    ;  uncertainty r = 0.000010, k = 2.395423
        25        53     1        0.109144   310070.075342    ;  uncertainty r = 0.000010, k = 2.395423
        26        27     1        0.137235   266427.027734    ;  uncertainty r = 0.000051, k = 16.523964
        26        30     1        0.137221   226145.557520    ;  uncertainty r = 0.000150, k = 9.688474
        27        28     1        0.138055   436058.502539    ;  uncertainty r = 0.000051, k = 5.208263
        27        31     1        0.149453   245321.372949    ;  uncertainty r = 0.000041, k = 8.027860
        28        29     1        0.137106   268910.103027    ;  uncertainty r = 0.000045, k = 8.951229
        28        54     1        0.108354   338236.638721    ;  uncertainty r = 0.000021, k = 2.322842
        29        30     1        0.130048   442489.359570    ;  uncertainty r = 0.000067, k = 11.978709
        31        55     1        0.109455   310483.035937    ;  uncertainty r = 0.000018, k = 2.316047
        31        56     1        0.109455   310483.010400    ;  uncertainty r = 0.000018, k = 2.316044
        31        57     1        0.109455   310483.035937    ;  uncertainty r = 0.000018, k = 2.316047

[ angles ]
;       ai        aj        ak funct           theta             cth
         1         2         3     1      124.708275      394.067540    ;  uncertainty theta = 0.007389, k = 0.101441
         1         2        26     1      118.289406      470.576911    ;  uncertainty theta = 0.001908, k = 0.108404
         1         4         5     1      119.269875      536.825408    ;  uncertainty theta = 0.003059, k = 0.109546
         1         4        34     1      120.435486      282.914462    ;  uncertainty theta = 0.001618, k = 0.076742
         2         1         4     1      121.357910      519.663768    ;  uncertainty theta = 0.004925, k = 0.125910
         2         1        32     1      118.599892      272.922015    ;  uncertainty theta = 0.002203, k = 0.076388
         2         3         6     1      115.226501      512.764120    ;  uncertainty theta = 0.004943, k = 0.064183
         2         3        33     1      120.651268      268.276687    ;  uncertainty theta = 0.002214, k = 0.123174
         2        26        27     1      122.496193      357.085752    ;  uncertainty theta = 0.004512, k = 0.221885
         2        26        30     1      116.183899      433.946545    ;  uncertainty theta = 0.004550, k = 0.305057
         3         2        26     1      118.419151      460.342212    ;  uncertainty theta = 0.001741, k = 0.155897
         3         6         5     1      122.050987      370.536881    ;  uncertainty theta = 0.005845, k = 0.194646
         3         6         7     1      129.230209      397.233152    ;  uncertainty theta = 0.003040, k = 0.194899
         4         1        32     1      120.319717      296.104475    ;  uncertainty theta = 0.002205, k = 0.040901
         4         5         6     1      117.080338      395.454077    ;  uncertainty theta = 0.005439, k = 0.090019
         4         5         9     1      131.353439      367.458510    ;  uncertainty theta = 0.003553, k = 0.255477
         5         4        34     1      121.228928      278.462418    ;  uncertainty theta = 0.001528, k = 0.068677
         5         6         7     1      105.506180      650.461012    ;  uncertainty theta = 0.004122, k = 0.137588
         5         9         8     1      113.191727      811.068298    ;  uncertainty theta = 0.003934, k = 0.129646
         5         9        10     1      127.350197      329.149399    ;  uncertainty theta = 0.008095, k = 0.190319
         6         3        33     1      123.043419      292.975445    ;  uncertainty theta = 0.002506, k = 0.086910
         6         5         9     1      103.796875      752.040099    ;  uncertainty theta = 0.006177, k = 0.185837
         6         7         8     1      108.879471     1002.733689    ;  uncertainty theta = 0.004325, k = 0.032279
         6         7        35     1      115.959610      285.754700    ;  uncertainty theta = 0.005085, k = 0.122693
         7         8         9     1      109.045311      920.156381    ;  uncertainty theta = 0.003794, k = 0.170969
         8         7        35     1      108.269577      346.451110    ;  uncertainty theta = 0.005173, k = 0.076057
         8         9        10     1      120.762985      422.043699    ;  uncertainty theta = 0.004996, k = 0.118777
         9        10        11     1      119.132584      397.104668    ;  uncertainty theta = 0.005186, k = 0.178000
         9        10        12     1      128.640167      347.261370    ;  uncertainty theta = 0.004833, k = 0.168064
        10        11        14     1      106.165138      854.002691    ;  uncertainty theta = 0.002753, k = 0.085041
        10        11        36     1      116.293541      283.584141    ;  uncertainty theta = 0.006065, k = 0.113643
        10        12        13     1      107.187729      787.754258    ;  uncertainty theta = 0.002699, k = 0.072143
        10        12        37     1      123.161888      244.573158    ;  uncertainty theta = 0.003527, k = 0.152526
        11        10        12     1      111.264282      650.558244    ;  uncertainty theta = 0.002902, k = 0.165799
        11        14        13     1      108.242752      705.816974    ;  uncertainty theta = 0.002548, k = 0.146960
        11        14        15     1      129.553223      399.783192    ;  uncertainty theta = 0.001405, k = 0.079201
        12        13        14     1      106.846535      662.344706    ;  uncertainty theta = 0.001346, k = 0.176005
        12        13        18     1      132.347778      372.482490    ;  uncertainty theta = 0.003209, k = 0.146270
        13        12        37     1      124.819275      255.898052    ;  uncertainty theta = 0.003779, k = 0.072933
        13        14        15     1      119.718323      387.749499    ;  uncertainty theta = 0.002902, k = 0.065974
        13        18        17     1      119.763710      543.188936    ;  uncertainty theta = 0.005094, k = 0.209394
        13        18        40     1      120.935867      304.812789    ;  uncertainty theta = 0.002476, k = 0.040876
        14        11        36     1      116.981216      292.079827    ;  uncertainty theta = 0.005273, k = 0.076356
        14        13        18     1      116.553329      410.743879    ;  uncertainty theta = 0.005419, k = 0.156523
        14        15        16     1      117.036095      522.748204    ;  uncertainty theta = 0.003091, k = 0.092514
        14        15        38     1      122.463211      292.399360    ;  uncertainty theta = 0.001064, k = 0.070309
        15        16        17     1      123.551590      507.233644    ;  uncertainty theta = 0.008012, k = 0.030918
        15        16        39     1      119.046936      295.375869    ;  uncertainty theta = 0.001171, k = 0.111099
        16        15        38     1      120.796852      284.886821    ;  uncertainty theta = 0.001274, k = 0.066583
        16        17        18     1      124.084671      457.660305    ;  uncertainty theta = 0.007359, k = 0.143504
        16        17        19     1      118.705055      422.194495    ;  uncertainty theta = 0.000610, k = 0.181631
        17        16        39     1      118.020508      280.232140    ;  uncertainty theta = 0.003100, k = 0.193177
        17        18        40     1      119.015297      275.001023    ;  uncertainty theta = 0.004327, k = 0.205861
        17        19        20     1      112.946289      641.268802    ;  uncertainty theta = 0.003207, k = 0.126515
        17        19        41     1      109.866928      412.643393    ;  uncertainty theta = 0.002504, k = 0.135953
        17        19        42     1      109.866928      412.643393    ;  uncertainty theta = 0.002504, k = 0.135953
        18        17        19     1      118.955978      424.704857    ;  uncertainty theta = 0.002486, k = 0.075248
        19        20        21     1      111.988121      601.199098    ;  uncertainty theta = 0.006579, k = 0.139305
        19        20        25     1      111.988121      601.199098    ;  uncertainty theta = 0.006579, k = 0.139305
        19        20        43     1      106.858643      436.715726    ;  uncertainty theta = 0.004999, k = 0.136174
        20        19        41     1      105.880051      451.368249    ;  uncertainty theta = 0.004585, k = 0.191421
        20        19        42     1      105.880051      451.368249    ;  uncertainty theta = 0.004585, k = 0.191421
        20        21        22     1      110.708633      722.998277    ;  uncertainty theta = 0.001865, k = 0.132970
        20        21        44     1      106.218994      468.717554    ;  uncertainty theta = 0.002324, k = 0.085258
        20        21        45     1      106.218994      468.717554    ;  uncertainty theta = 0.002324, k = 0.085258
        20        25        24     1      110.708633      722.998277    ;  uncertainty theta = 0.001865, k = 0.132970
        20        25        52     1      106.218994      468.717554    ;  uncertainty theta = 0.002324, k = 0.085258
        20        25        53     1      106.218994      468.717554    ;  uncertainty theta = 0.002324, k = 0.085258
        21        20        25     1      111.821800      644.923226    ;  uncertainty theta = 0.001949, k = 0.259168
        21        20        43     1      106.543808      448.844735    ;  uncertainty theta = 0.004117, k = 0.223667
        21        22        23     1      109.790810      624.479174    ;  uncertainty theta = 0.004250, k = 0.083823
        21        22        46     1      107.363419      408.221227    ;  uncertainty theta = 0.002020, k = 0.076477
        21        22        47     1      107.363419      408.221227    ;  uncertainty theta = 0.002020, k = 0.076477
        22        21        44     1      111.185471      418.063421    ;  uncertainty theta = 0.001992, k = 0.101180
        22        21        45     1      111.185471      418.063421    ;  uncertainty theta = 0.001992, k = 0.101180
        22        23        24     1      108.999069      633.635057    ;  uncertainty theta = 0.005549, k = 0.186389
        22        23        48     1      108.669968      407.572266    ;  uncertainty theta = 0.002054, k = 0.047913
        22        23        49     1      108.669968      407.572266    ;  uncertainty theta = 0.002054, k = 0.047913
        23        22        46     1      109.402649      408.624746    ;  uncertainty theta = 0.001844, k = 0.027594
        23        22        47     1      109.402649      408.624746    ;  uncertainty theta = 0.001844, k = 0.027594
        23        24        25     1      109.790810      624.479174    ;  uncertainty theta = 0.004250, k = 0.083823
        23        24        50     1      109.402649      408.624746    ;  uncertainty theta = 0.001844, k = 0.027594
        23        24        51     1      109.402649      408.624746    ;  uncertainty theta = 0.001844, k = 0.027594
        24        23        48     1      108.669968      407.572266    ;  uncertainty theta = 0.002054, k = 0.047913
        24        23        49     1      108.669968      407.572266    ;  uncertainty theta = 0.002054, k = 0.047913
        24        25        52     1      111.185471      418.063421    ;  uncertainty theta = 0.001992, k = 0.101180
        24        25        53     1      111.185471      418.063421    ;  uncertainty theta = 0.001992, k = 0.101180
        25        20        43     1      106.543808      448.844735    ;  uncertainty theta = 0.004117, k = 0.223667
        25        24        50     1      107.363419      408.221227    ;  uncertainty theta = 0.002020, k = 0.076477
        25        24        51     1      107.363419      408.221227    ;  uncertainty theta = 0.002020, k = 0.076477
        26        27        28     1      105.449600      704.076684    ;  uncertainty theta = 0.001978, k = 0.134281
        26        27        31     1      120.121788      399.226291    ;  uncertainty theta = 0.006110, k = 0.099505
        26        30        29     1      108.411545     1159.029289    ;  uncertainty theta = 0.003497, k = 0.076173
        27        26        30     1      110.230064      927.885889    ;  uncertainty theta = 0.003637, k = 0.263928
        27        28        29     1      109.170349      871.159159    ;  uncertainty theta = 0.002363, k = 0.136316
        27        28        54     1      126.330223      241.445325    ;  uncertainty theta = 0.001987, k = 0.050656
        27        31        55     1      109.240524      409.175390    ;  uncertainty theta = 0.001050, k = 0.049528
        27        31        56     1      109.240524      409.175390    ;  uncertainty theta = 0.001050, k = 0.049528
        27        31        57     1      109.240524      409.175390    ;  uncertainty theta = 0.001050, k = 0.049528
        28        27        31     1      131.908142      331.404453    ;  uncertainty theta = 0.003968, k = 0.166938
        28        29        30     1      109.328758      967.971490    ;  uncertainty theta = 0.001468, k = 0.137212
        29        28        54     1      119.143776      301.762126    ;  uncertainty theta = 0.001242, k = 0.084217
        41        19        42     1      106.646156      319.393074    ;  uncertainty theta = 0.003403, k = 0.028629
        44        21        45     1      107.461449      325.817508    ;  uncertainty theta = 0.003055, k = 0.044212
        46        22        47     1      104.866112      316.124707    ;  uncertainty theta = 0.003395, k = 0.053955
        48        23        49     1      104.130638      320.035651    ;  uncertainty theta = 0.002967, k = 0.052617
        50        24        51     1      104.866112      316.124707    ;  uncertainty theta = 0.003395, k = 0.053955
        52        25        53     1      107.461449      325.817508    ;  uncertainty theta = 0.003055, k = 0.044212
        55        31        56     1      106.720116      313.762365    ;  uncertainty theta = 0.000856, k = 0.032339
        55        31        57     1      106.720116      313.762365    ;  uncertainty theta = 0.000856, k = 0.032338
        56        31        57     1      106.720116      313.762365    ;  uncertainty theta = 0.000856, k = 0.032339

[ dihedrals ] ; propers for gromacs 4.5 or higher, use funct 9
;       ai        aj        ak        al funct           phase               k        pn
         1         2         3         6     9        0.000000        0.055129         1    ;  uncertainty k = 0.158287
         1         2         3         6     9      180.000000       12.414192         2    ;  uncertainty k = 0.127815
         1         2         3         6     9        0.000000        0.143171         3    ;  uncertainty k = 0.303645
         1         2         3         6     9      180.000000        1.003937         4    ;  uncertainty k = 0.253238
         1         2         3        33     9        0.000000        0.249143         1    ;  uncertainty k = 0.303693
         1         2         3        33     9      180.000000        7.389499         2    ;  uncertainty k = 0.756563
         1         2         3        33     9        0.000000        1.556239         3    ;  uncertainty k = 0.302896
         1         2         3        33     9      180.000000        1.668096         4    ;  uncertainty k = 0.252219
         1         2        26        27     9        0.000000        1.247160         1    ;  uncertainty k = 0.617275
         1         2        26        27     9      180.000000        3.564034         2    ;  uncertainty k = 0.119527
         1         2        26        27     9        0.000000        0.636010         3    ;  uncertainty k = 0.225097
         1         2        26        27     9      180.000000       -0.033142         4    ;  uncertainty k = 0.105219
         1         2        26        30     9        0.000000        0.731503         1    ;  uncertainty k = 0.612633
         1         2        26        30     9      180.000000        4.081051         2    ;  uncertainty k = 0.225081
         1         2        26        30     9        0.000000        0.630572         3    ;  uncertainty k = 0.208071
         1         2        26        30     9      180.000000        0.050491         4    ;  uncertainty k = 0.072773
         1         4         5         6     9        0.000000       -0.002550         1    ;  uncertainty k = 0.317510
         1         4         5         6     9      180.000000       13.691549         2    ;  uncertainty k = 0.227485
         1         4         5         6     9        0.000000       -1.884864         3    ;  uncertainty k = 0.634221
         1         4         5         6     9      180.000000        0.669146         4    ;  uncertainty k = 0.275258
         1         4         5         9     9        0.000000        0.361277         1    ;  uncertainty k = 0.396444
         1         4         5         9     9      180.000000        8.795395         2    ;  uncertainty k = 0.457702
         1         4         5         9     9        0.000000        0.658693         3    ;  uncertainty k = 0.447441
         1         4         5         9     9      180.000000        1.271464         4    ;  uncertainty k = 0.122104
         2         1         4         5     9        0.000000       -0.191807         1    ;  uncertainty k = 0.214490
         2         1         4         5     9      180.000000       16.230271         2    ;  uncertainty k = 0.344703
         2         1         4         5     9        0.000000       -0.254371         3    ;  uncertainty k = 0.371385
         2         1         4         5     9      180.000000        0.767805         4    ;  uncertainty k = 0.197119
         2         1         4        34     9        0.000000       -0.144050         1    ;  uncertainty k = 0.383242
         2         1         4        34     9      180.000000        9.148232         2    ;  uncertainty k = 0.522583
         2         1         4        34     9        0.000000        1.372665         3    ;  uncertainty k = 0.248037
         2         1         4        34     9      180.000000        1.887522         4    ;  uncertainty k = 0.290012
         2         3         6         5     9        0.000000       -0.151775         1    ;  uncertainty k = 0.259685
         2         3         6         5     9      180.000000       12.080518         2    ;  uncertainty k = 0.268609
         2         3         6         5     9        0.000000       -1.358718         3    ;  uncertainty k = 0.538234
         2         3         6         5     9      180.000000        0.736728         4    ;  uncertainty k = 0.221651
         2         3         6         7     9        0.000000        0.024854         1    ;  uncertainty k = 0.230069
         2         3         6         7     9      180.000000       10.526238         2    ;  uncertainty k = 0.718953
         2         3         6         7     9        0.000000        0.824853         3    ;  uncertainty k = 0.152409
         2         3         6         7     9      180.000000        1.198202         4    ;  uncertainty k = 0.390753
         2        26        27        28     9        0.000000        1.541884         1    ;  uncertainty k = 1.041180
         2        26        27        28     9      180.000000        7.542432         2    ;  uncertainty k = 0.531160
         2        26        27        28     9        0.000000        1.569264         3    ;  uncertainty k = 0.600386
         2        26        27        28     9      180.000000        0.109563         4    ;  uncertainty k = 0.194614
         2        26        27        31     9        0.000000       -0.136644         1    ;  uncertainty k = 0.772731
         2        26        27        31     9      180.000000        4.342791         2    ;  uncertainty k = 0.464299
         2        26        27        31     9        0.000000        1.036669         3    ;  uncertainty k = 0.430079
         2        26        27        31     9      180.000000        0.119757         4    ;  uncertainty k = 0.085758
         2        26        30        29     9        0.000000        0.504452         1    ;  uncertainty k = 2.180178
         2        26        30        29     9      180.000000       19.214149         2    ;  uncertainty k = 0.357058
         2        26        30        29     9        0.000000        1.372427         3    ;  uncertainty k = 0.626995
         2        26        30        29     9      180.000000        0.165181         4    ;  uncertainty k = 0.394559
         3         2         1         4     9        0.000000       -0.101846         1    ;  uncertainty k = 0.221381
         3         2         1         4     9      180.000000        8.306131         2    ;  uncertainty k = 0.489514
         3         2         1         4     9        0.000000        0.023262         3    ;  uncertainty k = 0.365077
         3         2         1         4     9      180.000000        1.145443         4    ;  uncertainty k = 0.191012
         3         2         1        32     9        0.000000        0.099321         1    ;  uncertainty k = 0.286346
         3         2         1        32     9      180.000000        6.010194         2    ;  uncertainty k = 0.881431
         3         2         1        32     9        0.000000        1.267593         3    ;  uncertainty k = 0.245609
         3         2         1        32     9      180.000000        1.540712         4    ;  uncertainty k = 0.295261
         3         2        26        27     9        0.000000        1.593380         1    ;  uncertainty k = 0.706178
         3         2        26        27     9      180.000000        3.381632         2    ;  uncertainty k = 0.290068
         3         2        26        27     9        0.000000        0.478450         3    ;  uncertainty k = 0.256290
         3         2        26        27     9      180.000000       -0.017636         4    ;  uncertainty k = 0.051422
         3         2        26        30     9        0.000000        0.765684         1    ;  uncertainty k = 0.661653
         3         2        26        30     9      180.000000        3.899043         2    ;  uncertainty k = 0.195322
         3         2        26        30     9        0.000000        0.540032         3    ;  uncertainty k = 0.308759
         3         2        26        30     9      180.000000        0.068148         4    ;  uncertainty k = 0.063729
         3         6         5         4     9        0.000000       -0.654442         1    ;  uncertainty k = 0.895653
         3         6         5         4     9      180.000000        7.123170         2    ;  uncertainty k = 0.352472
         3         6         5         4     9        0.000000        0.240978         3    ;  uncertainty k = 0.219943
         3         6         5         4     9      180.000000        1.030359         4    ;  uncertainty k = 0.329198
         3         6         5         9     9        0.000000       -0.124810         1    ;  uncertainty k = 0.590699
         3         6         5         9     9      180.000000        7.241431         2    ;  uncertainty k = 0.385990
         3         6         5         9     9        0.000000        0.227939         3    ;  uncertainty k = 0.360666
         3         6         5         9     9      180.000000        1.304691         4    ;  uncertainty k = 0.360561
         3         6         7         8     9        0.000000        0.898586         1    ;  uncertainty k = 0.714460
         3         6         7         8     9      180.000000        7.268232         2    ;  uncertainty k = 0.435992
         3         6         7         8     9        0.000000        0.707681         3    ;  uncertainty k = 0.411268
         3         6         7         8     9      180.000000        0.293170         4    ;  uncertainty k = 0.221951
         3         6         7        35     9        0.000000        2.094589         1    ;  uncertainty k = 1.158183
         3         6         7        35     9      180.000000        1.659238         2    ;  uncertainty k = 0.793073
         3         6         7        35     9        0.000000        1.333324         3    ;  uncertainty k = 0.579058
         3         6         7        35     9      180.000000        0.135265         4    ;  uncertainty k = 0.138822
         4         1         2        26     9        0.000000        0.186437         1    ;  uncertainty k = 0.251955
         4         1         2        26     9      180.000000        9.132747         2    ;  uncertainty k = 0.595311
         4         1         2        26     9        0.000000        1.353063         3    ;  uncertainty k = 0.397264
         4         1         2        26     9      180.000000        1.667060         4    ;  uncertainty k = 0.301862
         4         5         6         7     9        0.000000       -0.060127         1    ;  uncertainty k = 0.533650
         4         5         6         7     9      180.000000        8.287731         2    ;  uncertainty k = 0.170063
         4         5         6         7     9        0.000000       -0.160007         3    ;  uncertainty k = 0.467566
         4         5         6         7     9      180.000000        1.223404         4    ;  uncertainty k = 0.357058
         4         5         9         8     9        0.000000        0.911039         1    ;  uncertainty k = 0.370721
         4         5         9         8     9      180.000000        6.477471         2    ;  uncertainty k = 0.620370
         4         5         9         8     9        0.000000        0.412290         3    ;  uncertainty k = 0.237956
         4         5         9         8     9      180.000000        0.940402         4    ;  uncertainty k = 0.231728
         4         5         9        10     9        0.000000        0.147938         1    ;  uncertainty k = 1.271514
         4         5         9        10     9      180.000000        4.830457         2    ;  uncertainty k = 1.295784
         4         5         9        10     9        0.000000        1.382010         3    ;  uncertainty k = 0.175599
         4         5         9        10     9      180.000000        0.054217         4    ;  uncertainty k = 0.256739
         5         4         1        32     9        0.000000        0.125723         1    ;  uncertainty k = 0.320113
         5         4         1        32     9      180.000000       11.066392         2    ;  uncertainty k = 0.360428
         5         4         1        32     9        0.000000        1.529188         3    ;  uncertainty k = 0.334968
         5         4         1        32     9      180.000000        1.818473         4    ;  uncertainty k = 0.301810
         5         6         3        33     9        0.000000        0.104653         1    ;  uncertainty k = 0.324961
         5         6         3        33     9      180.000000        6.502421         2    ;  uncertainty k = 1.305691
         5         6         3        33     9        0.000000        1.363512         3    ;  uncertainty k = 0.152860
         5         6         3        33     9      180.000000        1.093467         4    ;  uncertainty k = 0.447805
         5         6         7         8     9        0.000000        0.412577         1    ;  uncertainty k = 0.464575
         5         6         7         8     9      180.000000       17.614812         2    ;  uncertainty k = 1.124875
         5         6         7         8     9        0.000000       -8.116217         3    ;  uncertainty k = 1.173974
         5         6         7         8     9      180.000000        0.703178         4    ;  uncertainty k = 0.479201
         5         6         7        35     9        0.000000        4.467762         1    ;  uncertainty k = 1.789533
         5         6         7        35     9      180.000000        5.936034         2    ;  uncertainty k = 1.293948
         5         6         7        35     9        0.000000        1.354973         3    ;  uncertainty k = 0.259701
         5         6         7        35     9      180.000000        0.043673         4    ;  uncertainty k = 0.148412
         5         9         8         7     9        0.000000       -0.132641         1    ;  uncertainty k = 0.556030
         5         9         8         7     9      180.000000       23.108355         2    ;  uncertainty k = 0.296179
         5         9         8         7     9        0.000000       -3.619173         3    ;  uncertainty k = 0.881397
         5         9         8         7     9      180.000000        2.087164         4    ;  uncertainty k = 0.552789
         5         9        10        11     9        0.000000        1.857987         1    ;  uncertainty k = 0.949706
         5         9        10        11     9      180.000000        2.866333         2    ;  uncertainty k = 0.304444
         5         9        10        11     9        0.000000        0.920415         3    ;  uncertainty k = 0.201477
         5         9        10        11     9      180.000000       -0.076120         4    ;  uncertainty k = 0.124703
         5         9        10        12     9        0.000000        0.260947         1    ;  uncertainty k = 0.915814
         5         9        10        12     9      180.000000        2.381500         2    ;  uncertainty k = 0.307618
         5         9        10        12     9        0.000000        0.482504         3    ;  uncertainty k = 0.166592
         5         9        10        12     9      180.000000       -0.005802         4    ;  uncertainty k = 0.106168
         6         3         2        26     9        0.000000        0.474126         1    ;  uncertainty k = 0.561763
         6         3         2        26     9      180.000000       13.689199         2    ;  uncertainty k = 0.205118
         6         3         2        26     9        0.000000        1.394875         3    ;  uncertainty k = 0.164556
         6         3         2        26     9      180.000000        1.377916         4    ;  uncertainty k = 0.257071
         6         5         4        34     9        0.000000        0.053800         1    ;  uncertainty k = 0.510322
         6         5         4        34     9      180.000000        7.571625         2    ;  uncertainty k = 0.825661
         6         5         4        34     9        0.000000        1.301018         3    ;  uncertainty k = 0.334088
         6         5         4        34     9      180.000000        1.099085         4    ;  uncertainty k = 0.454183
         6         5         9         8     9        0.000000        0.457461         1    ;  uncertainty k = 0.465828
         6         5         9         8     9      180.000000       13.287498         2    ;  uncertainty k = 0.774725
         6         5         9         8     9        0.000000      -10.578331         3    ;  uncertainty k = 1.760185
         6         5         9         8     9      180.000000        2.020830         4    ;  uncertainty k = 0.460145
         6         5         9        10     9        0.000000        0.987731         1    ;  uncertainty k = 1.715021
         6         5         9        10     9      180.000000        9.425452         2    ;  uncertainty k = 0.413170
         6         5         9        10     9        0.000000        1.273706         3    ;  uncertainty k = 0.286157
         6         5         9        10     9      180.000000        0.441891         4    ;  uncertainty k = 0.299821
         6         7         8         9     9        0.000000       -0.791774         1    ;  uncertainty k = 0.756221
         6         7         8         9     9      180.000000       17.497521         2    ;  uncertainty k = 0.709923
         6         7         8         9     9        0.000000       -4.704419         3    ;  uncertainty k = 1.271611
         6         7         8         9     9      180.000000        0.988510         4    ;  uncertainty k = 0.577361
         7         6         3        33     9        0.000000        0.179718         1    ;  uncertainty k = 0.501377
         7         6         3        33     9      180.000000        5.517740         2    ;  uncertainty k = 1.117872
         7         6         3        33     9        0.000000        1.244614         3    ;  uncertainty k = 0.190707
         7         6         3        33     9      180.000000        0.850916         4    ;  uncertainty k = 0.469307
         7         6         5         9     9        0.000000       -0.468994         1    ;  uncertainty k = 0.090338
         7         6         5         9     9      180.000000       12.555864         2    ;  uncertainty k = 0.788676
         7         6         5         9     9        0.000000       -3.877704         3    ;  uncertainty k = 1.492549
         7         6         5         9     9      180.000000        1.550291         4    ;  uncertainty k = 0.494745
         7         8         9        10     9        0.000000        0.061610         1    ;  uncertainty k = 0.466606
         7         8         9        10     9      180.000000       25.044339         2    ;  uncertainty k = 0.427445
         7         8         9        10     9        0.000000        1.724584         3    ;  uncertainty k = 0.533843
         7         8         9        10     9      180.000000        1.067933         4    ;  uncertainty k = 0.441022
         8         9        10        11     9        0.000000        0.781710         1    ;  uncertainty k = 0.994313
         8         9        10        11     9      180.000000        4.218386         2    ;  uncertainty k = 0.146827
         8         9        10        11     9        0.000000        0.456255         3    ;  uncertainty k = 0.336140
         8         9        10        11     9      180.000000        0.006739         4    ;  uncertainty k = 0.109076
         8         9        10        12     9        0.000000        1.294517         1    ;  uncertainty k = 0.682896
         8         9        10        12     9      180.000000        3.396277         2    ;  uncertainty k = 0.207658
         8         9        10        12     9        0.000000        1.007984         3    ;  uncertainty k = 0.211819
         8         9        10        12     9      180.000000       -0.027329         4    ;  uncertainty k = 0.091070
         9         5         4        34     9        0.000000        0.258334         1    ;  uncertainty k = 0.525377
         9         5         4        34     9      180.000000        5.565672         2    ;  uncertainty k = 0.453685
         9         5         4        34     9        0.000000        1.138721         3    ;  uncertainty k = 0.067890
         9         5         4        34     9      180.000000        0.604037         4    ;  uncertainty k = 0.280369
         9         8         7        35     9        0.000000        3.382701         1    ;  uncertainty k = 2.507818
         9         8         7        35     9      180.000000       12.119454         2    ;  uncertainty k = 0.260055
         9         8         7        35     9        0.000000        1.625366         3    ;  uncertainty k = 1.027450
         9         8         7        35     9      180.000000       -0.148381         4    ;  uncertainty k = 0.504395
         9        10        11        14     9        0.000000        0.972876         1    ;  uncertainty k = 0.747688
         9        10        11        14     9      180.000000        9.072037         2    ;  uncertainty k = 0.685183
         9        10        11        14     9        0.000000        1.396325         3    ;  uncertainty k = 0.437267
         9        10        11        14     9      180.000000        0.162816         4    ;  uncertainty k = 0.433254
         9        10        11        36     9        0.000000        0.918600         1    ;  uncertainty k = 1.149431
         9        10        11        36     9      180.000000        2.312194         2    ;  uncertainty k = 0.875632
         9        10        11        36     9        0.000000        1.179158         3    ;  uncertainty k = 0.546571
         9        10        11        36     9      180.000000        0.033563         4    ;  uncertainty k = 0.163922
         9        10        12        13     9        0.000000        0.445398         1    ;  uncertainty k = 0.425637
         9        10        12        13     9      180.000000       14.898008         2    ;  uncertainty k = 0.250982
         9        10        12        13     9        0.000000        1.555908         3    ;  uncertainty k = 0.315662
         9        10        12        13     9      180.000000        0.839320         4    ;  uncertainty k = 0.195174
         9        10        12        37     9        0.000000        0.548979         1    ;  uncertainty k = 0.628695
         9        10        12        37     9      180.000000        8.040030         2    ;  uncertainty k = 0.846047
         9        10        12        37     9        0.000000        1.437429         3    ;  uncertainty k = 0.231870
         9        10        12        37     9      180.000000        0.430055         4    ;  uncertainty k = 0.351490
        10        11        14        13     9        0.000000        0.677224         1    ;  uncertainty k = 0.484040
        10        11        14        13     9      180.000000       15.391538         2    ;  uncertainty k = 0.543861
        10        11        14        13     9        0.000000       -7.176031         3    ;  uncertainty k = 1.504592
        10        11        14        13     9      180.000000        0.720549         4    ;  uncertainty k = 0.312836
        10        11        14        15     9        0.000000        1.177185         1    ;  uncertainty k = 1.388290
        10        11        14        15     9      180.000000        6.066057         2    ;  uncertainty k = 0.681074
        10        11        14        15     9        0.000000        0.556232         3    ;  uncertainty k = 0.680744
        10        11        14        15     9      180.000000        0.362922         4    ;  uncertainty k = 0.189431
        10        12        13        14     9        0.000000        0.361292         1    ;  uncertainty k = 1.330430
        10        12        13        14     9      180.000000       13.508990         2    ;  uncertainty k = 0.841570
        10        12        13        14     9        0.000000      -10.232746         3    ;  uncertainty k = 2.429813
        10        12        13        14     9      180.000000        1.943500         4    ;  uncertainty k = 0.699510
        10        12        13        18     9        0.000000        0.719928         1    ;  uncertainty k = 1.051785
        10        12        13        18     9      180.000000        7.152434         2    ;  uncertainty k = 0.463258
        10        12        13        18     9        0.000000        0.639458         3    ;  uncertainty k = 0.568479
        10        12        13        18     9      180.000000        0.881597         4    ;  uncertainty k = 0.181196
        11        10        12        13     9        0.000000       -0.170591         1    ;  uncertainty k = 0.457887
        11        10        12        13     9      180.000000       21.183000         2    ;  uncertainty k = 0.305566
        11        10        12        13     9        0.000000       -5.763849         3    ;  uncertainty k = 0.923330
        11        10        12        13     9      180.000000        1.114901         4    ;  uncertainty k = 0.646691
        11        10        12        37     9        0.000000        0.167060         1    ;  uncertainty k = 0.788367
        11        10        12        37     9      180.000000       13.631220         2    ;  uncertainty k = 0.279679
        11        10        12        37     9        0.000000        1.611237         3    ;  uncertainty k = 0.521630
        11        10        12        37     9      180.000000        0.833703         4    ;  uncertainty k = 0.212157
        11        14        13        12     9        0.000000       -0.202825         1    ;  uncertainty k = 0.478407
        11        14        13        12     9      180.000000       13.002652         2    ;  uncertainty k = 0.931177
        11        14        13        12     9        0.000000       -3.504618         3    ;  uncertainty k = 1.340468
        11        14        13        12     9      180.000000        1.499261         4    ;  uncertainty k = 0.893862
        11        14        13        18     9        0.000000       -0.009400         1    ;  uncertainty k = 0.665287
        11        14        13        18     9      180.000000        8.599465         2    ;  uncertainty k = 0.303691
        11        14        13        18     9        0.000000        0.039108         3    ;  uncertainty k = 0.634312
        11        14        13        18     9      180.000000        1.157750         4    ;  uncertainty k = 0.318749
        11        14        15        16     9        0.000000        0.101687         1    ;  uncertainty k = 0.492650
        11        14        15        16     9      180.000000       10.396881         2    ;  uncertainty k = 0.405513
        11        14        15        16     9        0.000000        0.905536         3    ;  uncertainty k = 0.217852
        11        14        15        16     9      180.000000        1.193490         4    ;  uncertainty k = 0.199283
        11        14        15        38     9        0.000000        0.297608         1    ;  uncertainty k = 0.281792
        11        14        15        38     9      180.000000        5.979846         2    ;  uncertainty k = 0.436306
        11        14        15        38     9        0.000000        1.081486         3    ;  uncertainty k = 0.443402
        11        14        15        38     9      180.000000        0.788557         4    ;  uncertainty k = 0.396366
        12        10        11        14     9        0.000000       -0.312845         1    ;  uncertainty k = 0.580788
        12        10        11        14     9      180.000000       14.762202         2    ;  uncertainty k = 0.576008
        12        10        11        14     9        0.000000       -6.005934         3    ;  uncertainty k = 0.754875
        12        10        11        14     9      180.000000        0.807473         4    ;  uncertainty k = 0.503918
        12        10        11        36     9        0.000000        2.692548         1    ;  uncertainty k = 0.930202
        12        10        11        36     9      180.000000        7.104361         2    ;  uncertainty k = 0.633239
        12        10        11        36     9        0.000000        1.708608         3    ;  uncertainty k = 0.800499
        12        10        11        36     9      180.000000       -0.086000         4    ;  uncertainty k = 0.169592
        12        13        14        15     9        0.000000        0.122372         1    ;  uncertainty k = 0.493782
        12        13        14        15     9      180.000000        7.658649         2    ;  uncertainty k = 0.231490
        12        13        14        15     9        0.000000        0.307669         3    ;  uncertainty k = 0.516181
        12        13        14        15     9      180.000000        1.225404         4    ;  uncertainty k = 0.295152
        12        13        18        17     9        0.000000        0.273940         1    ;  uncertainty k = 0.242143
        12        13        18        17     9      180.000000        9.158220         2    ;  uncertainty k = 0.581427
        12        13        18        17     9        0.000000        0.774232         3    ;  uncertainty k = 0.207770
        12        13        18        17     9      180.000000        1.313479         4    ;  uncertainty k = 0.061551
        12        13        18        40     9        0.000000        0.176521         1    ;  uncertainty k = 0.521884
        12        13        18        40     9      180.000000        6.160616         2    ;  uncertainty k = 0.516039
        12        13        18        40     9        0.000000        1.150569         3    ;  uncertainty k = 0.299354
        12        13        18        40     9      180.000000        0.773380         4    ;  uncertainty k = 0.265485
        13        14        11        36     9        0.000000        4.251255         1    ;  uncertainty k = 1.360478
        13        14        11        36     9      180.000000        5.652297         2    ;  uncertainty k = 0.865941
        13        14        11        36     9        0.000000        1.218097         3    ;  uncertainty k = 0.455419
        13        14        11        36     9      180.000000        0.178738         4    ;  uncertainty k = 0.095967
        13        14        15        16     9        0.000000        0.138507         1    ;  uncertainty k = 0.419631
        13        14        15        16     9      180.000000       12.342478         2    ;  uncertainty k = 0.198431
        13        14        15        16     9        0.000000       -1.190024         3    ;  uncertainty k = 0.162598
        13        14        15        16     9      180.000000        0.787465         4    ;  uncertainty k = 0.236198
        13        14        15        38     9        0.000000        0.110142         1    ;  uncertainty k = 0.471897
        13        14        15        38     9      180.000000        6.826218         2    ;  uncertainty k = 0.834942
        13        14        15        38     9        0.000000        1.286748         3    ;  uncertainty k = 0.286966
        13        14        15        38     9      180.000000        1.215500         4    ;  uncertainty k = 0.381963
        13        18        17        16     9        0.000000       -0.120548         1    ;  uncertainty k = 0.442668
        13        18        17        16     9      180.000000       14.435859         2    ;  uncertainty k = 0.456972
        13        18        17        16     9        0.000000       -0.084202         3    ;  uncertainty k = 0.428045
        13        18        17        16     9      180.000000        0.846335         4    ;  uncertainty k = 0.451327
        13        18        17        19     9        0.000000        0.079424         1    ;  uncertainty k = 0.272272
        13        18        17        19     9      180.000000       12.474388         2    ;  uncertainty k = 0.384270
        13        18        17        19     9        0.000000        1.421860         3    ;  uncertainty k = 0.339278
        13        18        17        19     9      180.000000        1.635099         4    ;  uncertainty k = 0.224797
        14        13        12        37     9        0.000000        0.017967         1    ;  uncertainty k = 0.631560
        14        13        12        37     9      180.000000        8.382173         2    ;  uncertainty k = 0.283584
        14        13        12        37     9        0.000000        1.223121         3    ;  uncertainty k = 0.388946
        14        13        12        37     9      180.000000        0.290886         4    ;  uncertainty k = 0.214805
        14        13        18        17     9        0.000000        0.115653         1    ;  uncertainty k = 0.417507
        14        13        18        17     9      180.000000       13.211841         2    ;  uncertainty k = 0.348487
        14        13        18        17     9        0.000000       -1.525755         3    ;  uncertainty k = 0.580502
        14        13        18        17     9      180.000000        0.752655         4    ;  uncertainty k = 0.130469
        14        13        18        40     9        0.000000        0.217180         1    ;  uncertainty k = 0.371606
        14        13        18        40     9      180.000000        7.628301         2    ;  uncertainty k = 0.907146
        14        13        18        40     9        0.000000        1.336832         3    ;  uncertainty k = 0.359407
        14        13        18        40     9      180.000000        1.243972         4    ;  uncertainty k = 0.290146
        14        15        16        17     9        0.000000       -0.069405         1    ;  uncertainty k = 0.317444
        14        15        16        17     9      180.000000       15.480187         2    ;  uncertainty k = 0.356555
        14        15        16        17     9        0.000000       -0.213723         3    ;  uncertainty k = 0.302107
        14        15        16        17     9      180.000000        0.786315         4    ;  uncertainty k = 0.335466
        14        15        16        39     9        0.000000       -0.162996         1    ;  uncertainty k = 0.244564
        14        15        16        39     9      180.000000       11.002376         2    ;  uncertainty k = 0.216657
        14        15        16        39     9        0.000000        1.394471         3    ;  uncertainty k = 0.287042
        14        15        16        39     9      180.000000        1.583323         4    ;  uncertainty k = 0.169870
        15        14        11        36     9        0.000000        1.269472         1    ;  uncertainty k = 0.837827
        15        14        11        36     9      180.000000        2.067532         2    ;  uncertainty k = 0.608338
        15        14        11        36     9        0.000000        1.208102         3    ;  uncertainty k = 0.532703
        15        14        11        36     9      180.000000        0.096571         4    ;  uncertainty k = 0.215072
        15        14        13        18     9        0.000000       -0.706833         1    ;  uncertainty k = 0.684641
        15        14        13        18     9      180.000000        7.606582         2    ;  uncertainty k = 0.334024
        15        14        13        18     9        0.000000        0.144136         3    ;  uncertainty k = 0.309429
        15        14        13        18     9      180.000000        0.910966         4    ;  uncertainty k = 0.352736
        15        16        17        18     9        0.000000       -0.338036         1    ;  uncertainty k = 0.337143
        15        16        17        18     9      180.000000       11.066610         2    ;  uncertainty k = 0.368774
        15        16        17        18     9        0.000000       -0.486274         3    ;  uncertainty k = 0.431050
        15        16        17        18     9      180.000000        0.915685         4    ;  uncertainty k = 0.301678
        15        16        17        19     9        0.000000        0.309409         1    ;  uncertainty k = 0.338090
        15        16        17        19     9      180.000000        8.685456         2    ;  uncertainty k = 0.600813
        15        16        17        19     9        0.000000        1.302275         3    ;  uncertainty k = 0.420104
        15        16        17        19     9      180.000000        1.806136         4    ;  uncertainty k = 0.242347
        16        17        18        40     9        0.000000        0.255434         1    ;  uncertainty k = 0.332067
        16        17        18        40     9      180.000000        8.320365         2    ;  uncertainty k = 0.480036
        16        17        18        40     9        0.000000        1.477869         3    ;  uncertainty k = 0.227399
        16        17        18        40     9      180.000000        1.668731         4    ;  uncertainty k = 0.153873
        16        17        19        20     9        0.000000       -0.502648         1    ;  uncertainty k = 1.172516
        16        17        19        20     9      180.000000       -0.311487         2    ;  uncertainty k = 0.247766
        16        17        19        20     9        0.000000        0.789899         3    ;  uncertainty k = 0.241029
        16        17        19        20     9      180.000000        0.138126         4    ;  uncertainty k = 0.126498
        16        17        19        41     9        0.000000       -0.779480         1    ;  uncertainty k = 0.316160
        16        17        19        41     9      180.000000        1.643899         2    ;  uncertainty k = 0.203375
        16        17        19        41     9        0.000000        0.566007         3    ;  uncertainty k = 0.131158
        16        17        19        41     9      180.000000        0.097303         4    ;  uncertainty k = 0.092749
        16        17        19        42     9        0.000000       -0.779480         1    ;  uncertainty k = 0.316160
        16        17        19        42     9      180.000000        1.643899         2    ;  uncertainty k = 0.203375
        16        17        19        42     9        0.000000        0.566007         3    ;  uncertainty k = 0.131158
        16        17        19        42     9      180.000000        0.097303         4    ;  uncertainty k = 0.092749
        17        16        15        38     9        0.000000        0.062625         1    ;  uncertainty k = 0.188029
        17        16        15        38     9      180.000000        8.653029         2    ;  uncertainty k = 0.558389
        17        16        15        38     9        0.000000        1.424910         3    ;  uncertainty k = 0.169008
        17        16        15        38     9      180.000000        1.741614         4    ;  uncertainty k = 0.149464
        17        19        20        21     9        0.000000        0.228024         1    ;  uncertainty k = 1.306396
        17        19        20        21     9      180.000000       -0.094217         2    ;  uncertainty k = 0.261243
        17        19        20        21     9        0.000000        1.131702         3    ;  uncertainty k = 0.248749
        17        19        20        21     9      180.000000        0.011547         4    ;  uncertainty k = 0.094504
        17        19        20        25     9        0.000000        0.228024         1    ;  uncertainty k = 1.306396
        17        19        20        25     9      180.000000       -0.094217         2    ;  uncertainty k = 0.261243
        17        19        20        25     9        0.000000        1.131702         3    ;  uncertainty k = 0.248749
        17        19        20        25     9      180.000000        0.011547         4    ;  uncertainty k = 0.094504
        17        19        20        43     9        0.000000        1.154674         1    ;  uncertainty k = 1.040771
        17        19        20        43     9      180.000000       -0.124686         2    ;  uncertainty k = 0.522409
        17        19        20        43     9        0.000000        0.784931         3    ;  uncertainty k = 0.114049
        17        19        20        43     9      180.000000       -0.130874         4    ;  uncertainty k = 0.109286
        18        13        12        37     9        0.000000        0.461655         1    ;  uncertainty k = 0.985717
        18        13        12        37     9      180.000000        4.269004         2    ;  uncertainty k = 0.713269
        18        13        12        37     9        0.000000        1.295441         3    ;  uncertainty k = 0.311370
        18        13        12        37     9      180.000000        0.090060         4    ;  uncertainty k = 0.170435
        18        17        16        39     9        0.000000        0.085635         1    ;  uncertainty k = 0.380041
        18        17        16        39     9      180.000000        7.117360         2    ;  uncertainty k = 0.584951
        18        17        16        39     9        0.000000        1.371620         3    ;  uncertainty k = 0.155099
        18        17        16        39     9      180.000000        1.456083         4    ;  uncertainty k = 0.133603
        18        17        19        20     9        0.000000       -0.542129         1    ;  uncertainty k = 1.426110
        18        17        19        20     9      180.000000       -0.213649         2    ;  uncertainty k = 0.320963
        18        17        19        20     9        0.000000        0.492927         3    ;  uncertainty k = 0.186694
        18        17        19        20     9      180.000000        0.117443         4    ;  uncertainty k = 0.107545
        18        17        19        41     9        0.000000       -0.478151         1    ;  uncertainty k = 0.298124
        18        17        19        41     9      180.000000        1.736761         2    ;  uncertainty k = 0.361256
        18        17        19        41     9        0.000000        0.380981         3    ;  uncertainty k = 0.163856
        18        17        19        41     9      180.000000        0.078124         4    ;  uncertainty k = 0.111272
        18        17        19        42     9        0.000000       -0.478151         1    ;  uncertainty k = 0.298124
        18        17        19        42     9      180.000000        1.736761         2    ;  uncertainty k = 0.361256
        18        17        19        42     9        0.000000        0.380981         3    ;  uncertainty k = 0.163856
        18        17        19        42     9      180.000000        0.078124         4    ;  uncertainty k = 0.111272
        19        17        16        39     9        0.000000        0.122853         1    ;  uncertainty k = 0.462101
        19        17        16        39     9      180.000000        6.723881         2    ;  uncertainty k = 0.452487
        19        17        16        39     9        0.000000        0.764244         3    ;  uncertainty k = 0.258190
        19        17        16        39     9      180.000000        1.116906         4    ;  uncertainty k = 0.304850
        19        17        18        40     9        0.000000        0.097601         1    ;  uncertainty k = 0.277337
        19        17        18        40     9      180.000000        7.549729         2    ;  uncertainty k = 0.389850
        19        17        18        40     9        0.000000        0.959678         3    ;  uncertainty k = 0.304181
        19        17        18        40     9      180.000000        1.284138         4    ;  uncertainty k = 0.347818
        19        20        21        22     9        0.000000       -2.574566         1    ;  uncertainty k = 0.281796
        19        20        21        22     9      180.000000        0.479104         2    ;  uncertainty k = 0.475507
        19        20        21        22     9        0.000000        0.885379         3    ;  uncertainty k = 0.094303
        19        20        21        22     9      180.000000       -0.088547         4    ;  uncertainty k = 0.097600
        19        20        21        44     9        0.000000       -0.105984         1    ;  uncertainty k = 0.325338
        19        20        21        44     9      180.000000       -1.019772         2    ;  uncertainty k = 0.208597
        19        20        21        44     9        0.000000        0.825381         3    ;  uncertainty k = 0.098256
        19        20        21        44     9      180.000000       -0.051999         4    ;  uncertainty k = 0.047873
        19        20        21        45     9        0.000000       -0.105984         1    ;  uncertainty k = 0.325338
        19        20        21        45     9      180.000000       -1.019772         2    ;  uncertainty k = 0.208597
        19        20        21        45     9        0.000000        0.825381         3    ;  uncertainty k = 0.098256
        19        20        21        45     9      180.000000       -0.051999         4    ;  uncertainty k = 0.047873
        19        20        25        24     9        0.000000       -2.574566         1    ;  uncertainty k = 0.281796
        19        20        25        24     9      180.000000        0.479104         2    ;  uncertainty k = 0.475507
        19        20        25        24     9        0.000000        0.885379         3    ;  uncertainty k = 0.094303
        19        20        25        24     9      180.000000       -0.088547         4    ;  uncertainty k = 0.097600
        19        20        25        52     9        0.000000       -0.105984         1    ;  uncertainty k = 0.325338
        19        20        25        52     9      180.000000       -1.019772         2    ;  uncertainty k = 0.208597
        19        20        25        52     9        0.000000        0.825381         3    ;  uncertainty k = 0.098256
        19        20        25        52     9      180.000000       -0.051999         4    ;  uncertainty k = 0.047873
        19        20        25        53     9        0.000000       -0.105984         1    ;  uncertainty k = 0.325338
        19        20        25        53     9      180.000000       -1.019772         2    ;  uncertainty k = 0.208597
        19        20        25        53     9        0.000000        0.825381         3    ;  uncertainty k = 0.098256
        19        20        25        53     9      180.000000       -0.051999         4    ;  uncertainty k = 0.047873
        20        21        22        23     9        0.000000       -0.960043         1    ;  uncertainty k = 1.015404
        20        21        22        23     9      180.000000       -1.839615         2    ;  uncertainty k = 0.830077
        20        21        22        23     9        0.000000        1.912143         3    ;  uncertainty k = 0.244230
        20        21        22        23     9      180.000000       -0.904406         4    ;  uncertainty k = 0.229121
        20        21        22        46     9        0.000000       -0.583337         1    ;  uncertainty k = 0.759808
        20        21        22        46     9      180.000000       -1.764027         2    ;  uncertainty k = 0.462837
        20        21        22        46     9        0.000000        0.775149         3    ;  uncertainty k = 0.096083
        20        21        22        46     9      180.000000       -0.068994         4    ;  uncertainty k = 0.160962
        20        21        22        47     9        0.000000       -0.583337         1    ;  uncertainty k = 0.759808
        20        21        22        47     9      180.000000       -1.764027         2    ;  uncertainty k = 0.462837
        20        21        22        47     9        0.000000        0.775149         3    ;  uncertainty k = 0.096083
        20        21        22        47     9      180.000000       -0.068994         4    ;  uncertainty k = 0.160962
        20        25        24        23     9        0.000000       -0.960043         1    ;  uncertainty k = 1.015404
        20        25        24        23     9      180.000000       -1.839615         2    ;  uncertainty k = 0.830077
        20        25        24        23     9        0.000000        1.912143         3    ;  uncertainty k = 0.244230
        20        25        24        23     9      180.000000       -0.904406         4    ;  uncertainty k = 0.229121
        20        25        24        50     9        0.000000       -0.583337         1    ;  uncertainty k = 0.759808
        20        25        24        50     9      180.000000       -1.764027         2    ;  uncertainty k = 0.462837
        20        25        24        50     9        0.000000        0.775149         3    ;  uncertainty k = 0.096083
        20        25        24        50     9      180.000000       -0.068994         4    ;  uncertainty k = 0.160962
        20        25        24        51     9        0.000000       -0.583337         1    ;  uncertainty k = 0.759808
        20        25        24        51     9      180.000000       -1.764027         2    ;  uncertainty k = 0.462837
        20        25        24        51     9        0.000000        0.775149         3    ;  uncertainty k = 0.096083
        20        25        24        51     9      180.000000       -0.068994         4    ;  uncertainty k = 0.160962
        21        20        19        41     9        0.000000       -0.486273         1    ;  uncertainty k = 0.396482
        21        20        19        41     9      180.000000       -0.446871         2    ;  uncertainty k = 0.239801
        21        20        19        41     9        0.000000        0.889072         3    ;  uncertainty k = 0.185769
        21        20        19        41     9      180.000000       -0.057138         4    ;  uncertainty k = 0.158412
        21        20        19        42     9        0.000000       -0.486273         1    ;  uncertainty k = 0.396482
        21        20        19        42     9      180.000000       -0.446871         2    ;  uncertainty k = 0.239801
        21        20        19        42     9        0.000000        0.889072         3    ;  uncertainty k = 0.185769
        21        20        19        42     9      180.000000       -0.057138         4    ;  uncertainty k = 0.158412
        21        20        25        24     9        0.000000       -0.214545         1    ;  uncertainty k = 0.605913
        21        20        25        24     9      180.000000       -0.310706         2    ;  uncertainty k = 0.547554
        21        20        25        24     9        0.000000        0.727519         3    ;  uncertainty k = 0.267402
        21        20        25        24     9      180.000000       -0.360140         4    ;  uncertainty k = 0.313231
        21        20        25        52     9        0.000000       -0.325973         1    ;  uncertainty k = 0.679075
        21        20        25        52     9      180.000000       -0.892397         2    ;  uncertainty k = 0.294848
        21        20        25        52     9        0.000000        0.425327         3    ;  uncertainty k = 0.253460
        21        20        25        52     9      180.000000        0.013081         4    ;  uncertainty k = 0.187622
        21        20        25        53     9        0.000000       -0.325973         1    ;  uncertainty k = 0.679075
        21        20        25        53     9      180.000000       -0.892397         2    ;  uncertainty k = 0.294848
        21        20        25        53     9        0.000000        0.425327         3    ;  uncertainty k = 0.253460
        21        20        25        53     9      180.000000        0.013081         4    ;  uncertainty k = 0.187622
        21        22        23        24     9        0.000000       -7.024421         1    ;  uncertainty k = 1.282597
        21        22        23        24     9      180.000000        0.534974         2    ;  uncertainty k = 0.812259
        21        22        23        24     9        0.000000        1.706653         3    ;  uncertainty k = 0.095741
        21        22        23        24     9      180.000000       -1.004374         4    ;  uncertainty k = 0.160418
        21        22        23        48     9        0.000000       -1.564502         1    ;  uncertainty k = 0.555680
        21        22        23        48     9      180.000000       -0.696408         2    ;  uncertainty k = 0.204692
        21        22        23        48     9        0.000000        0.561736         3    ;  uncertainty k = 0.091502
        21        22        23        48     9      180.000000       -0.099846         4    ;  uncertainty k = 0.065184
        21        22        23        49     9        0.000000       -1.564502         1    ;  uncertainty k = 0.555680
        21        22        23        49     9      180.000000       -0.696408         2    ;  uncertainty k = 0.204692
        21        22        23        49     9        0.000000        0.561736         3    ;  uncertainty k = 0.091502
        21        22        23        49     9      180.000000       -0.099846         4    ;  uncertainty k = 0.065184
        22        21        20        25     9        0.000000       -0.214545         1    ;  uncertainty k = 0.605913
        22        21        20        25     9      180.000000       -0.310706         2    ;  uncertainty k = 0.547554
        22        21        20        25     9        0.000000        0.727519         3    ;  uncertainty k = 0.267402
        22        21        20        25     9      180.000000       -0.360140         4    ;  uncertainty k = 0.313231
        22        21        20        43     9        0.000000       -0.489044         1    ;  uncertainty k = 0.294494
        22        21        20        43     9      180.000000       -0.418723         2    ;  uncertainty k = 0.251138
        22        21        20        43     9        0.000000        0.374961         3    ;  uncertainty k = 0.183942
        22        21        20        43     9      180.000000       -0.122123         4    ;  uncertainty k = 0.077493
        22        23        24        25     9        0.000000       -7.024421         1    ;  uncertainty k = 1.282597
        22        23        24        25     9      180.000000        0.534974         2    ;  uncertainty k = 0.812259
        22        23        24        25     9        0.000000        1.706653         3    ;  uncertainty k = 0.095741
        22        23        24        25     9      180.000000       -1.004374         4    ;  uncertainty k = 0.160418
        22        23        24        50     9        0.000000       -1.731084         1    ;  uncertainty k = 0.118909
        22        23        24        50     9      180.000000       -0.275642         2    ;  uncertainty k = 0.205940
        22        23        24        50     9        0.000000        0.507808         3    ;  uncertainty k = 0.221376
        22        23        24        50     9      180.000000       -0.022493         4    ;  uncertainty k = 0.102359
        22        23        24        51     9        0.000000       -1.731084         1    ;  uncertainty k = 0.118909
        22        23        24        51     9      180.000000       -0.275642         2    ;  uncertainty k = 0.205940
        22        23        24        51     9        0.000000        0.507808         3    ;  uncertainty k = 0.221376
        22        23        24        51     9      180.000000       -0.022493         4    ;  uncertainty k = 0.102359
        23        22        21        44     9        0.000000       -0.255252         1    ;  uncertainty k = 0.641429
        23        22        21        44     9      180.000000       -0.702894         2    ;  uncertainty k = 0.251438
        23        22        21        44     9        0.000000        0.502590         3    ;  uncertainty k = 0.195279
        23        22        21        44     9      180.000000        0.108164         4    ;  uncertainty k = 0.079509
        23        22        21        45     9        0.000000       -0.255252         1    ;  uncertainty k = 0.641429
        23        22        21        45     9      180.000000       -0.702894         2    ;  uncertainty k = 0.251438
        23        22        21        45     9        0.000000        0.502590         3    ;  uncertainty k = 0.195279
        23        22        21        45     9      180.000000        0.108164         4    ;  uncertainty k = 0.079509
        23        24        25        52     9        0.000000       -0.255252         1    ;  uncertainty k = 0.641429
        23        24        25        52     9      180.000000       -0.702894         2    ;  uncertainty k = 0.251438
        23        24        25        52     9        0.000000        0.502590         3    ;  uncertainty k = 0.195279
        23        24        25        52     9      180.000000        0.108164         4    ;  uncertainty k = 0.079509
        23        24        25        53     9        0.000000       -0.255252         1    ;  uncertainty k = 0.641429
        23        24        25        53     9      180.000000       -0.702894         2    ;  uncertainty k = 0.251438
        23        24        25        53     9        0.000000        0.502590         3    ;  uncertainty k = 0.195279
        23        24        25        53     9      180.000000        0.108164         4    ;  uncertainty k = 0.079509
        24        23        22        46     9        0.000000       -1.731084         1    ;  uncertainty k = 0.118909
        24        23        22        46     9      180.000000       -0.275642         2    ;  uncertainty k = 0.205940
        24        23        22        46     9        0.000000        0.507808         3    ;  uncertainty k = 0.221376
        24        23        22        46     9      180.000000       -0.022493         4    ;  uncertainty k = 0.102359
        24        23        22        47     9        0.000000       -1.731084         1    ;  uncertainty k = 0.118909
        24        23        22        47     9      180.000000       -0.275642         2    ;  uncertainty k = 0.205940
        24        23        22        47     9        0.000000        0.507808         3    ;  uncertainty k = 0.221376
        24        23        22        47     9      180.000000       -0.022493         4    ;  uncertainty k = 0.102359
        24        25        20        43     9        0.000000       -0.489044         1    ;  uncertainty k = 0.294494
        24        25        20        43     9      180.000000       -0.418723         2    ;  uncertainty k = 0.251138
        24        25        20        43     9        0.000000        0.374961         3    ;  uncertainty k = 0.183942
        24        25        20        43     9      180.000000       -0.122123         4    ;  uncertainty k = 0.077493
        25        20        19        41     9        0.000000       -0.486273         1    ;  uncertainty k = 0.396482
        25        20        19        41     9      180.000000       -0.446871         2    ;  uncertainty k = 0.239801
        25        20        19        41     9        0.000000        0.889072         3    ;  uncertainty k = 0.185769
        25        20        19        41     9      180.000000       -0.057138         4    ;  uncertainty k = 0.158412
        25        20        19        42     9        0.000000       -0.486273         1    ;  uncertainty k = 0.396482
        25        20        19        42     9      180.000000       -0.446871         2    ;  uncertainty k = 0.239801
        25        20        19        42     9        0.000000        0.889072         3    ;  uncertainty k = 0.185769
        25        20        19        42     9      180.000000       -0.057138         4    ;  uncertainty k = 0.158412
        25        20        21        44     9        0.000000       -0.325973         1    ;  uncertainty k = 0.679075
        25        20        21        44     9      180.000000       -0.892397         2    ;  uncertainty k = 0.294848
        25        20        21        44     9        0.000000        0.425327         3    ;  uncertainty k = 0.253460
        25        20        21        44     9      180.000000        0.013081         4    ;  uncertainty k = 0.187622
        25        20        21        45     9        0.000000       -0.325973         1    ;  uncertainty k = 0.679075
        25        20        21        45     9      180.000000       -0.892397         2    ;  uncertainty k = 0.294848
        25        20        21        45     9        0.000000        0.425327         3    ;  uncertainty k = 0.253460
        25        20        21        45     9      180.000000        0.013081         4    ;  uncertainty k = 0.187622
        25        24        23        48     9        0.000000       -1.564502         1    ;  uncertainty k = 0.555680
        25        24        23        48     9      180.000000       -0.696408         2    ;  uncertainty k = 0.204692
        25        24        23        48     9        0.000000        0.561736         3    ;  uncertainty k = 0.091502
        25        24        23        48     9      180.000000       -0.099846         4    ;  uncertainty k = 0.065184
        25        24        23        49     9        0.000000       -1.564502         1    ;  uncertainty k = 0.555680
        25        24        23        49     9      180.000000       -0.696408         2    ;  uncertainty k = 0.204692
        25        24        23        49     9        0.000000        0.561736         3    ;  uncertainty k = 0.091502
        25        24        23        49     9      180.000000       -0.099846         4    ;  uncertainty k = 0.065184
        26         2         1        32     9        0.000000       -0.004143         1    ;  uncertainty k = 0.168452
        26         2         1        32     9      180.000000        7.496115         2    ;  uncertainty k = 0.470309
        26         2         1        32     9        0.000000        0.739788         3    ;  uncertainty k = 0.189071
        26         2         1        32     9      180.000000        1.125688         4    ;  uncertainty k = 0.317668
        26         2         3        33     9        0.000000       -0.190334         1    ;  uncertainty k = 0.469430
        26         2         3        33     9      180.000000        8.505563         2    ;  uncertainty k = 0.394922
        26         2         3        33     9        0.000000        0.748551         3    ;  uncertainty k = 0.227339
        26         2         3        33     9      180.000000        1.119045         4    ;  uncertainty k = 0.204337
        26        27        28        29     9        0.000000        0.059183         1    ;  uncertainty k = 0.755135
        26        27        28        29     9      180.000000       20.012437         2    ;  uncertainty k = 0.312421
        26        27        28        29     9        0.000000      -11.701327         3    ;  uncertainty k = 1.233654
        26        27        28        29     9      180.000000        1.797487         4    ;  uncertainty k = 0.756654
        26        27        28        54     9        0.000000        0.511957         1    ;  uncertainty k = 0.675690
        26        27        28        54     9      180.000000       11.145088         2    ;  uncertainty k = 0.339346
        26        27        28        54     9        0.000000        1.841161         3    ;  uncertainty k = 0.278774
        26        27        28        54     9      180.000000        0.777686         4    ;  uncertainty k = 0.258463
        26        27        31        55     9        0.000000       -0.035563         1    ;  uncertainty k = 0.285365
        26        27        31        55     9      180.000000        0.613243         2    ;  uncertainty k = 0.151078
        26        27        31        55     9        0.000000        0.546753         3    ;  uncertainty k = 0.071671
        26        27        31        55     9      180.000000        0.183736         4    ;  uncertainty k = 0.069107
        26        27        31        56     9        0.000000       -0.035563         1    ;  uncertainty k = 0.285365
        26        27        31        56     9      180.000000        0.613243         2    ;  uncertainty k = 0.151078
        26        27        31        56     9        0.000000        0.546753         3    ;  uncertainty k = 0.071671
        26        27        31        56     9      180.000000        0.183736         4    ;  uncertainty k = 0.069107
        26        27        31        57     9        0.000000       -0.035563         1    ;  uncertainty k = 0.285365
        26        27        31        57     9      180.000000        0.613243         2    ;  uncertainty k = 0.151078
        26        27        31        57     9        0.000000        0.546753         3    ;  uncertainty k = 0.071671
        26        27        31        57     9      180.000000        0.183736         4    ;  uncertainty k = 0.069107
        26        30        29        28     9        0.000000       -1.137220         1    ;  uncertainty k = 1.561838
        26        30        29        28     9      180.000000       31.854316         2    ;  uncertainty k = 0.882480
        26        30        29        28     9        0.000000       -8.939581         3    ;  uncertainty k = 3.358658
        26        30        29        28     9      180.000000        2.396711         4    ;  uncertainty k = 0.627938
        27        26        30        29     9        0.000000        0.213646         1    ;  uncertainty k = 0.463275
        27        26        30        29     9      180.000000       21.028068         2    ;  uncertainty k = 0.215852
        27        26        30        29     9        0.000000       -7.573108         3    ;  uncertainty k = 1.406486
        27        26        30        29     9      180.000000        1.577757         4    ;  uncertainty k = 0.424936
        27        28        29        30     9        0.000000       -0.039343         1    ;  uncertainty k = 0.561888
        27        28        29        30     9      180.000000       18.987942         2    ;  uncertainty k = 0.719688
        27        28        29        30     9        0.000000       -7.537567         3    ;  uncertainty k = 0.574704
        27        28        29        30     9      180.000000        2.225810         4    ;  uncertainty k = 0.484054
        28        27        26        30     9        0.000000       -0.144385         1    ;  uncertainty k = 0.462530
        28        27        26        30     9      180.000000       15.350963         2    ;  uncertainty k = 1.020236
        28        27        26        30     9        0.000000       -9.254851         3    ;  uncertainty k = 0.883738
        28        27        26        30     9      180.000000        1.245167         4    ;  uncertainty k = 0.644104
        28        27        31        55     9        0.000000        0.518798         1    ;  uncertainty k = 0.194354
        28        27        31        55     9      180.000000        0.796830         2    ;  uncertainty k = 0.448303
        28        27        31        55     9        0.000000       -0.086998         3    ;  uncertainty k = 0.070039
        28        27        31        55     9      180.000000        0.029242         4    ;  uncertainty k = 0.080988
        28        27        31        56     9        0.000000        0.518798         1    ;  uncertainty k = 0.194354
        28        27        31        56     9      180.000000        0.796830         2    ;  uncertainty k = 0.448303
        28        27        31        56     9        0.000000       -0.086998         3    ;  uncertainty k = 0.070039
        28        27        31        56     9      180.000000        0.029242         4    ;  uncertainty k = 0.080988
        28        27        31        57     9        0.000000        0.518798         1    ;  uncertainty k = 0.194354
        28        27        31        57     9      180.000000        0.796830         2    ;  uncertainty k = 0.448303
        28        27        31        57     9        0.000000       -0.086998         3    ;  uncertainty k = 0.070039
        28        27        31        57     9      180.000000        0.029242         4    ;  uncertainty k = 0.080988
        29        28        27        31     9        0.000000        0.914838         1    ;  uncertainty k = 0.815291
        29        28        27        31     9      180.000000       15.342674         2    ;  uncertainty k = 0.634741
        29        28        27        31     9        0.000000        2.100258         3    ;  uncertainty k = 0.432470
        29        28        27        31     9      180.000000        0.810456         4    ;  uncertainty k = 0.341763
        30        26        27        31     9        0.000000        1.109297         1    ;  uncertainty k = 0.805424
        30        26        27        31     9      180.000000       12.638196         2    ;  uncertainty k = 0.454937
        30        26        27        31     9        0.000000        2.039544         3    ;  uncertainty k = 0.522886
        30        26        27        31     9      180.000000       -0.080882         4    ;  uncertainty k = 0.199402
        30        29        28        54     9        0.000000        0.856998         1    ;  uncertainty k = 1.135504
        30        29        28        54     9      180.000000       16.446199         2    ;  uncertainty k = 0.353028
        30        29        28        54     9        0.000000        1.300362         3    ;  uncertainty k = 0.283629
        30        29        28        54     9      180.000000        0.705332         4    ;  uncertainty k = 0.341103
        31        27        28        54     9        0.000000        0.215206         1    ;  uncertainty k = 0.413692
        31        27        28        54     9      180.000000        5.658751         2    ;  uncertainty k = 1.120791
        31        27        28        54     9        0.000000        1.029968         3    ;  uncertainty k = 0.446000
        31        27        28        54     9      180.000000        0.369898         4    ;  uncertainty k = 0.223203
        32         1         4        34     9        0.000000       -0.084251         1    ;  uncertainty k = 0.250068
        32         1         4        34     9      180.000000        8.223186         2    ;  uncertainty k = 0.304660
        32         1         4        34     9        0.000000       -0.198840         3    ;  uncertainty k = 0.298063
        32         1         4        34     9      180.000000        0.294110         4    ;  uncertainty k = 0.240203
        38        15        16        39     9        0.000000       -0.013045         1    ;  uncertainty k = 0.178040
        38        15        16        39     9      180.000000        7.749499         2    ;  uncertainty k = 0.110935
        38        15        16        39     9        0.000000       -0.170352         3    ;  uncertainty k = 0.227080
        38        15        16        39     9      180.000000        0.302639         4    ;  uncertainty k = 0.156541
        41        19        20        43     9        0.000000        0.633594         1    ;  uncertainty k = 0.761392
        41        19        20        43     9      180.000000       -0.469721         2    ;  uncertainty k = 0.224849
        41        19        20        43     9        0.000000        0.121846         3    ;  uncertainty k = 0.102010
        41        19        20        43     9      180.000000       -0.010722         4    ;  uncertainty k = 0.068107
        42        19        20        43     9        0.000000        0.633594         1    ;  uncertainty k = 0.761392
        42        19        20        43     9      180.000000       -0.469721         2    ;  uncertainty k = 0.224849
        42        19        20        43     9        0.000000        0.121846         3    ;  uncertainty k = 0.102010
        42        19        20        43     9      180.000000       -0.010722         4    ;  uncertainty k = 0.068107
        43        20        21        44     9        0.000000        0.505820         1    ;  uncertainty k = 0.508179
        43        20        21        44     9      180.000000       -0.445261         2    ;  uncertainty k = 0.343433
        43        20        21        44     9        0.000000        0.063530         3    ;  uncertainty k = 0.166996
        43        20        21        44     9      180.000000        0.024300         4    ;  uncertainty k = 0.084356
        43        20        21        45     9        0.000000        0.505820         1    ;  uncertainty k = 0.508179
        43        20        21        45     9      180.000000       -0.445261         2    ;  uncertainty k = 0.343433
        43        20        21        45     9        0.000000        0.063530         3    ;  uncertainty k = 0.166996
        43        20        21        45     9      180.000000        0.024300         4    ;  uncertainty k = 0.084356
        43        20        25        52     9        0.000000        0.505820         1    ;  uncertainty k = 0.508179
        43        20        25        52     9      180.000000       -0.445261         2    ;  uncertainty k = 0.343433
        43        20        25        52     9        0.000000        0.063530         3    ;  uncertainty k = 0.166996
        43        20        25        52     9      180.000000        0.024300         4    ;  uncertainty k = 0.084356
        43        20        25        53     9        0.000000        0.505820         1    ;  uncertainty k = 0.508179
        43        20        25        53     9      180.000000       -0.445261         2    ;  uncertainty k = 0.343433
        43        20        25        53     9        0.000000        0.063530         3    ;  uncertainty k = 0.166996
        43        20        25        53     9      180.000000        0.024300         4    ;  uncertainty k = 0.084356
        44        21        22        46     9        0.000000        0.353241         1    ;  uncertainty k = 0.247073
        44        21        22        46     9      180.000000        0.356302         2    ;  uncertainty k = 0.088459
        44        21        22        46     9        0.000000        0.281586         3    ;  uncertainty k = 0.082622
        44        21        22        46     9      180.000000       -0.046333         4    ;  uncertainty k = 0.052441
        44        21        22        47     9        0.000000        0.353241         1    ;  uncertainty k = 0.247073
        44        21        22        47     9      180.000000        0.356302         2    ;  uncertainty k = 0.088459
        44        21        22        47     9        0.000000        0.281586         3    ;  uncertainty k = 0.082622
        44        21        22        47     9      180.000000       -0.046333         4    ;  uncertainty k = 0.052441
        45        21        22        46     9        0.000000        0.353241         1    ;  uncertainty k = 0.247073
        45        21        22        46     9      180.000000        0.356302         2    ;  uncertainty k = 0.088459
        45        21        22        46     9        0.000000        0.281586         3    ;  uncertainty k = 0.082622
        45        21        22        46     9      180.000000       -0.046333         4    ;  uncertainty k = 0.052441
        45        21        22        47     9        0.000000        0.353241         1    ;  uncertainty k = 0.247073
        45        21        22        47     9      180.000000        0.356302         2    ;  uncertainty k = 0.088459
        45        21        22        47     9        0.000000        0.281586         3    ;  uncertainty k = 0.082622
        45        21        22        47     9      180.000000       -0.046333         4    ;  uncertainty k = 0.052441
        46        22        23        48     9        0.000000        2.065466         1    ;  uncertainty k = 0.581086
        46        22        23        48     9      180.000000        0.128238         2    ;  uncertainty k = 0.153427
        46        22        23        48     9        0.000000        0.323705         3    ;  uncertainty k = 0.122348
        46        22        23        48     9      180.000000        0.126782         4    ;  uncertainty k = 0.032762
        46        22        23        49     9        0.000000        2.065466         1    ;  uncertainty k = 0.581086
        46        22        23        49     9      180.000000        0.128238         2    ;  uncertainty k = 0.153427
        46        22        23        49     9        0.000000        0.323705         3    ;  uncertainty k = 0.122348
        46        22        23        49     9      180.000000        0.126782         4    ;  uncertainty k = 0.032762
        47        22        23        48     9        0.000000        2.065466         1    ;  uncertainty k = 0.581086
        47        22        23        48     9      180.000000        0.128238         2    ;  uncertainty k = 0.153427
        47        22        23        48     9        0.000000        0.323705         3    ;  uncertainty k = 0.122348
        47        22        23        48     9      180.000000        0.126782         4    ;  uncertainty k = 0.032762
        47        22        23        49     9        0.000000        2.065466         1    ;  uncertainty k = 0.581086
        47        22        23        49     9      180.000000        0.128238         2    ;  uncertainty k = 0.153427
        47        22        23        49     9        0.000000        0.323705         3    ;  uncertainty k = 0.122348
        47        22        23        49     9      180.000000        0.126782         4    ;  uncertainty k = 0.032762
        48        23        24        50     9        0.000000        2.065466         1    ;  uncertainty k = 0.581086
        48        23        24        50     9      180.000000        0.128238         2    ;  uncertainty k = 0.153427
        48        23        24        50     9        0.000000        0.323705         3    ;  uncertainty k = 0.122348
        48        23        24        50     9      180.000000        0.126782         4    ;  uncertainty k = 0.032762
        48        23        24        51     9        0.000000        2.065466         1    ;  uncertainty k = 0.581086
        48        23        24        51     9      180.000000        0.128238         2    ;  uncertainty k = 0.153427
        48        23        24        51     9        0.000000        0.323705         3    ;  uncertainty k = 0.122348
        48        23        24        51     9      180.000000        0.126782         4    ;  uncertainty k = 0.032762
        49        23        24        50     9        0.000000        2.065466         1    ;  uncertainty k = 0.581086
        49        23        24        50     9      180.000000        0.128238         2    ;  uncertainty k = 0.153427
        49        23        24        50     9        0.000000        0.323705         3    ;  uncertainty k = 0.122348
        49        23        24        50     9      180.000000        0.126782         4    ;  uncertainty k = 0.032762
        49        23        24        51     9        0.000000        2.065466         1    ;  uncertainty k = 0.581086
        49        23        24        51     9      180.000000        0.128238         2    ;  uncertainty k = 0.153427
        49        23        24        51     9        0.000000        0.323705         3    ;  uncertainty k = 0.122348
        49        23        24        51     9      180.000000        0.126782         4    ;  uncertainty k = 0.032762
        50        24        25        52     9        0.000000        0.353241         1    ;  uncertainty k = 0.247073
        50        24        25        52     9      180.000000        0.356302         2    ;  uncertainty k = 0.088459
        50        24        25        52     9        0.000000        0.281586         3    ;  uncertainty k = 0.082622
        50        24        25        52     9      180.000000       -0.046333         4    ;  uncertainty k = 0.052441
        50        24        25        53     9        0.000000        0.353241         1    ;  uncertainty k = 0.247073
        50        24        25        53     9      180.000000        0.356302         2    ;  uncertainty k = 0.088459
        50        24        25        53     9        0.000000        0.281586         3    ;  uncertainty k = 0.082622
        50        24        25        53     9      180.000000       -0.046333         4    ;  uncertainty k = 0.052441
        51        24        25        52     9        0.000000        0.353241         1    ;  uncertainty k = 0.247073
        51        24        25        52     9      180.000000        0.356302         2    ;  uncertainty k = 0.088459
        51        24        25        52     9        0.000000        0.281586         3    ;  uncertainty k = 0.082622
        51        24        25        52     9      180.000000       -0.046333         4    ;  uncertainty k = 0.052441
        51        24        25        53     9        0.000000        0.353241         1    ;  uncertainty k = 0.247073
        51        24        25        53     9      180.000000        0.356302         2    ;  uncertainty k = 0.088459
        51        24        25        53     9        0.000000        0.281586         3    ;  uncertainty k = 0.082622
        51        24        25        53     9      180.000000       -0.046333         4    ;  uncertainty k = 0.052441

[ dihedrals ] ; impropers
;       ai        aj        ak        al funct           phase               k        pn
         1         2         4        32     4      180.000000        2.651723         2    ;  uncertainty k = 0.102612
         1         4        32         2     4      180.000000        2.651723         2    ;  uncertainty k = 0.102612
         1        32         2         4     4      180.000000        2.651723         2    ;  uncertainty k = 0.102612
         2         1         3        26     4      180.000000       13.607740         2    ;  uncertainty k = 0.060136
         2         3        26         1     4      180.000000       13.607740         2    ;  uncertainty k = 0.060136
         2        26         1         3     4      180.000000       13.607740         2    ;  uncertainty k = 0.060136
         3         2         6        33     4      180.000000        2.411795         2    ;  uncertainty k = 0.422887
         3         6        33         2     4      180.000000        2.411795         2    ;  uncertainty k = 0.422887
         3        33         2         6     4      180.000000        2.411795         2    ;  uncertainty k = 0.422887
         4         1         5        34     4      180.000000        5.290454         2    ;  uncertainty k = 0.154850
         4         5        34         1     4      180.000000        5.290454         2    ;  uncertainty k = 0.154850
         4        34         1         5     4      180.000000        5.290454         2    ;  uncertainty k = 0.154850
         6         3         5         7     4      180.000000        1.658846         2    ;  uncertainty k = 1.043278
         6         5         7         3     4      180.000000        1.658846         2    ;  uncertainty k = 1.043278
         6         7         3         5     4      180.000000        1.658846         2    ;  uncertainty k = 1.043278
         9         5         8        10     4      180.000000        7.218664         2    ;  uncertainty k = 0.222083
         9         8        10         5     4      180.000000        7.218664         2    ;  uncertainty k = 0.222083
         9        10         5         8     4      180.000000        7.218664         2    ;  uncertainty k = 0.222083
        10         9        11        12     4      180.000000        6.131355         2    ;  uncertainty k = 0.374886
        10        11        12         9     4      180.000000        6.131355         2    ;  uncertainty k = 0.374886
        10        12         9        11     4      180.000000        6.131355         2    ;  uncertainty k = 0.374886
        12        10        13        37     4      180.000000        0.300082         2    ;  uncertainty k = 0.671004
        12        13        37        10     4      180.000000        0.300082         2    ;  uncertainty k = 0.671004
        12        37        10        13     4      180.000000        0.300082         2    ;  uncertainty k = 0.671004
        13        12        14        18     4      180.000000        0.203680         2    ;  uncertainty k = 0.447823
        13        14        18        12     4      180.000000        0.203680         2    ;  uncertainty k = 0.447823
        13        18        12        14     4      180.000000        0.203680         2    ;  uncertainty k = 0.447823
        14        11        13        15     4      180.000000        1.547994         2    ;  uncertainty k = 0.529255
        14        13        15        11     4      180.000000        1.547994         2    ;  uncertainty k = 0.529255
        14        15        11        13     4      180.000000        1.547994         2    ;  uncertainty k = 0.529255
        15        14        16        38     4      180.000000        3.328892         2    ;  uncertainty k = 0.304190
        15        16        38        14     4      180.000000        3.328892         2    ;  uncertainty k = 0.304190
        15        38        14        16     4      180.000000        3.328892         2    ;  uncertainty k = 0.304190
        16        15        17        39     4      180.000000        3.703974         2    ;  uncertainty k = 0.231890
        16        17        39        15     4      180.000000        3.703974         2    ;  uncertainty k = 0.231890
        16        39        15        17     4      180.000000        3.703974         2    ;  uncertainty k = 0.231890
        17        16        18        19     4      180.000000        8.046870         2    ;  uncertainty k = 0.338239
        17        18        19        16     4      180.000000        8.046870         2    ;  uncertainty k = 0.338239
        17        19        16        18     4      180.000000        8.046870         2    ;  uncertainty k = 0.338239
        18        13        17        40     4      180.000000        4.453195         2    ;  uncertainty k = 0.297877
        18        17        40        13     4      180.000000        4.453195         2    ;  uncertainty k = 0.297877
        18        40        13        17     4      180.000000        4.453195         2    ;  uncertainty k = 0.297877
        26         2        27        30     4      180.000000        0.247585         2    ;  uncertainty k = 0.553617
        26        27        30         2     4      180.000000        0.247585         2    ;  uncertainty k = 0.553617
        26        30         2        27     4      180.000000        0.247585         2    ;  uncertainty k = 0.553617
        27        26        28        31     4      180.000000        5.603591         2    ;  uncertainty k = 0.319840
        27        28        31        26     4      180.000000        5.603591         2    ;  uncertainty k = 0.319840
        27        31        26        28     4      180.000000        5.603591         2    ;  uncertainty k = 0.319840
        28        27        29        54     4      180.000000        0.589517         2    ;  uncertainty k = 0.565076
        28        29        54        27     4      180.000000        0.589517         2    ;  uncertainty k = 0.565076
        28        54        27        29     4      180.000000        0.589517         2    ;  uncertainty k = 0.565076

[ pairs ]
;       ai        aj funct
         1         6     1
         1         9     1
         1        27     1
         1        30     1
         1        33     1
         2         5     1
         2         7     1
         2        28     1
         2        29     1
         2        31     1
         2        34     1
         3         4     1
         3         8     1
         3         9     1
         3        27     1
         3        30     1
         3        32     1
         3        35     1
         4         7     1
         4         8     1
         4        10     1
         4        26     1
         5        11     1
         5        12     1
         5        32     1
         5        33     1
         5        35     1
         6        10     1
         6        26     1
         6        34     1
         7        10     1
         7        33     1
         8        11     1
         8        12     1
         9        13     1
         9        14     1
         9        34     1
         9        35     1
         9        36     1
         9        37     1
        10        15     1
        10        18     1
        11        16     1
        11        18     1
        11        37     1
        11        38     1
        12        15     1
        12        17     1
        12        36     1
        12        40     1
        13        16     1
        13        19     1
        13        36     1
        13        38     1
        14        17     1
        14        37     1
        14        39     1
        14        40     1
        15        18     1
        15        19     1
        15        36     1
        16        20     1
        16        40     1
        16        41     1
        16        42     1
        17        21     1
        17        25     1
        17        38     1
        17        43     1
        18        20     1
        18        37     1
        18        39     1
        18        41     1
        18        42     1
        19        22     1
        19        24     1
        19        39     1
        19        40     1
        19        44     1
        19        45     1
        19        52     1
        19        53     1
        20        23     1
        20        46     1
        20        47     1
        20        50     1
        20        51     1
        21        24     1
        21        41     1
        21        42     1
        21        48     1
        21        49     1
        21        52     1
        21        53     1
        22        25     1
        22        43     1
        22        50     1
        22        51     1
        23        44     1
        23        45     1
        23        52     1
        23        53     1
        24        43     1
        24        46     1
        24        47     1
        25        41     1
        25        42     1
        25        44     1
        25        45     1
        25        48     1
        25        49     1
        26        32     1
        26        33     1
        26        54     1
        26        55     1
        26        56     1
        26        57     1
        28        55     1
        28        56     1
        28        57     1
        29        31     1
        30        31     1
        30        54     1
        31        54     1
        32        34     1
        38        39     1
        41        43     1
        42        43     1
        43        44     1
        43        45     1
        43        52     1
        43        53     1
        44        46     1
        44        47     1
        45        46     1
        45        47     1
        46        48     1
        46        49     1
        47        48     1
        47        49     1
        48        50     1
        48        51     1
        49        50     1
        49        51     1
        50        52     1
        50        53     1
        51        52     1
        51        53     1
