; ITP file created by ByteFF-joint-25, 2025-07-14 11:38:26.225945

[ atomtypes ]
;name           bonded.type        at.num        mass        charge   ptype           sigma         epsilon
 c0bf                                   6      0.0000       0.00000       A     3.31514e-01     4.13602e-01    ;  uncertainty sigma = 0.000011, epsilon = 0.000772
 c1bf                                   6      0.0000       0.00000       A     3.31533e-01     4.13185e-01    ;  uncertainty sigma = 0.000006, epsilon = 0.001146
 c2bf                                   6      0.0000       0.00000       A     3.31516e-01     4.13673e-01    ;  uncertainty sigma = 0.000015, epsilon = 0.001288
 c3bf                                   6      0.0000       0.00000       A     3.31521e-01     4.13282e-01    ;  uncertainty sigma = 0.000009, epsilon = 0.001022
 c4bf                                   6      0.0000       0.00000       A     3.31525e-01     4.13394e-01    ;  uncertainty sigma = 0.000006, epsilon = 0.000671
 c5bf                                   6      0.0000       0.00000       A     3.31518e-01     4.12800e-01    ;  uncertainty sigma = 0.000019, epsilon = 0.001206
 n6bf                                   7      0.0000       0.00000       A     3.20639e-01     8.53602e-01    ;  uncertainty sigma = 0.000018, epsilon = 0.002092
 n7bf                                   7      0.0000       0.00000       A     3.38429e-01     3.93681e-01    ;  uncertainty sigma = 0.000012, epsilon = 0.000578
 c8bf                                   6      0.0000       0.00000       A     3.31525e-01     4.13030e-01    ;  uncertainty sigma = 0.000010, epsilon = 0.000939
 c9bf                                   6      0.0000       0.00000       A     3.31487e-01     4.13616e-01    ;  uncertainty sigma = 0.000020, epsilon = 0.001109
 n10bf                                  7      0.0000       0.00000       A     3.20612e-01     8.51418e-01    ;  uncertainty sigma = 0.000030, epsilon = 0.001559
 c11bf                                  6      0.0000       0.00000       A     3.31545e-01     4.13175e-01    ;  uncertainty sigma = 0.000004, epsilon = 0.000228
 c12bf                                  6      0.0000       0.00000       A     3.31513e-01     4.13679e-01    ;  uncertainty sigma = 0.000008, epsilon = 0.001038
 c13bf                                  6      0.0000       0.00000       A     3.31539e-01     4.13372e-01    ;  uncertainty sigma = 0.000002, epsilon = 0.000832
 c14bf                                  6      0.0000       0.00000       A     3.31510e-01     4.13227e-01    ;  uncertainty sigma = 0.000003, epsilon = 0.000744
 c15bf                                  6      0.0000       0.00000       A     3.31530e-01     4.13453e-01    ;  uncertainty sigma = 0.000012, epsilon = 0.000423
 c16bf                                  6      0.0000       0.00000       A     3.31639e-01     4.14074e-01    ;  uncertainty sigma = 0.000029, epsilon = 0.001725
 c17bf                                  6      0.0000       0.00000       A     3.31542e-01     4.13583e-01    ;  uncertainty sigma = 0.000009, epsilon = 0.000998
 c18bf                                  6      0.0000       0.00000       A     3.39773e-01     4.50389e-01    ;  uncertainty sigma = 0.000036, epsilon = 0.001493
 n19bf                                  7      0.0000       0.00000       A     2.58825e-01     1.06536e+01    ;  uncertainty sigma = 0.000048, epsilon = 0.001081
 c20bf                                  6      0.0000       0.00000       A     3.39751e-01     4.50843e-01    ;  uncertainty sigma = 0.000004, epsilon = 0.001025
 c21bf                                  6      0.0000       0.00000       A     3.39769e-01     4.50680e-01    ;  uncertainty sigma = 0.000010, epsilon = 0.000994
 c22bf                                  6      0.0000       0.00000       A     3.39785e-01     4.50582e-01    ;  uncertainty sigma = 0.000006, epsilon = 0.000924
 c23bf                                  6      0.0000       0.00000       A     3.39769e-01     4.50680e-01    ;  uncertainty sigma = 0.000010, epsilon = 0.000994
 c24bf                                  6      0.0000       0.00000       A     3.39751e-01     4.50843e-01    ;  uncertainty sigma = 0.000004, epsilon = 0.001025
 n25bf                                  7      0.0000       0.00000       A     3.20464e-01     8.53406e-01    ;  uncertainty sigma = 0.000035, epsilon = 0.002741
 n26bf                                  7      0.0000       0.00000       A     3.38413e-01     3.93690e-01    ;  uncertainty sigma = 0.000012, epsilon = 0.000578
 c27bf                                  6      0.0000       0.00000       A     3.31537e-01     4.13587e-01    ;  uncertainty sigma = 0.000007, epsilon = 0.000835
 c28bf                                  6      0.0000       0.00000       A     3.31537e-01     4.13587e-01    ;  uncertainty sigma = 0.000007, epsilon = 0.000835
 n29bf                                  7      0.0000       0.00000       A     3.38413e-01     3.93690e-01    ;  uncertainty sigma = 0.000012, epsilon = 0.000578
 h30bf                                  1      0.0000       0.00000       A     2.62569e-01     6.72213e-02    ;  uncertainty sigma = 0.000013, epsilon = 0.000571
 h31bf                                  1      0.0000       0.00000       A     2.62576e-01     6.70779e-02    ;  uncertainty sigma = 0.000011, epsilon = 0.000537
 h32bf                                  1      0.0000       0.00000       A     2.62554e-01     6.68847e-02    ;  uncertainty sigma = 0.000014, epsilon = 0.000489
 h33bf                                  1      0.0000       0.00000       A     1.10655e-01     4.14032e-02    ;  uncertainty sigma = 0.000071, epsilon = 0.000793
 h34bf                                  1      0.0000       0.00000       A     1.10661e-01     4.09777e-02    ;  uncertainty sigma = 0.000073, epsilon = 0.000702
 h35bf                                  1      0.0000       0.00000       A     2.62548e-01     6.71074e-02    ;  uncertainty sigma = 0.000030, epsilon = 0.000235
 h36bf                                  1      0.0000       0.00000       A     2.62571e-01     6.70381e-02    ;  uncertainty sigma = 0.000008, epsilon = 0.000473
 h37bf                                  1      0.0000       0.00000       A     2.62577e-01     6.71749e-02    ;  uncertainty sigma = 0.000013, epsilon = 0.000695
 h38bf                                  1      0.0000       0.00000       A     2.62608e-01     6.70651e-02    ;  uncertainty sigma = 0.000010, epsilon = 0.000435
 h39bf                                  1      0.0000       0.00000       A     1.88839e-01     8.73239e-02    ;  uncertainty sigma = 0.000129, epsilon = 0.001577
 h40bf                                  1      0.0000       0.00000       A     1.88839e-01     8.73239e-02    ;  uncertainty sigma = 0.000129, epsilon = 0.001577
 h41bf                                  1      0.0000       0.00000       A     1.10649e-01     4.11876e-02    ;  uncertainty sigma = 0.000180, epsilon = 0.001021
 h42bf                                  1      0.0000       0.00000       A     1.88764e-01     8.66398e-02    ;  uncertainty sigma = 0.000088, epsilon = 0.000806
 h43bf                                  1      0.0000       0.00000       A     1.88764e-01     8.66398e-02    ;  uncertainty sigma = 0.000088, epsilon = 0.000806
 h44bf                                  1      0.0000       0.00000       A     2.60030e-01     8.66906e-02    ;  uncertainty sigma = 0.000008, epsilon = 0.000905
 h45bf                                  1      0.0000       0.00000       A     2.60030e-01     8.66906e-02    ;  uncertainty sigma = 0.000008, epsilon = 0.000905
 h46bf                                  1      0.0000       0.00000       A     2.60047e-01     8.69055e-02    ;  uncertainty sigma = 0.000002, epsilon = 0.000829
 h47bf                                  1      0.0000       0.00000       A     2.60047e-01     8.69055e-02    ;  uncertainty sigma = 0.000002, epsilon = 0.000829
 h48bf                                  1      0.0000       0.00000       A     2.60030e-01     8.66906e-02    ;  uncertainty sigma = 0.000008, epsilon = 0.000905
 h49bf                                  1      0.0000       0.00000       A     2.60030e-01     8.66906e-02    ;  uncertainty sigma = 0.000008, epsilon = 0.000905
 h50bf                                  1      0.0000       0.00000       A     1.88764e-01     8.66398e-02    ;  uncertainty sigma = 0.000088, epsilon = 0.000806
 h51bf                                  1      0.0000       0.00000       A     1.88764e-01     8.66398e-02    ;  uncertainty sigma = 0.000088, epsilon = 0.000806
 h52bf                                  1      0.0000       0.00000       A     2.53604e-01     6.70806e-02    ;  uncertainty sigma = 0.000028, epsilon = 0.000600
 h53bf                                  1      0.0000       0.00000       A     2.53604e-01     6.70807e-02    ;  uncertainty sigma = 0.000028, epsilon = 0.000600

[ moleculetype ]
;name             nrexcl
 MOL                   3

[ atoms ]
;       nr            type      resi   res      atom      cgnr      charge          mass ; qtot
         1            c0bf         1   UNL        c0         1    -0.15527       12.0110 ; qtot   -0.155
         2            c1bf         1   UNL        c1         2     0.04878       12.0110 ; qtot   -0.106
         3            c2bf         1   UNL        c2         3    -0.13438       12.0110 ; qtot   -0.241
         4            c3bf         1   UNL        c3         4    -0.04352       12.0110 ; qtot   -0.284
         5            c4bf         1   UNL        c4         5    -0.21233       12.0110 ; qtot   -0.497
         6            c5bf         1   UNL        c5         6    -0.01574       12.0110 ; qtot   -0.512
         7            n6bf         1   UNL        n6         7    -0.02086       14.0070 ; qtot   -0.533
         8            n7bf         1   UNL        n7         8    -0.50923       14.0070 ; qtot   -1.043
         9            c8bf         1   UNL        c8         9     0.42687       12.0110 ; qtot   -0.616
        10            c9bf         1   UNL        c9        10    -0.09297       12.0110 ; qtot   -0.709
        11           n10bf         1   UNL       n10        11    -0.17863       14.0070 ; qtot   -0.887
        12           c11bf         1   UNL       c11        12    -0.14624       12.0110 ; qtot   -1.034
        13           c12bf         1   UNL       c12        13    -0.09138       12.0110 ; qtot   -1.125
        14           c13bf         1   UNL       c13        14    -0.01122       12.0110 ; qtot   -1.136
        15           c14bf         1   UNL       c14        15    -0.11583       12.0110 ; qtot   -1.252
        16           c15bf         1   UNL       c15        16    -0.09384       12.0110 ; qtot   -1.346
        17           c16bf         1   UNL       c16        17    -0.21383       12.0110 ; qtot   -1.560
        18           c17bf         1   UNL       c17        18    -0.02211       12.0110 ; qtot   -1.582
        19           c18bf         1   UNL       c18        19     0.21948       12.0110 ; qtot   -1.362
        20           n19bf         1   UNL       n19        20    -0.72723       14.0070 ; qtot   -2.089
        21           c20bf         1   UNL       c20        21     0.13697       12.0110 ; qtot   -1.953
        22           c21bf         1   UNL       c21        22    -0.10564       12.0110 ; qtot   -2.058
        23           c22bf         1   UNL       c22        23    -0.08930       12.0110 ; qtot   -2.147
        24           c23bf         1   UNL       c23        24    -0.10564       12.0110 ; qtot   -2.253
        25           c24bf         1   UNL       c24        25     0.13697       12.0110 ; qtot   -2.116
        26           n25bf         1   UNL       n25        26     0.31512       14.0070 ; qtot   -1.801
        27           n26bf         1   UNL       n26        27    -0.48166       14.0070 ; qtot   -2.283
        28           c27bf         1   UNL       c27        28     0.20261       12.0110 ; qtot   -2.080
        29           c28bf         1   UNL       c28        29     0.20261       12.0110 ; qtot   -1.877
        30           n29bf         1   UNL       n29        30    -0.48166       14.0070 ; qtot   -2.359
        31           h30bf         1   UNL       h30        31     0.15920        1.0080 ; qtot   -2.200
        32           h31bf         1   UNL       h31        32     0.16805        1.0080 ; qtot   -2.032
        33           h32bf         1   UNL       h32        33     0.15260        1.0080 ; qtot   -1.879
        34           h33bf         1   UNL       h33        34     0.32993        1.0080 ; qtot   -1.549
        35           h34bf         1   UNL       h34        35     0.30972        1.0080 ; qtot   -1.240
        36           h35bf         1   UNL       h35        36     0.16185        1.0080 ; qtot   -1.078
        37           h36bf         1   UNL       h36        37     0.14571        1.0080 ; qtot   -0.932
        38           h37bf         1   UNL       h37        38     0.14052        1.0080 ; qtot   -0.792
        39           h38bf         1   UNL       h38        39     0.14264        1.0080 ; qtot   -0.649
        40           h39bf         1   UNL       h39        40     0.09817        1.0080 ; qtot   -0.551
        41           h40bf         1   UNL       h40        41     0.09817        1.0080 ; qtot   -0.453
        42           h41bf         1   UNL       h41        42     0.44618        1.0080 ; qtot   -0.006
        43           h42bf         1   UNL       h42        43     0.09706        1.0080 ; qtot    0.091
        44           h43bf         1   UNL       h43        44     0.09706        1.0080 ; qtot    0.188
        45           h44bf         1   UNL       h44        45     0.08728        1.0080 ; qtot    0.275
        46           h45bf         1   UNL       h45        46     0.08728        1.0080 ; qtot    0.362
        47           h46bf         1   UNL       h46        47     0.07955        1.0080 ; qtot    0.442
        48           h47bf         1   UNL       h47        48     0.07955        1.0080 ; qtot    0.521
        49           h48bf         1   UNL       h48        49     0.08728        1.0080 ; qtot    0.609
        50           h49bf         1   UNL       h49        50     0.08728        1.0080 ; qtot    0.696
        51           h50bf         1   UNL       h50        51     0.09706        1.0080 ; qtot    0.793
        52           h51bf         1   UNL       h51        52     0.09706        1.0080 ; qtot    0.890
        53           h52bf         1   UNL       h52        53     0.05496        1.0080 ; qtot    0.945
        54           h53bf         1   UNL       h53        54     0.05494        1.0080 ; qtot    1.000

[ bonds ]
;       ai        aj funct               r               k
         1         2     1        0.141125   331509.857666    ;  uncertainty r = 0.000192, k = 5.071174
         1         4     1        0.138378   364854.963770    ;  uncertainty r = 0.000064, k = 4.177253
         1        31     1        0.108643   334932.392139    ;  uncertainty r = 0.000036, k = 3.079082
         2         3     1        0.138298   349323.293848    ;  uncertainty r = 0.000162, k = 5.428666
         2        26     1        0.140129   298214.063721    ;  uncertainty r = 0.000162, k = 10.021546
         3         6     1        0.139637   362828.313232    ;  uncertainty r = 0.000041, k = 7.596811
         3        32     1        0.108735   335851.549316    ;  uncertainty r = 0.000058, k = 1.622483
         4         5     1        0.140330   357650.357861    ;  uncertainty r = 0.000079, k = 3.718766
         4        33     1        0.108655   334306.171143    ;  uncertainty r = 0.000033, k = 1.146145
         5         6     1        0.141783   396707.553516    ;  uncertainty r = 0.000086, k = 6.883979
         5         9     1        0.144370   228057.546436    ;  uncertainty r = 0.000020, k = 14.189427
         6         7     1        0.137565   293881.207910    ;  uncertainty r = 0.000077, k = 11.667661
         7         8     1        0.136307   293788.482666    ;  uncertainty r = 0.000072, k = 3.990315
         7        34     1        0.101090   415043.810937    ;  uncertainty r = 0.000029, k = 3.234701
         8         9     1        0.133460   447078.480273    ;  uncertainty r = 0.000096, k = 8.272837
         9        10     1        0.144794   289844.837939    ;  uncertainty r = 0.000097, k = 8.113485
        10        11     1        0.139278   314563.610645    ;  uncertainty r = 0.000138, k = 6.375764
        10        12     1        0.138557   411550.487598    ;  uncertainty r = 0.000054, k = 8.789488
        11        14     1        0.138425   328598.831494    ;  uncertainty r = 0.000062, k = 8.931475
        11        35     1        0.101173   411616.066895    ;  uncertainty r = 0.000057, k = 2.842789
        12        13     1        0.143692   255790.055566    ;  uncertainty r = 0.000105, k = 4.554133
        12        36     1        0.108254   339128.037061    ;  uncertainty r = 0.000025, k = 2.039581
        13        14     1        0.142749   371889.109473    ;  uncertainty r = 0.000072, k = 7.022474
        13        18     1        0.140315   369064.066748    ;  uncertainty r = 0.000085, k = 6.344517
        14        15     1        0.139681   367411.177344    ;  uncertainty r = 0.000052, k = 3.723678
        15        16     1        0.139020   366168.899121    ;  uncertainty r = 0.000059, k = 2.515093
        15        37     1        0.108877   336609.592871    ;  uncertainty r = 0.000015, k = 1.582506
        16        17     1        0.141750   334230.760059    ;  uncertainty r = 0.000211, k = 11.244450
        16        38     1        0.108854   333323.784082    ;  uncertainty r = 0.000014, k = 3.098911
        17        18     1        0.139748   350982.567529    ;  uncertainty r = 0.000152, k = 5.394295
        17        19     1        0.150103   226936.288574    ;  uncertainty r = 0.000114, k = 17.047802
        18        39     1        0.108909   332925.251953    ;  uncertainty r = 0.000037, k = 2.830692
        19        20     1        0.153660   179012.748999    ;  uncertainty r = 0.000327, k = 43.366644
        19        40     1        0.109181   310034.246777    ;  uncertainty r = 0.000035, k = 3.833353
        19        41     1        0.109181   310034.246777    ;  uncertainty r = 0.000035, k = 3.833353
        20        21     1        0.152169   180406.066455    ;  uncertainty r = 0.000049, k = 12.452743
        20        25     1        0.152169   180406.066455    ;  uncertainty r = 0.000049, k = 12.452743
        20        42     1        0.102586   390637.842285    ;  uncertainty r = 0.000036, k = 11.281185
        21        22     1        0.152834   209282.701929    ;  uncertainty r = 0.000028, k = 9.286892
        21        43     1        0.109144   310070.075342    ;  uncertainty r = 0.000010, k = 2.395423
        21        44     1        0.109144   310070.075342    ;  uncertainty r = 0.000010, k = 2.395423
        22        23     1        0.153701   218673.041797    ;  uncertainty r = 0.000042, k = 7.507755
        22        45     1        0.109502   309117.592236    ;  uncertainty r = 0.000018, k = 2.859548
        22        46     1        0.109502   309117.592236    ;  uncertainty r = 0.000018, k = 2.859548
        23        24     1        0.153701   218673.041797    ;  uncertainty r = 0.000042, k = 7.507755
        23        47     1        0.109462   308277.702246    ;  uncertainty r = 0.000013, k = 3.408438
        23        48     1        0.109462   308277.702246    ;  uncertainty r = 0.000013, k = 3.408438
        24        25     1        0.152834   209282.701929    ;  uncertainty r = 0.000028, k = 9.286892
        24        49     1        0.109502   309117.592236    ;  uncertainty r = 0.000018, k = 2.859548
        24        50     1        0.109502   309117.592236    ;  uncertainty r = 0.000018, k = 2.859548
        25        51     1        0.109144   310070.075342    ;  uncertainty r = 0.000010, k = 2.395423
        25        52     1        0.109144   310070.075342    ;  uncertainty r = 0.000010, k = 2.395423
        26        27     1        0.134261   230969.670703    ;  uncertainty r = 0.000144, k = 4.263217
        26        30     1        0.134261   230969.670703    ;  uncertainty r = 0.000144, k = 4.263217
        27        28     1        0.132920   463910.091211    ;  uncertainty r = 0.000060, k = 8.363329
        28        29     1        0.141781   249584.001709    ;  uncertainty r = 0.000103, k = 15.332670
        28        53     1        0.108418   339910.136572    ;  uncertainty r = 0.000037, k = 1.124299
        29        30     1        0.132920   463910.091211    ;  uncertainty r = 0.000060, k = 8.363336
        29        54     1        0.108418   339910.136572    ;  uncertainty r = 0.000037, k = 1.124299

[ angles ]
;       ai        aj        ak funct           theta             cth
         1         2         3     1      125.348465      398.373224    ;  uncertainty theta = 0.008078, k = 0.166867
         1         2        26     1      116.996315      465.182803    ;  uncertainty theta = 0.005760, k = 0.143295
         1         4         5     1      119.465317      537.107529    ;  uncertainty theta = 0.002718, k = 0.114590
         1         4        33     1      120.445358      280.952957    ;  uncertainty theta = 0.001972, k = 0.099597
         2         1         4     1      121.329674      521.806651    ;  uncertainty theta = 0.006917, k = 0.138170
         2         1        31     1      118.003868      264.395094    ;  uncertainty theta = 0.001762, k = 0.048530
         2         3         6     1      114.827713      506.749365    ;  uncertainty theta = 0.005730, k = 0.096217
         2         3        32     1      120.086380      262.170221    ;  uncertainty theta = 0.002939, k = 0.104687
         2        26        27     1      116.159767      461.362516    ;  uncertainty theta = 0.005740, k = 0.180463
         2        26        30     1      116.159767      461.362516    ;  uncertainty theta = 0.005740, k = 0.180463
         3         2        26     1      117.063278      453.012423    ;  uncertainty theta = 0.006115, k = 0.143026
         3         6         5     1      122.327087      372.216074    ;  uncertainty theta = 0.005919, k = 0.251027
         3         6         7     1      129.201385      394.421995    ;  uncertainty theta = 0.002476, k = 0.220445
         4         1        31     1      120.482727      295.672994    ;  uncertainty theta = 0.002080, k = 0.048947
         4         5         6     1      117.086952      395.836751    ;  uncertainty theta = 0.005381, k = 0.100625
         4         5         9     1      131.346405      367.978382    ;  uncertainty theta = 0.003494, k = 0.263212
         5         4        33     1      121.223732      277.822586    ;  uncertainty theta = 0.001518, k = 0.063361
         5         6         7     1      105.513489      650.482782    ;  uncertainty theta = 0.004163, k = 0.131612
         5         9         8     1      113.191727      811.068298    ;  uncertainty theta = 0.003934, k = 0.129646
         5         9        10     1      127.350197      329.149399    ;  uncertainty theta = 0.008095, k = 0.190319
         6         3        32     1      123.155197      291.185932    ;  uncertainty theta = 0.003190, k = 0.109498
         6         5         9     1      103.803017      755.006299    ;  uncertainty theta = 0.006314, k = 0.194283
         6         7         8     1      108.889938     1003.787158    ;  uncertainty theta = 0.004497, k = 0.026393
         6         7        34     1      115.946449      286.034299    ;  uncertainty theta = 0.005209, k = 0.116491
         7         8         9     1      109.045311      920.156381    ;  uncertainty theta = 0.003794, k = 0.170969
         8         7        34     1      108.269577      346.451110    ;  uncertainty theta = 0.005173, k = 0.076057
         8         9        10     1      120.762985      422.043699    ;  uncertainty theta = 0.004996, k = 0.118777
         9        10        11     1      119.132584      397.104668    ;  uncertainty theta = 0.005186, k = 0.178000
         9        10        12     1      128.640167      347.261370    ;  uncertainty theta = 0.004833, k = 0.168064
        10        11        14     1      106.165138      854.002691    ;  uncertainty theta = 0.002753, k = 0.085041
        10        11        35     1      116.293541      283.584141    ;  uncertainty theta = 0.006065, k = 0.113643
        10        12        13     1      107.187729      787.754258    ;  uncertainty theta = 0.002699, k = 0.072143
        10        12        36     1      123.161888      244.573158    ;  uncertainty theta = 0.003527, k = 0.152526
        11        10        12     1      111.264282      650.558244    ;  uncertainty theta = 0.002902, k = 0.165799
        11        14        13     1      108.242752      705.816974    ;  uncertainty theta = 0.002548, k = 0.146960
        11        14        15     1      129.553223      399.783192    ;  uncertainty theta = 0.001405, k = 0.079201
        12        13        14     1      106.846535      662.344706    ;  uncertainty theta = 0.001346, k = 0.176005
        12        13        18     1      132.347778      372.482490    ;  uncertainty theta = 0.003209, k = 0.146270
        13        12        36     1      124.819275      255.898052    ;  uncertainty theta = 0.003779, k = 0.072933
        13        14        15     1      119.718323      387.749499    ;  uncertainty theta = 0.002902, k = 0.065974
        13        18        17     1      119.763710      543.188936    ;  uncertainty theta = 0.005094, k = 0.209394
        13        18        39     1      120.935867      304.812789    ;  uncertainty theta = 0.002476, k = 0.040876
        14        11        35     1      116.981216      292.079827    ;  uncertainty theta = 0.005273, k = 0.076356
        14        13        18     1      116.553329      410.743879    ;  uncertainty theta = 0.005419, k = 0.156523
        14        15        16     1      117.036095      522.748204    ;  uncertainty theta = 0.003091, k = 0.092514
        14        15        37     1      122.463211      292.399360    ;  uncertainty theta = 0.001064, k = 0.070309
        15        16        17     1      123.551590      507.233644    ;  uncertainty theta = 0.008012, k = 0.030918
        15        16        38     1      119.046936      295.375869    ;  uncertainty theta = 0.001171, k = 0.111099
        16        15        37     1      120.796852      284.886821    ;  uncertainty theta = 0.001274, k = 0.066583
        16        17        18     1      124.084671      457.660305    ;  uncertainty theta = 0.007359, k = 0.143504
        16        17        19     1      118.705055      422.194495    ;  uncertainty theta = 0.000610, k = 0.181631
        17        16        38     1      118.020508      280.232140    ;  uncertainty theta = 0.003100, k = 0.193177
        17        18        39     1      119.015297      275.001023    ;  uncertainty theta = 0.004327, k = 0.205861
        17        19        20     1      112.946289      641.268802    ;  uncertainty theta = 0.003207, k = 0.126515
        17        19        40     1      109.866928      412.643393    ;  uncertainty theta = 0.002504, k = 0.135953
        17        19        41     1      109.866928      412.643393    ;  uncertainty theta = 0.002504, k = 0.135953
        18        17        19     1      118.955978      424.704857    ;  uncertainty theta = 0.002486, k = 0.075248
        19        20        21     1      111.988121      601.199098    ;  uncertainty theta = 0.006579, k = 0.139305
        19        20        25     1      111.988121      601.199098    ;  uncertainty theta = 0.006579, k = 0.139305
        19        20        42     1      106.858643      436.715726    ;  uncertainty theta = 0.004999, k = 0.136174
        20        19        40     1      105.880051      451.368249    ;  uncertainty theta = 0.004585, k = 0.191421
        20        19        41     1      105.880051      451.368249    ;  uncertainty theta = 0.004585, k = 0.191421
        20        21        22     1      110.708633      722.998277    ;  uncertainty theta = 0.001865, k = 0.132970
        20        21        43     1      106.218994      468.717554    ;  uncertainty theta = 0.002324, k = 0.085258
        20        21        44     1      106.218994      468.717554    ;  uncertainty theta = 0.002324, k = 0.085258
        20        25        24     1      110.708633      722.998277    ;  uncertainty theta = 0.001865, k = 0.132970
        20        25        51     1      106.218994      468.717554    ;  uncertainty theta = 0.002324, k = 0.085258
        20        25        52     1      106.218994      468.717554    ;  uncertainty theta = 0.002324, k = 0.085258
        21        20        25     1      111.821800      644.923226    ;  uncertainty theta = 0.001949, k = 0.259168
        21        20        42     1      106.543808      448.844735    ;  uncertainty theta = 0.004117, k = 0.223667
        21        22        23     1      109.790810      624.479174    ;  uncertainty theta = 0.004250, k = 0.083823
        21        22        45     1      107.363419      408.221227    ;  uncertainty theta = 0.002020, k = 0.076477
        21        22        46     1      107.363419      408.221227    ;  uncertainty theta = 0.002020, k = 0.076477
        22        21        43     1      111.185471      418.063421    ;  uncertainty theta = 0.001992, k = 0.101180
        22        21        44     1      111.185471      418.063421    ;  uncertainty theta = 0.001992, k = 0.101180
        22        23        24     1      108.999069      633.635057    ;  uncertainty theta = 0.005549, k = 0.186389
        22        23        47     1      108.669968      407.572266    ;  uncertainty theta = 0.002054, k = 0.047913
        22        23        48     1      108.669968      407.572266    ;  uncertainty theta = 0.002054, k = 0.047913
        23        22        45     1      109.402649      408.624746    ;  uncertainty theta = 0.001844, k = 0.027594
        23        22        46     1      109.402649      408.624746    ;  uncertainty theta = 0.001844, k = 0.027594
        23        24        25     1      109.790810      624.479174    ;  uncertainty theta = 0.004250, k = 0.083823
        23        24        49     1      109.402649      408.624746    ;  uncertainty theta = 0.001844, k = 0.027594
        23        24        50     1      109.402649      408.624746    ;  uncertainty theta = 0.001844, k = 0.027594
        24        23        47     1      108.669968      407.572266    ;  uncertainty theta = 0.002054, k = 0.047913
        24        23        48     1      108.669968      407.572266    ;  uncertainty theta = 0.002054, k = 0.047913
        24        25        51     1      111.185471      418.063421    ;  uncertainty theta = 0.001992, k = 0.101180
        24        25        52     1      111.185471      418.063421    ;  uncertainty theta = 0.001992, k = 0.101180
        25        20        42     1      106.543808      448.844735    ;  uncertainty theta = 0.004117, k = 0.223667
        25        24        49     1      107.363419      408.221227    ;  uncertainty theta = 0.002020, k = 0.076477
        25        24        50     1      107.363419      408.221227    ;  uncertainty theta = 0.002020, k = 0.076477
        26        27        28     1      105.617393      929.987338    ;  uncertainty theta = 0.004892, k = 0.191724
        26        30        29     1      105.617393      929.987338    ;  uncertainty theta = 0.004892, k = 0.191724
        27        26        30     1      113.734116     1142.288692    ;  uncertainty theta = 0.005115, k = 0.060538
        27        28        29     1      108.922874      883.023828    ;  uncertainty theta = 0.004127, k = 0.098861
        27        28        53     1      119.787094      273.855556    ;  uncertainty theta = 0.003812, k = 0.058839
        28        29        30     1      108.922874      883.023828    ;  uncertainty theta = 0.004127, k = 0.098861
        28        29        54     1      127.065445      242.460712    ;  uncertainty theta = 0.004115, k = 0.077998
        29        28        53     1      127.065445      242.460712    ;  uncertainty theta = 0.004115, k = 0.077998
        30        29        54     1      119.787109      273.855524    ;  uncertainty theta = 0.003812, k = 0.058839
        40        19        41     1      106.646156      319.393074    ;  uncertainty theta = 0.003403, k = 0.028629
        43        21        44     1      107.461449      325.817508    ;  uncertainty theta = 0.003055, k = 0.044212
        45        22        46     1      104.866112      316.124707    ;  uncertainty theta = 0.003395, k = 0.053955
        47        23        48     1      104.130638      320.035651    ;  uncertainty theta = 0.002967, k = 0.052617
        49        24        50     1      104.866112      316.124707    ;  uncertainty theta = 0.003395, k = 0.053955
        51        25        52     1      107.461449      325.817476    ;  uncertainty theta = 0.003055, k = 0.044212

[ dihedrals ] ; propers for gromacs 4.5 or higher, use funct 9
;       ai        aj        ak        al funct           phase               k        pn
         1         2         3         6     9        0.000000       -0.010772         1    ;  uncertainty k = 0.126121
         1         2         3         6     9      180.000000       11.963982         2    ;  uncertainty k = 0.094576
         1         2         3         6     9        0.000000        0.113903         3    ;  uncertainty k = 0.337047
         1         2         3         6     9      180.000000        1.026486         4    ;  uncertainty k = 0.228394
         1         2         3        32     9        0.000000        0.280508         1    ;  uncertainty k = 0.252489
         1         2         3        32     9      180.000000        7.448041         2    ;  uncertainty k = 0.811240
         1         2         3        32     9        0.000000        1.567532         3    ;  uncertainty k = 0.229236
         1         2         3        32     9      180.000000        1.599339         4    ;  uncertainty k = 0.232061
         1         2        26        27     9        0.000000        1.622476         1    ;  uncertainty k = 0.482373
         1         2        26        27     9      180.000000        4.576685         2    ;  uncertainty k = 0.258501
         1         2        26        27     9        0.000000        0.741443         3    ;  uncertainty k = 0.238141
         1         2        26        27     9      180.000000        0.036653         4    ;  uncertainty k = 0.100426
         1         2        26        30     9        0.000000        1.622476         1    ;  uncertainty k = 0.482373
         1         2        26        30     9      180.000000        4.576685         2    ;  uncertainty k = 0.258501
         1         2        26        30     9        0.000000        0.741443         3    ;  uncertainty k = 0.238141
         1         2        26        30     9      180.000000        0.036653         4    ;  uncertainty k = 0.100426
         1         4         5         6     9        0.000000       -0.054670         1    ;  uncertainty k = 0.310599
         1         4         5         6     9      180.000000       13.557958         2    ;  uncertainty k = 0.237191
         1         4         5         6     9        0.000000       -1.812245         3    ;  uncertainty k = 0.598034
         1         4         5         6     9      180.000000        0.706801         4    ;  uncertainty k = 0.275688
         1         4         5         9     9        0.000000        0.375371         1    ;  uncertainty k = 0.389133
         1         4         5         9     9      180.000000        8.628381         2    ;  uncertainty k = 0.567199
         1         4         5         9     9        0.000000        0.711642         3    ;  uncertainty k = 0.459055
         1         4         5         9     9      180.000000        1.287447         4    ;  uncertainty k = 0.147774
         2         1         4         5     9        0.000000       -0.130479         1    ;  uncertainty k = 0.202711
         2         1         4         5     9      180.000000       16.340941         2    ;  uncertainty k = 0.316618
         2         1         4         5     9        0.000000       -0.180179         3    ;  uncertainty k = 0.408142
         2         1         4         5     9      180.000000        0.775478         4    ;  uncertainty k = 0.134889
         2         1         4        33     9        0.000000       -0.219548         1    ;  uncertainty k = 0.405943
         2         1         4        33     9      180.000000        9.666678         2    ;  uncertainty k = 0.608954
         2         1         4        33     9        0.000000        1.393011         3    ;  uncertainty k = 0.277830
         2         1         4        33     9      180.000000        1.828575         4    ;  uncertainty k = 0.322213
         2         3         6         5     9        0.000000       -0.130288         1    ;  uncertainty k = 0.380407
         2         3         6         5     9      180.000000       12.283126         2    ;  uncertainty k = 0.212164
         2         3         6         5     9        0.000000       -1.358541         3    ;  uncertainty k = 0.593797
         2         3         6         5     9      180.000000        0.727136         4    ;  uncertainty k = 0.219686
         2         3         6         7     9        0.000000       -0.027817         1    ;  uncertainty k = 0.225921
         2         3         6         7     9      180.000000       11.042392         2    ;  uncertainty k = 0.818170
         2         3         6         7     9        0.000000        0.798804         3    ;  uncertainty k = 0.165618
         2         3         6         7     9      180.000000        1.151498         4    ;  uncertainty k = 0.387762
         2        26        27        28     9        0.000000        0.995363         1    ;  uncertainty k = 2.349376
         2        26        27        28     9      180.000000       13.623574         2    ;  uncertainty k = 0.304614
         2        26        27        28     9        0.000000        1.461517         3    ;  uncertainty k = 0.217966
         2        26        27        28     9      180.000000        0.252159         4    ;  uncertainty k = 0.177859
         2        26        30        29     9        0.000000        0.995363         1    ;  uncertainty k = 2.349376
         2        26        30        29     9      180.000000       13.623574         2    ;  uncertainty k = 0.304614
         2        26        30        29     9        0.000000        1.461517         3    ;  uncertainty k = 0.217966
         2        26        30        29     9      180.000000        0.252159         4    ;  uncertainty k = 0.177859
         3         2         1         4     9        0.000000       -0.123114         1    ;  uncertainty k = 0.160872
         3         2         1         4     9      180.000000        8.257801         2    ;  uncertainty k = 0.358973
         3         2         1         4     9        0.000000        0.056690         3    ;  uncertainty k = 0.404100
         3         2         1         4     9      180.000000        1.143282         4    ;  uncertainty k = 0.163382
         3         2         1        31     9        0.000000        0.079982         1    ;  uncertainty k = 0.303505
         3         2         1        31     9      180.000000        5.986296         2    ;  uncertainty k = 0.921484
         3         2         1        31     9        0.000000        1.228172         3    ;  uncertainty k = 0.187777
         3         2         1        31     9      180.000000        1.504754         4    ;  uncertainty k = 0.380748
         3         2        26        27     9        0.000000        1.553953         1    ;  uncertainty k = 0.319535
         3         2        26        27     9      180.000000        4.636755         2    ;  uncertainty k = 0.441817
         3         2        26        27     9        0.000000        0.618074         3    ;  uncertainty k = 0.300579
         3         2        26        27     9      180.000000       -0.025930         4    ;  uncertainty k = 0.089374
         3         2        26        30     9        0.000000        1.553953         1    ;  uncertainty k = 0.319535
         3         2        26        30     9      180.000000        4.636755         2    ;  uncertainty k = 0.441817
         3         2        26        30     9        0.000000        0.618074         3    ;  uncertainty k = 0.300579
         3         2        26        30     9      180.000000       -0.025930         4    ;  uncertainty k = 0.089374
         3         6         5         4     9        0.000000       -0.724358         1    ;  uncertainty k = 0.869091
         3         6         5         4     9      180.000000        7.009595         2    ;  uncertainty k = 0.277084
         3         6         5         4     9        0.000000        0.264303         3    ;  uncertainty k = 0.264786
         3         6         5         4     9      180.000000        1.067532         4    ;  uncertainty k = 0.307947
         3         6         5         9     9        0.000000       -0.156879         1    ;  uncertainty k = 0.593377
         3         6         5         9     9      180.000000        7.185230         2    ;  uncertainty k = 0.410054
         3         6         5         9     9        0.000000        0.223662         3    ;  uncertainty k = 0.439574
         3         6         5         9     9      180.000000        1.306134         4    ;  uncertainty k = 0.366501
         3         6         7         8     9        0.000000        0.908910         1    ;  uncertainty k = 0.772634
         3         6         7         8     9      180.000000        7.415057         2    ;  uncertainty k = 0.470915
         3         6         7         8     9        0.000000        0.678085         3    ;  uncertainty k = 0.431459
         3         6         7         8     9      180.000000        0.275447         4    ;  uncertainty k = 0.216041
         3         6         7        34     9        0.000000        2.161003         1    ;  uncertainty k = 1.039718
         3         6         7        34     9      180.000000        1.734889         2    ;  uncertainty k = 0.806857
         3         6         7        34     9        0.000000        1.316688         3    ;  uncertainty k = 0.580666
         3         6         7        34     9      180.000000        0.127484         4    ;  uncertainty k = 0.140488
         4         1         2        26     9        0.000000        0.172498         1    ;  uncertainty k = 0.267736
         4         1         2        26     9      180.000000        9.089980         2    ;  uncertainty k = 0.543503
         4         1         2        26     9        0.000000        1.190028         3    ;  uncertainty k = 0.350119
         4         1         2        26     9      180.000000        1.558338         4    ;  uncertainty k = 0.246625
         4         5         6         7     9        0.000000       -0.060068         1    ;  uncertainty k = 0.522981
         4         5         6         7     9      180.000000        8.264741         2    ;  uncertainty k = 0.166290
         4         5         6         7     9        0.000000       -0.149579         3    ;  uncertainty k = 0.463442
         4         5         6         7     9      180.000000        1.225048         4    ;  uncertainty k = 0.352250
         4         5         9         8     9        0.000000        0.915261         1    ;  uncertainty k = 0.364982
         4         5         9         8     9      180.000000        6.497475         2    ;  uncertainty k = 0.652622
         4         5         9         8     9        0.000000        0.412804         3    ;  uncertainty k = 0.248913
         4         5         9         8     9      180.000000        0.937714         4    ;  uncertainty k = 0.232540
         4         5         9        10     9        0.000000        0.135598         1    ;  uncertainty k = 1.251431
         4         5         9        10     9      180.000000        4.843606         2    ;  uncertainty k = 1.262817
         4         5         9        10     9        0.000000        1.382224         3    ;  uncertainty k = 0.188501
         4         5         9        10     9      180.000000        0.056284         4    ;  uncertainty k = 0.257215
         5         4         1        31     9        0.000000        0.177410         1    ;  uncertainty k = 0.295014
         5         4         1        31     9      180.000000       11.126237         2    ;  uncertainty k = 0.404396
         5         4         1        31     9        0.000000        1.540207         3    ;  uncertainty k = 0.352541
         5         4         1        31     9      180.000000        1.819296         4    ;  uncertainty k = 0.320431
         5         6         3        32     9        0.000000        0.093638         1    ;  uncertainty k = 0.311240
         5         6         3        32     9      180.000000        6.546289         2    ;  uncertainty k = 1.252958
         5         6         3        32     9        0.000000        1.325350         3    ;  uncertainty k = 0.210761
         5         6         3        32     9      180.000000        1.090369         4    ;  uncertainty k = 0.414935
         5         6         7         8     9        0.000000        0.427728         1    ;  uncertainty k = 0.494862
         5         6         7         8     9      180.000000       17.659115         2    ;  uncertainty k = 1.126155
         5         6         7         8     9        0.000000       -8.103732         3    ;  uncertainty k = 1.156856
         5         6         7         8     9      180.000000        0.712398         4    ;  uncertainty k = 0.470983
         5         6         7        34     9        0.000000        4.480229         1    ;  uncertainty k = 1.738450
         5         6         7        34     9      180.000000        5.949938         2    ;  uncertainty k = 1.261111
         5         6         7        34     9        0.000000        1.359721         3    ;  uncertainty k = 0.256080
         5         6         7        34     9      180.000000        0.042887         4    ;  uncertainty k = 0.152713
         5         9         8         7     9        0.000000       -0.132641         1    ;  uncertainty k = 0.556030
         5         9         8         7     9      180.000000       23.108355         2    ;  uncertainty k = 0.296179
         5         9         8         7     9        0.000000       -3.619173         3    ;  uncertainty k = 0.881397
         5         9         8         7     9      180.000000        2.087164         4    ;  uncertainty k = 0.552789
         5         9        10        11     9        0.000000        1.857987         1    ;  uncertainty k = 0.949706
         5         9        10        11     9      180.000000        2.866333         2    ;  uncertainty k = 0.304444
         5         9        10        11     9        0.000000        0.920415         3    ;  uncertainty k = 0.201477
         5         9        10        11     9      180.000000       -0.076120         4    ;  uncertainty k = 0.124703
         5         9        10        12     9        0.000000        0.260947         1    ;  uncertainty k = 0.915814
         5         9        10        12     9      180.000000        2.381500         2    ;  uncertainty k = 0.307618
         5         9        10        12     9        0.000000        0.482504         3    ;  uncertainty k = 0.166592
         5         9        10        12     9      180.000000       -0.005802         4    ;  uncertainty k = 0.106168
         6         3         2        26     9        0.000000        0.455210         1    ;  uncertainty k = 0.650875
         6         3         2        26     9      180.000000       13.777731         2    ;  uncertainty k = 0.169238
         6         3         2        26     9        0.000000        1.333525         3    ;  uncertainty k = 0.079571
         6         3         2        26     9      180.000000        1.303575         4    ;  uncertainty k = 0.190355
         6         5         4        33     9        0.000000        0.044459         1    ;  uncertainty k = 0.509584
         6         5         4        33     9      180.000000        7.520253         2    ;  uncertainty k = 0.856558
         6         5         4        33     9        0.000000        1.309440         3    ;  uncertainty k = 0.326815
         6         5         4        33     9      180.000000        1.107250         4    ;  uncertainty k = 0.452005
         6         5         9         8     9        0.000000        0.479407         1    ;  uncertainty k = 0.506899
         6         5         9         8     9      180.000000       13.232163         2    ;  uncertainty k = 0.779682
         6         5         9         8     9        0.000000      -10.644505         3    ;  uncertainty k = 1.822128
         6         5         9         8     9      180.000000        2.030643         4    ;  uncertainty k = 0.458945
         6         5         9        10     9        0.000000        0.982515         1    ;  uncertainty k = 1.702651
         6         5         9        10     9      180.000000        9.438785         2    ;  uncertainty k = 0.413925
         6         5         9        10     9        0.000000        1.278836         3    ;  uncertainty k = 0.280956
         6         5         9        10     9      180.000000        0.448167         4    ;  uncertainty k = 0.303721
         6         7         8         9     9        0.000000       -0.776823         1    ;  uncertainty k = 0.767255
         6         7         8         9     9      180.000000       17.535738         2    ;  uncertainty k = 0.707255
         6         7         8         9     9        0.000000       -4.683152         3    ;  uncertainty k = 1.268447
         6         7         8         9     9      180.000000        0.985456         4    ;  uncertainty k = 0.575029
         7         6         3        32     9        0.000000        0.200446         1    ;  uncertainty k = 0.474118
         7         6         3        32     9      180.000000        5.730998         2    ;  uncertainty k = 1.259293
         7         6         3        32     9        0.000000        1.282119         3    ;  uncertainty k = 0.175950
         7         6         3        32     9      180.000000        0.878762         4    ;  uncertainty k = 0.461838
         7         6         5         9     9        0.000000       -0.464743         1    ;  uncertainty k = 0.081150
         7         6         5         9     9      180.000000       12.567425         2    ;  uncertainty k = 0.791851
         7         6         5         9     9        0.000000       -3.883635         3    ;  uncertainty k = 1.502356
         7         6         5         9     9      180.000000        1.547289         4    ;  uncertainty k = 0.490326
         7         8         9        10     9        0.000000        0.061610         1    ;  uncertainty k = 0.466606
         7         8         9        10     9      180.000000       25.044339         2    ;  uncertainty k = 0.427445
         7         8         9        10     9        0.000000        1.724584         3    ;  uncertainty k = 0.533843
         7         8         9        10     9      180.000000        1.067933         4    ;  uncertainty k = 0.441022
         8         9        10        11     9        0.000000        0.781710         1    ;  uncertainty k = 0.994313
         8         9        10        11     9      180.000000        4.218386         2    ;  uncertainty k = 0.146827
         8         9        10        11     9        0.000000        0.456255         3    ;  uncertainty k = 0.336140
         8         9        10        11     9      180.000000        0.006739         4    ;  uncertainty k = 0.109076
         8         9        10        12     9        0.000000        1.294517         1    ;  uncertainty k = 0.682896
         8         9        10        12     9      180.000000        3.396277         2    ;  uncertainty k = 0.207658
         8         9        10        12     9        0.000000        1.007984         3    ;  uncertainty k = 0.211819
         8         9        10        12     9      180.000000       -0.027329         4    ;  uncertainty k = 0.091070
         9         5         4        33     9        0.000000        0.250067         1    ;  uncertainty k = 0.523748
         9         5         4        33     9      180.000000        5.561584         2    ;  uncertainty k = 0.443491
         9         5         4        33     9        0.000000        1.129286         3    ;  uncertainty k = 0.073602
         9         5         4        33     9      180.000000        0.598045         4    ;  uncertainty k = 0.276985
         9         8         7        34     9        0.000000        3.382701         1    ;  uncertainty k = 2.507818
         9         8         7        34     9      180.000000       12.119454         2    ;  uncertainty k = 0.260055
         9         8         7        34     9        0.000000        1.625366         3    ;  uncertainty k = 1.027450
         9         8         7        34     9      180.000000       -0.148381         4    ;  uncertainty k = 0.504395
         9        10        11        14     9        0.000000        0.972876         1    ;  uncertainty k = 0.747688
         9        10        11        14     9      180.000000        9.072037         2    ;  uncertainty k = 0.685183
         9        10        11        14     9        0.000000        1.396325         3    ;  uncertainty k = 0.437267
         9        10        11        14     9      180.000000        0.162816         4    ;  uncertainty k = 0.433254
         9        10        11        35     9        0.000000        0.918600         1    ;  uncertainty k = 1.149431
         9        10        11        35     9      180.000000        2.312194         2    ;  uncertainty k = 0.875632
         9        10        11        35     9        0.000000        1.179158         3    ;  uncertainty k = 0.546571
         9        10        11        35     9      180.000000        0.033563         4    ;  uncertainty k = 0.163922
         9        10        12        13     9        0.000000        0.445398         1    ;  uncertainty k = 0.425637
         9        10        12        13     9      180.000000       14.898008         2    ;  uncertainty k = 0.250982
         9        10        12        13     9        0.000000        1.555908         3    ;  uncertainty k = 0.315662
         9        10        12        13     9      180.000000        0.839320         4    ;  uncertainty k = 0.195174
         9        10        12        36     9        0.000000        0.548979         1    ;  uncertainty k = 0.628695
         9        10        12        36     9      180.000000        8.040030         2    ;  uncertainty k = 0.846047
         9        10        12        36     9        0.000000        1.437429         3    ;  uncertainty k = 0.231870
         9        10        12        36     9      180.000000        0.430055         4    ;  uncertainty k = 0.351490
        10        11        14        13     9        0.000000        0.677224         1    ;  uncertainty k = 0.484040
        10        11        14        13     9      180.000000       15.391538         2    ;  uncertainty k = 0.543861
        10        11        14        13     9        0.000000       -7.176031         3    ;  uncertainty k = 1.504592
        10        11        14        13     9      180.000000        0.720549         4    ;  uncertainty k = 0.312836
        10        11        14        15     9        0.000000        1.177185         1    ;  uncertainty k = 1.388290
        10        11        14        15     9      180.000000        6.066057         2    ;  uncertainty k = 0.681074
        10        11        14        15     9        0.000000        0.556232         3    ;  uncertainty k = 0.680744
        10        11        14        15     9      180.000000        0.362922         4    ;  uncertainty k = 0.189431
        10        12        13        14     9        0.000000        0.361292         1    ;  uncertainty k = 1.330430
        10        12        13        14     9      180.000000       13.508990         2    ;  uncertainty k = 0.841570
        10        12        13        14     9        0.000000      -10.232746         3    ;  uncertainty k = 2.429813
        10        12        13        14     9      180.000000        1.943500         4    ;  uncertainty k = 0.699510
        10        12        13        18     9        0.000000        0.719928         1    ;  uncertainty k = 1.051785
        10        12        13        18     9      180.000000        7.152434         2    ;  uncertainty k = 0.463258
        10        12        13        18     9        0.000000        0.639458         3    ;  uncertainty k = 0.568479
        10        12        13        18     9      180.000000        0.881597         4    ;  uncertainty k = 0.181196
        11        10        12        13     9        0.000000       -0.170591         1    ;  uncertainty k = 0.457887
        11        10        12        13     9      180.000000       21.183000         2    ;  uncertainty k = 0.305566
        11        10        12        13     9        0.000000       -5.763849         3    ;  uncertainty k = 0.923330
        11        10        12        13     9      180.000000        1.114901         4    ;  uncertainty k = 0.646691
        11        10        12        36     9        0.000000        0.167060         1    ;  uncertainty k = 0.788367
        11        10        12        36     9      180.000000       13.631220         2    ;  uncertainty k = 0.279679
        11        10        12        36     9        0.000000        1.611237         3    ;  uncertainty k = 0.521630
        11        10        12        36     9      180.000000        0.833703         4    ;  uncertainty k = 0.212157
        11        14        13        12     9        0.000000       -0.202825         1    ;  uncertainty k = 0.478407
        11        14        13        12     9      180.000000       13.002652         2    ;  uncertainty k = 0.931177
        11        14        13        12     9        0.000000       -3.504618         3    ;  uncertainty k = 1.340468
        11        14        13        12     9      180.000000        1.499261         4    ;  uncertainty k = 0.893862
        11        14        13        18     9        0.000000       -0.009400         1    ;  uncertainty k = 0.665287
        11        14        13        18     9      180.000000        8.599465         2    ;  uncertainty k = 0.303691
        11        14        13        18     9        0.000000        0.039108         3    ;  uncertainty k = 0.634312
        11        14        13        18     9      180.000000        1.157750         4    ;  uncertainty k = 0.318749
        11        14        15        16     9        0.000000        0.101687         1    ;  uncertainty k = 0.492650
        11        14        15        16     9      180.000000       10.396881         2    ;  uncertainty k = 0.405513
        11        14        15        16     9        0.000000        0.905536         3    ;  uncertainty k = 0.217852
        11        14        15        16     9      180.000000        1.193490         4    ;  uncertainty k = 0.199283
        11        14        15        37     9        0.000000        0.297608         1    ;  uncertainty k = 0.281792
        11        14        15        37     9      180.000000        5.979846         2    ;  uncertainty k = 0.436306
        11        14        15        37     9        0.000000        1.081486         3    ;  uncertainty k = 0.443402
        11        14        15        37     9      180.000000        0.788557         4    ;  uncertainty k = 0.396366
        12        10        11        14     9        0.000000       -0.312845         1    ;  uncertainty k = 0.580788
        12        10        11        14     9      180.000000       14.762202         2    ;  uncertainty k = 0.576008
        12        10        11        14     9        0.000000       -6.005934         3    ;  uncertainty k = 0.754875
        12        10        11        14     9      180.000000        0.807473         4    ;  uncertainty k = 0.503918
        12        10        11        35     9        0.000000        2.692548         1    ;  uncertainty k = 0.930202
        12        10        11        35     9      180.000000        7.104361         2    ;  uncertainty k = 0.633239
        12        10        11        35     9        0.000000        1.708608         3    ;  uncertainty k = 0.800499
        12        10        11        35     9      180.000000       -0.086000         4    ;  uncertainty k = 0.169592
        12        13        14        15     9        0.000000        0.122372         1    ;  uncertainty k = 0.493782
        12        13        14        15     9      180.000000        7.658649         2    ;  uncertainty k = 0.231490
        12        13        14        15     9        0.000000        0.307669         3    ;  uncertainty k = 0.516181
        12        13        14        15     9      180.000000        1.225404         4    ;  uncertainty k = 0.295152
        12        13        18        17     9        0.000000        0.273940         1    ;  uncertainty k = 0.242143
        12        13        18        17     9      180.000000        9.158220         2    ;  uncertainty k = 0.581427
        12        13        18        17     9        0.000000        0.774232         3    ;  uncertainty k = 0.207770
        12        13        18        17     9      180.000000        1.313479         4    ;  uncertainty k = 0.061551
        12        13        18        39     9        0.000000        0.176521         1    ;  uncertainty k = 0.521884
        12        13        18        39     9      180.000000        6.160616         2    ;  uncertainty k = 0.516039
        12        13        18        39     9        0.000000        1.150569         3    ;  uncertainty k = 0.299354
        12        13        18        39     9      180.000000        0.773380         4    ;  uncertainty k = 0.265485
        13        14        11        35     9        0.000000        4.251255         1    ;  uncertainty k = 1.360478
        13        14        11        35     9      180.000000        5.652297         2    ;  uncertainty k = 0.865941
        13        14        11        35     9        0.000000        1.218097         3    ;  uncertainty k = 0.455419
        13        14        11        35     9      180.000000        0.178738         4    ;  uncertainty k = 0.095967
        13        14        15        16     9        0.000000        0.138507         1    ;  uncertainty k = 0.419631
        13        14        15        16     9      180.000000       12.342478         2    ;  uncertainty k = 0.198431
        13        14        15        16     9        0.000000       -1.190024         3    ;  uncertainty k = 0.162598
        13        14        15        16     9      180.000000        0.787465         4    ;  uncertainty k = 0.236198
        13        14        15        37     9        0.000000        0.110142         1    ;  uncertainty k = 0.471897
        13        14        15        37     9      180.000000        6.826218         2    ;  uncertainty k = 0.834942
        13        14        15        37     9        0.000000        1.286748         3    ;  uncertainty k = 0.286966
        13        14        15        37     9      180.000000        1.215500         4    ;  uncertainty k = 0.381963
        13        18        17        16     9        0.000000       -0.120548         1    ;  uncertainty k = 0.442668
        13        18        17        16     9      180.000000       14.435859         2    ;  uncertainty k = 0.456972
        13        18        17        16     9        0.000000       -0.084202         3    ;  uncertainty k = 0.428045
        13        18        17        16     9      180.000000        0.846335         4    ;  uncertainty k = 0.451327
        13        18        17        19     9        0.000000        0.079424         1    ;  uncertainty k = 0.272272
        13        18        17        19     9      180.000000       12.474388         2    ;  uncertainty k = 0.384270
        13        18        17        19     9        0.000000        1.421860         3    ;  uncertainty k = 0.339278
        13        18        17        19     9      180.000000        1.635099         4    ;  uncertainty k = 0.224797
        14        13        12        36     9        0.000000        0.017967         1    ;  uncertainty k = 0.631560
        14        13        12        36     9      180.000000        8.382173         2    ;  uncertainty k = 0.283584
        14        13        12        36     9        0.000000        1.223121         3    ;  uncertainty k = 0.388946
        14        13        12        36     9      180.000000        0.290886         4    ;  uncertainty k = 0.214805
        14        13        18        17     9        0.000000        0.115653         1    ;  uncertainty k = 0.417507
        14        13        18        17     9      180.000000       13.211841         2    ;  uncertainty k = 0.348487
        14        13        18        17     9        0.000000       -1.525755         3    ;  uncertainty k = 0.580502
        14        13        18        17     9      180.000000        0.752655         4    ;  uncertainty k = 0.130469
        14        13        18        39     9        0.000000        0.217180         1    ;  uncertainty k = 0.371606
        14        13        18        39     9      180.000000        7.628301         2    ;  uncertainty k = 0.907146
        14        13        18        39     9        0.000000        1.336832         3    ;  uncertainty k = 0.359407
        14        13        18        39     9      180.000000        1.243972         4    ;  uncertainty k = 0.290146
        14        15        16        17     9        0.000000       -0.069405         1    ;  uncertainty k = 0.317444
        14        15        16        17     9      180.000000       15.480187         2    ;  uncertainty k = 0.356555
        14        15        16        17     9        0.000000       -0.213723         3    ;  uncertainty k = 0.302107
        14        15        16        17     9      180.000000        0.786315         4    ;  uncertainty k = 0.335466
        14        15        16        38     9        0.000000       -0.162996         1    ;  uncertainty k = 0.244564
        14        15        16        38     9      180.000000       11.002376         2    ;  uncertainty k = 0.216657
        14        15        16        38     9        0.000000        1.394471         3    ;  uncertainty k = 0.287042
        14        15        16        38     9      180.000000        1.583323         4    ;  uncertainty k = 0.169870
        15        14        11        35     9        0.000000        1.269472         1    ;  uncertainty k = 0.837827
        15        14        11        35     9      180.000000        2.067532         2    ;  uncertainty k = 0.608338
        15        14        11        35     9        0.000000        1.208102         3    ;  uncertainty k = 0.532703
        15        14        11        35     9      180.000000        0.096571         4    ;  uncertainty k = 0.215072
        15        14        13        18     9        0.000000       -0.706833         1    ;  uncertainty k = 0.684641
        15        14        13        18     9      180.000000        7.606582         2    ;  uncertainty k = 0.334024
        15        14        13        18     9        0.000000        0.144136         3    ;  uncertainty k = 0.309429
        15        14        13        18     9      180.000000        0.910966         4    ;  uncertainty k = 0.352736
        15        16        17        18     9        0.000000       -0.338036         1    ;  uncertainty k = 0.337143
        15        16        17        18     9      180.000000       11.066610         2    ;  uncertainty k = 0.368774
        15        16        17        18     9        0.000000       -0.486274         3    ;  uncertainty k = 0.431050
        15        16        17        18     9      180.000000        0.915685         4    ;  uncertainty k = 0.301678
        15        16        17        19     9        0.000000        0.309409         1    ;  uncertainty k = 0.338090
        15        16        17        19     9      180.000000        8.685456         2    ;  uncertainty k = 0.600813
        15        16        17        19     9        0.000000        1.302275         3    ;  uncertainty k = 0.420104
        15        16        17        19     9      180.000000        1.806136         4    ;  uncertainty k = 0.242347
        16        17        18        39     9        0.000000        0.255434         1    ;  uncertainty k = 0.332067
        16        17        18        39     9      180.000000        8.320365         2    ;  uncertainty k = 0.480036
        16        17        18        39     9        0.000000        1.477869         3    ;  uncertainty k = 0.227399
        16        17        18        39     9      180.000000        1.668731         4    ;  uncertainty k = 0.153873
        16        17        19        20     9        0.000000       -0.502648         1    ;  uncertainty k = 1.172516
        16        17        19        20     9      180.000000       -0.311487         2    ;  uncertainty k = 0.247766
        16        17        19        20     9        0.000000        0.789899         3    ;  uncertainty k = 0.241029
        16        17        19        20     9      180.000000        0.138126         4    ;  uncertainty k = 0.126498
        16        17        19        40     9        0.000000       -0.779480         1    ;  uncertainty k = 0.316160
        16        17        19        40     9      180.000000        1.643899         2    ;  uncertainty k = 0.203375
        16        17        19        40     9        0.000000        0.566007         3    ;  uncertainty k = 0.131158
        16        17        19        40     9      180.000000        0.097303         4    ;  uncertainty k = 0.092749
        16        17        19        41     9        0.000000       -0.779480         1    ;  uncertainty k = 0.316160
        16        17        19        41     9      180.000000        1.643899         2    ;  uncertainty k = 0.203375
        16        17        19        41     9        0.000000        0.566007         3    ;  uncertainty k = 0.131158
        16        17        19        41     9      180.000000        0.097303         4    ;  uncertainty k = 0.092749
        17        16        15        37     9        0.000000        0.062625         1    ;  uncertainty k = 0.188029
        17        16        15        37     9      180.000000        8.653029         2    ;  uncertainty k = 0.558389
        17        16        15        37     9        0.000000        1.424910         3    ;  uncertainty k = 0.169008
        17        16        15        37     9      180.000000        1.741614         4    ;  uncertainty k = 0.149464
        17        19        20        21     9        0.000000        0.228024         1    ;  uncertainty k = 1.306396
        17        19        20        21     9      180.000000       -0.094217         2    ;  uncertainty k = 0.261243
        17        19        20        21     9        0.000000        1.131702         3    ;  uncertainty k = 0.248749
        17        19        20        21     9      180.000000        0.011547         4    ;  uncertainty k = 0.094504
        17        19        20        25     9        0.000000        0.228024         1    ;  uncertainty k = 1.306396
        17        19        20        25     9      180.000000       -0.094217         2    ;  uncertainty k = 0.261243
        17        19        20        25     9        0.000000        1.131702         3    ;  uncertainty k = 0.248749
        17        19        20        25     9      180.000000        0.011547         4    ;  uncertainty k = 0.094504
        17        19        20        42     9        0.000000        1.154674         1    ;  uncertainty k = 1.040771
        17        19        20        42     9      180.000000       -0.124686         2    ;  uncertainty k = 0.522409
        17        19        20        42     9        0.000000        0.784931         3    ;  uncertainty k = 0.114049
        17        19        20        42     9      180.000000       -0.130874         4    ;  uncertainty k = 0.109286
        18        13        12        36     9        0.000000        0.461655         1    ;  uncertainty k = 0.985717
        18        13        12        36     9      180.000000        4.269004         2    ;  uncertainty k = 0.713269
        18        13        12        36     9        0.000000        1.295441         3    ;  uncertainty k = 0.311370
        18        13        12        36     9      180.000000        0.090060         4    ;  uncertainty k = 0.170435
        18        17        16        38     9        0.000000        0.085635         1    ;  uncertainty k = 0.380041
        18        17        16        38     9      180.000000        7.117360         2    ;  uncertainty k = 0.584951
        18        17        16        38     9        0.000000        1.371620         3    ;  uncertainty k = 0.155099
        18        17        16        38     9      180.000000        1.456083         4    ;  uncertainty k = 0.133603
        18        17        19        20     9        0.000000       -0.542129         1    ;  uncertainty k = 1.426110
        18        17        19        20     9      180.000000       -0.213649         2    ;  uncertainty k = 0.320963
        18        17        19        20     9        0.000000        0.492927         3    ;  uncertainty k = 0.186694
        18        17        19        20     9      180.000000        0.117443         4    ;  uncertainty k = 0.107545
        18        17        19        40     9        0.000000       -0.478151         1    ;  uncertainty k = 0.298124
        18        17        19        40     9      180.000000        1.736761         2    ;  uncertainty k = 0.361256
        18        17        19        40     9        0.000000        0.380981         3    ;  uncertainty k = 0.163856
        18        17        19        40     9      180.000000        0.078124         4    ;  uncertainty k = 0.111272
        18        17        19        41     9        0.000000       -0.478151         1    ;  uncertainty k = 0.298124
        18        17        19        41     9      180.000000        1.736761         2    ;  uncertainty k = 0.361256
        18        17        19        41     9        0.000000        0.380981         3    ;  uncertainty k = 0.163856
        18        17        19        41     9      180.000000        0.078124         4    ;  uncertainty k = 0.111272
        19        17        16        38     9        0.000000        0.122853         1    ;  uncertainty k = 0.462101
        19        17        16        38     9      180.000000        6.723881         2    ;  uncertainty k = 0.452487
        19        17        16        38     9        0.000000        0.764244         3    ;  uncertainty k = 0.258190
        19        17        16        38     9      180.000000        1.116906         4    ;  uncertainty k = 0.304850
        19        17        18        39     9        0.000000        0.097601         1    ;  uncertainty k = 0.277337
        19        17        18        39     9      180.000000        7.549729         2    ;  uncertainty k = 0.389850
        19        17        18        39     9        0.000000        0.959678         3    ;  uncertainty k = 0.304181
        19        17        18        39     9      180.000000        1.284138         4    ;  uncertainty k = 0.347818
        19        20        21        22     9        0.000000       -2.574566         1    ;  uncertainty k = 0.281796
        19        20        21        22     9      180.000000        0.479104         2    ;  uncertainty k = 0.475507
        19        20        21        22     9        0.000000        0.885379         3    ;  uncertainty k = 0.094303
        19        20        21        22     9      180.000000       -0.088547         4    ;  uncertainty k = 0.097600
        19        20        21        43     9        0.000000       -0.105984         1    ;  uncertainty k = 0.325338
        19        20        21        43     9      180.000000       -1.019772         2    ;  uncertainty k = 0.208597
        19        20        21        43     9        0.000000        0.825381         3    ;  uncertainty k = 0.098256
        19        20        21        43     9      180.000000       -0.051999         4    ;  uncertainty k = 0.047873
        19        20        21        44     9        0.000000       -0.105984         1    ;  uncertainty k = 0.325338
        19        20        21        44     9      180.000000       -1.019772         2    ;  uncertainty k = 0.208597
        19        20        21        44     9        0.000000        0.825381         3    ;  uncertainty k = 0.098256
        19        20        21        44     9      180.000000       -0.051999         4    ;  uncertainty k = 0.047873
        19        20        25        24     9        0.000000       -2.574566         1    ;  uncertainty k = 0.281796
        19        20        25        24     9      180.000000        0.479104         2    ;  uncertainty k = 0.475507
        19        20        25        24     9        0.000000        0.885379         3    ;  uncertainty k = 0.094303
        19        20        25        24     9      180.000000       -0.088547         4    ;  uncertainty k = 0.097600
        19        20        25        51     9        0.000000       -0.105984         1    ;  uncertainty k = 0.325338
        19        20        25        51     9      180.000000       -1.019772         2    ;  uncertainty k = 0.208597
        19        20        25        51     9        0.000000        0.825381         3    ;  uncertainty k = 0.098256
        19        20        25        51     9      180.000000       -0.051999         4    ;  uncertainty k = 0.047873
        19        20        25        52     9        0.000000       -0.105984         1    ;  uncertainty k = 0.325338
        19        20        25        52     9      180.000000       -1.019772         2    ;  uncertainty k = 0.208597
        19        20        25        52     9        0.000000        0.825381         3    ;  uncertainty k = 0.098256
        19        20        25        52     9      180.000000       -0.051999         4    ;  uncertainty k = 0.047873
        20        21        22        23     9        0.000000       -0.960043         1    ;  uncertainty k = 1.015404
        20        21        22        23     9      180.000000       -1.839615         2    ;  uncertainty k = 0.830077
        20        21        22        23     9        0.000000        1.912143         3    ;  uncertainty k = 0.244230
        20        21        22        23     9      180.000000       -0.904406         4    ;  uncertainty k = 0.229121
        20        21        22        45     9        0.000000       -0.583337         1    ;  uncertainty k = 0.759808
        20        21        22        45     9      180.000000       -1.764027         2    ;  uncertainty k = 0.462837
        20        21        22        45     9        0.000000        0.775149         3    ;  uncertainty k = 0.096083
        20        21        22        45     9      180.000000       -0.068994         4    ;  uncertainty k = 0.160962
        20        21        22        46     9        0.000000       -0.583337         1    ;  uncertainty k = 0.759808
        20        21        22        46     9      180.000000       -1.764027         2    ;  uncertainty k = 0.462837
        20        21        22        46     9        0.000000        0.775149         3    ;  uncertainty k = 0.096083
        20        21        22        46     9      180.000000       -0.068994         4    ;  uncertainty k = 0.160962
        20        25        24        23     9        0.000000       -0.960043         1    ;  uncertainty k = 1.015404
        20        25        24        23     9      180.000000       -1.839615         2    ;  uncertainty k = 0.830077
        20        25        24        23     9        0.000000        1.912143         3    ;  uncertainty k = 0.244230
        20        25        24        23     9      180.000000       -0.904406         4    ;  uncertainty k = 0.229121
        20        25        24        49     9        0.000000       -0.583337         1    ;  uncertainty k = 0.759808
        20        25        24        49     9      180.000000       -1.764027         2    ;  uncertainty k = 0.462837
        20        25        24        49     9        0.000000        0.775149         3    ;  uncertainty k = 0.096083
        20        25        24        49     9      180.000000       -0.068994         4    ;  uncertainty k = 0.160962
        20        25        24        50     9        0.000000       -0.583337         1    ;  uncertainty k = 0.759808
        20        25        24        50     9      180.000000       -1.764027         2    ;  uncertainty k = 0.462837
        20        25        24        50     9        0.000000        0.775149         3    ;  uncertainty k = 0.096083
        20        25        24        50     9      180.000000       -0.068994         4    ;  uncertainty k = 0.160962
        21        20        19        40     9        0.000000       -0.486273         1    ;  uncertainty k = 0.396482
        21        20        19        40     9      180.000000       -0.446871         2    ;  uncertainty k = 0.239801
        21        20        19        40     9        0.000000        0.889072         3    ;  uncertainty k = 0.185769
        21        20        19        40     9      180.000000       -0.057138         4    ;  uncertainty k = 0.158412
        21        20        19        41     9        0.000000       -0.486273         1    ;  uncertainty k = 0.396482
        21        20        19        41     9      180.000000       -0.446871         2    ;  uncertainty k = 0.239801
        21        20        19        41     9        0.000000        0.889072         3    ;  uncertainty k = 0.185769
        21        20        19        41     9      180.000000       -0.057138         4    ;  uncertainty k = 0.158412
        21        20        25        24     9        0.000000       -0.214545         1    ;  uncertainty k = 0.605913
        21        20        25        24     9      180.000000       -0.310706         2    ;  uncertainty k = 0.547554
        21        20        25        24     9        0.000000        0.727519         3    ;  uncertainty k = 0.267402
        21        20        25        24     9      180.000000       -0.360140         4    ;  uncertainty k = 0.313231
        21        20        25        51     9        0.000000       -0.325973         1    ;  uncertainty k = 0.679075
        21        20        25        51     9      180.000000       -0.892397         2    ;  uncertainty k = 0.294848
        21        20        25        51     9        0.000000        0.425327         3    ;  uncertainty k = 0.253460
        21        20        25        51     9      180.000000        0.013081         4    ;  uncertainty k = 0.187622
        21        20        25        52     9        0.000000       -0.325973         1    ;  uncertainty k = 0.679075
        21        20        25        52     9      180.000000       -0.892397         2    ;  uncertainty k = 0.294848
        21        20        25        52     9        0.000000        0.425327         3    ;  uncertainty k = 0.253460
        21        20        25        52     9      180.000000        0.013081         4    ;  uncertainty k = 0.187622
        21        22        23        24     9        0.000000       -7.024421         1    ;  uncertainty k = 1.282597
        21        22        23        24     9      180.000000        0.534974         2    ;  uncertainty k = 0.812259
        21        22        23        24     9        0.000000        1.706653         3    ;  uncertainty k = 0.095741
        21        22        23        24     9      180.000000       -1.004374         4    ;  uncertainty k = 0.160418
        21        22        23        47     9        0.000000       -1.564502         1    ;  uncertainty k = 0.555680
        21        22        23        47     9      180.000000       -0.696408         2    ;  uncertainty k = 0.204692
        21        22        23        47     9        0.000000        0.561736         3    ;  uncertainty k = 0.091502
        21        22        23        47     9      180.000000       -0.099846         4    ;  uncertainty k = 0.065184
        21        22        23        48     9        0.000000       -1.564502         1    ;  uncertainty k = 0.555680
        21        22        23        48     9      180.000000       -0.696408         2    ;  uncertainty k = 0.204692
        21        22        23        48     9        0.000000        0.561736         3    ;  uncertainty k = 0.091502
        21        22        23        48     9      180.000000       -0.099846         4    ;  uncertainty k = 0.065184
        22        21        20        25     9        0.000000       -0.214545         1    ;  uncertainty k = 0.605913
        22        21        20        25     9      180.000000       -0.310706         2    ;  uncertainty k = 0.547554
        22        21        20        25     9        0.000000        0.727519         3    ;  uncertainty k = 0.267402
        22        21        20        25     9      180.000000       -0.360140         4    ;  uncertainty k = 0.313231
        22        21        20        42     9        0.000000       -0.489044         1    ;  uncertainty k = 0.294494
        22        21        20        42     9      180.000000       -0.418723         2    ;  uncertainty k = 0.251138
        22        21        20        42     9        0.000000        0.374961         3    ;  uncertainty k = 0.183942
        22        21        20        42     9      180.000000       -0.122123         4    ;  uncertainty k = 0.077493
        22        23        24        25     9        0.000000       -7.024421         1    ;  uncertainty k = 1.282597
        22        23        24        25     9      180.000000        0.534974         2    ;  uncertainty k = 0.812259
        22        23        24        25     9        0.000000        1.706653         3    ;  uncertainty k = 0.095741
        22        23        24        25     9      180.000000       -1.004374         4    ;  uncertainty k = 0.160418
        22        23        24        49     9        0.000000       -1.731084         1    ;  uncertainty k = 0.118909
        22        23        24        49     9      180.000000       -0.275642         2    ;  uncertainty k = 0.205940
        22        23        24        49     9        0.000000        0.507808         3    ;  uncertainty k = 0.221376
        22        23        24        49     9      180.000000       -0.022493         4    ;  uncertainty k = 0.102359
        22        23        24        50     9        0.000000       -1.731084         1    ;  uncertainty k = 0.118909
        22        23        24        50     9      180.000000       -0.275642         2    ;  uncertainty k = 0.205940
        22        23        24        50     9        0.000000        0.507808         3    ;  uncertainty k = 0.221376
        22        23        24        50     9      180.000000       -0.022493         4    ;  uncertainty k = 0.102359
        23        22        21        43     9        0.000000       -0.255252         1    ;  uncertainty k = 0.641429
        23        22        21        43     9      180.000000       -0.702894         2    ;  uncertainty k = 0.251438
        23        22        21        43     9        0.000000        0.502590         3    ;  uncertainty k = 0.195279
        23        22        21        43     9      180.000000        0.108164         4    ;  uncertainty k = 0.079509
        23        22        21        44     9        0.000000       -0.255252         1    ;  uncertainty k = 0.641429
        23        22        21        44     9      180.000000       -0.702894         2    ;  uncertainty k = 0.251438
        23        22        21        44     9        0.000000        0.502590         3    ;  uncertainty k = 0.195279
        23        22        21        44     9      180.000000        0.108164         4    ;  uncertainty k = 0.079509
        23        24        25        51     9        0.000000       -0.255252         1    ;  uncertainty k = 0.641429
        23        24        25        51     9      180.000000       -0.702894         2    ;  uncertainty k = 0.251438
        23        24        25        51     9        0.000000        0.502590         3    ;  uncertainty k = 0.195279
        23        24        25        51     9      180.000000        0.108164         4    ;  uncertainty k = 0.079509
        23        24        25        52     9        0.000000       -0.255252         1    ;  uncertainty k = 0.641429
        23        24        25        52     9      180.000000       -0.702894         2    ;  uncertainty k = 0.251438
        23        24        25        52     9        0.000000        0.502590         3    ;  uncertainty k = 0.195279
        23        24        25        52     9      180.000000        0.108164         4    ;  uncertainty k = 0.079509
        24        23        22        45     9        0.000000       -1.731084         1    ;  uncertainty k = 0.118909
        24        23        22        45     9      180.000000       -0.275642         2    ;  uncertainty k = 0.205940
        24        23        22        45     9        0.000000        0.507808         3    ;  uncertainty k = 0.221376
        24        23        22        45     9      180.000000       -0.022493         4    ;  uncertainty k = 0.102359
        24        23        22        46     9        0.000000       -1.731084         1    ;  uncertainty k = 0.118909
        24        23        22        46     9      180.000000       -0.275642         2    ;  uncertainty k = 0.205940
        24        23        22        46     9        0.000000        0.507808         3    ;  uncertainty k = 0.221376
        24        23        22        46     9      180.000000       -0.022493         4    ;  uncertainty k = 0.102359
        24        25        20        42     9        0.000000       -0.489044         1    ;  uncertainty k = 0.294494
        24        25        20        42     9      180.000000       -0.418723         2    ;  uncertainty k = 0.251138
        24        25        20        42     9        0.000000        0.374961         3    ;  uncertainty k = 0.183942
        24        25        20        42     9      180.000000       -0.122123         4    ;  uncertainty k = 0.077493
        25        20        19        40     9        0.000000       -0.486273         1    ;  uncertainty k = 0.396482
        25        20        19        40     9      180.000000       -0.446871         2    ;  uncertainty k = 0.239801
        25        20        19        40     9        0.000000        0.889072         3    ;  uncertainty k = 0.185769
        25        20        19        40     9      180.000000       -0.057138         4    ;  uncertainty k = 0.158412
        25        20        19        41     9        0.000000       -0.486273         1    ;  uncertainty k = 0.396482
        25        20        19        41     9      180.000000       -0.446871         2    ;  uncertainty k = 0.239801
        25        20        19        41     9        0.000000        0.889072         3    ;  uncertainty k = 0.185769
        25        20        19        41     9      180.000000       -0.057138         4    ;  uncertainty k = 0.158412
        25        20        21        43     9        0.000000       -0.325973         1    ;  uncertainty k = 0.679075
        25        20        21        43     9      180.000000       -0.892397         2    ;  uncertainty k = 0.294848
        25        20        21        43     9        0.000000        0.425327         3    ;  uncertainty k = 0.253460
        25        20        21        43     9      180.000000        0.013081         4    ;  uncertainty k = 0.187622
        25        20        21        44     9        0.000000       -0.325973         1    ;  uncertainty k = 0.679075
        25        20        21        44     9      180.000000       -0.892397         2    ;  uncertainty k = 0.294848
        25        20        21        44     9        0.000000        0.425327         3    ;  uncertainty k = 0.253460
        25        20        21        44     9      180.000000        0.013081         4    ;  uncertainty k = 0.187622
        25        24        23        47     9        0.000000       -1.564502         1    ;  uncertainty k = 0.555680
        25        24        23        47     9      180.000000       -0.696408         2    ;  uncertainty k = 0.204692
        25        24        23        47     9        0.000000        0.561736         3    ;  uncertainty k = 0.091502
        25        24        23        47     9      180.000000       -0.099846         4    ;  uncertainty k = 0.065184
        25        24        23        48     9        0.000000       -1.564502         1    ;  uncertainty k = 0.555680
        25        24        23        48     9      180.000000       -0.696408         2    ;  uncertainty k = 0.204692
        25        24        23        48     9        0.000000        0.561736         3    ;  uncertainty k = 0.091502
        25        24        23        48     9      180.000000       -0.099846         4    ;  uncertainty k = 0.065184
        26         2         1        31     9        0.000000       -0.044750         1    ;  uncertainty k = 0.484744
        26         2         1        31     9      180.000000        7.737677         2    ;  uncertainty k = 0.425991
        26         2         1        31     9        0.000000        0.795977         3    ;  uncertainty k = 0.288558
        26         2         1        31     9      180.000000        1.099484         4    ;  uncertainty k = 0.253545
        26         2         3        32     9        0.000000       -0.122650         1    ;  uncertainty k = 0.578072
        26         2         3        32     9      180.000000        8.786459         2    ;  uncertainty k = 0.483913
        26         2         3        32     9        0.000000        0.844202         3    ;  uncertainty k = 0.319754
        26         2         3        32     9      180.000000        1.118470         4    ;  uncertainty k = 0.158923
        26        27        28        29     9        0.000000       -0.035621         1    ;  uncertainty k = 0.606918
        26        27        28        29     9      180.000000       24.323085         2    ;  uncertainty k = 0.404029
        26        27        28        29     9        0.000000       -9.892041         3    ;  uncertainty k = 1.501361
        26        27        28        29     9      180.000000        2.413694         4    ;  uncertainty k = 0.701292
        26        27        28        53     9        0.000000        0.200851         1    ;  uncertainty k = 0.854381
        26        27        28        53     9      180.000000       21.870389         2    ;  uncertainty k = 0.337452
        26        27        28        53     9        0.000000        1.456753         3    ;  uncertainty k = 0.343839
        26        27        28        53     9      180.000000        1.192159         4    ;  uncertainty k = 0.549537
        26        30        29        28     9        0.000000       -0.035621         1    ;  uncertainty k = 0.606918
        26        30        29        28     9      180.000000       24.323085         2    ;  uncertainty k = 0.404029
        26        30        29        28     9        0.000000       -9.892041         3    ;  uncertainty k = 1.501361
        26        30        29        28     9      180.000000        2.413694         4    ;  uncertainty k = 0.701292
        26        30        29        54     9        0.000000        0.200851         1    ;  uncertainty k = 0.854381
        26        30        29        54     9      180.000000       21.870389         2    ;  uncertainty k = 0.337452
        26        30        29        54     9        0.000000        1.456753         3    ;  uncertainty k = 0.343839
        26        30        29        54     9      180.000000        1.192159         4    ;  uncertainty k = 0.549537
        27        26        30        29     9        0.000000       -0.748848         1    ;  uncertainty k = 0.681570
        27        26        30        29     9      180.000000       21.589707         2    ;  uncertainty k = 0.152649
        27        26        30        29     9        0.000000       -7.816861         3    ;  uncertainty k = 1.050051
        27        26        30        29     9      180.000000        1.349991         4    ;  uncertainty k = 0.617137
        27        28        29        30     9        0.000000       -0.522816         1    ;  uncertainty k = 0.789312
        27        28        29        30     9      180.000000       16.707756         2    ;  uncertainty k = 1.317053
        27        28        29        30     9        0.000000      -12.064001         3    ;  uncertainty k = 1.659211
        27        28        29        30     9      180.000000        2.016009         4    ;  uncertainty k = 0.729050
        27        28        29        54     9        0.000000        0.154239         1    ;  uncertainty k = 1.036357
        27        28        29        54     9      180.000000       11.834523         2    ;  uncertainty k = 0.569251
        27        28        29        54     9        0.000000        0.931737         3    ;  uncertainty k = 0.740039
        27        28        29        54     9      180.000000        0.633867         4    ;  uncertainty k = 0.172620
        28        27        26        30     9        0.000000       -0.748848         1    ;  uncertainty k = 0.681570
        28        27        26        30     9      180.000000       21.589707         2    ;  uncertainty k = 0.152649
        28        27        26        30     9        0.000000       -7.816861         3    ;  uncertainty k = 1.050051
        28        27        26        30     9      180.000000        1.349991         4    ;  uncertainty k = 0.617137
        30        29        28        53     9        0.000000        0.154239         1    ;  uncertainty k = 1.036357
        30        29        28        53     9      180.000000       11.834523         2    ;  uncertainty k = 0.569251
        30        29        28        53     9        0.000000        0.931737         3    ;  uncertainty k = 0.740039
        30        29        28        53     9      180.000000        0.633867         4    ;  uncertainty k = 0.172620
        31         1         4        33     9        0.000000       -0.061557         1    ;  uncertainty k = 0.293553
        31         1         4        33     9      180.000000        8.293623         2    ;  uncertainty k = 0.406086
        31         1         4        33     9        0.000000       -0.156691         3    ;  uncertainty k = 0.297841
        31         1         4        33     9      180.000000        0.341366         4    ;  uncertainty k = 0.259560
        37        15        16        38     9        0.000000       -0.013045         1    ;  uncertainty k = 0.178040
        37        15        16        38     9      180.000000        7.749499         2    ;  uncertainty k = 0.110935
        37        15        16        38     9        0.000000       -0.170352         3    ;  uncertainty k = 0.227080
        37        15        16        38     9      180.000000        0.302639         4    ;  uncertainty k = 0.156541
        40        19        20        42     9        0.000000        0.633594         1    ;  uncertainty k = 0.761392
        40        19        20        42     9      180.000000       -0.469721         2    ;  uncertainty k = 0.224849
        40        19        20        42     9        0.000000        0.121846         3    ;  uncertainty k = 0.102010
        40        19        20        42     9      180.000000       -0.010722         4    ;  uncertainty k = 0.068107
        41        19        20        42     9        0.000000        0.633594         1    ;  uncertainty k = 0.761392
        41        19        20        42     9      180.000000       -0.469721         2    ;  uncertainty k = 0.224849
        41        19        20        42     9        0.000000        0.121846         3    ;  uncertainty k = 0.102010
        41        19        20        42     9      180.000000       -0.010722         4    ;  uncertainty k = 0.068107
        42        20        21        43     9        0.000000        0.505820         1    ;  uncertainty k = 0.508179
        42        20        21        43     9      180.000000       -0.445261         2    ;  uncertainty k = 0.343433
        42        20        21        43     9        0.000000        0.063530         3    ;  uncertainty k = 0.166996
        42        20        21        43     9      180.000000        0.024300         4    ;  uncertainty k = 0.084356
        42        20        21        44     9        0.000000        0.505820         1    ;  uncertainty k = 0.508179
        42        20        21        44     9      180.000000       -0.445261         2    ;  uncertainty k = 0.343433
        42        20        21        44     9        0.000000        0.063530         3    ;  uncertainty k = 0.166996
        42        20        21        44     9      180.000000        0.024300         4    ;  uncertainty k = 0.084356
        42        20        25        51     9        0.000000        0.505820         1    ;  uncertainty k = 0.508179
        42        20        25        51     9      180.000000       -0.445261         2    ;  uncertainty k = 0.343433
        42        20        25        51     9        0.000000        0.063530         3    ;  uncertainty k = 0.166996
        42        20        25        51     9      180.000000        0.024300         4    ;  uncertainty k = 0.084356
        42        20        25        52     9        0.000000        0.505820         1    ;  uncertainty k = 0.508179
        42        20        25        52     9      180.000000       -0.445261         2    ;  uncertainty k = 0.343433
        42        20        25        52     9        0.000000        0.063530         3    ;  uncertainty k = 0.166996
        42        20        25        52     9      180.000000        0.024300         4    ;  uncertainty k = 0.084356
        43        21        22        45     9        0.000000        0.353241         1    ;  uncertainty k = 0.247073
        43        21        22        45     9      180.000000        0.356302         2    ;  uncertainty k = 0.088459
        43        21        22        45     9        0.000000        0.281586         3    ;  uncertainty k = 0.082622
        43        21        22        45     9      180.000000       -0.046333         4    ;  uncertainty k = 0.052441
        43        21        22        46     9        0.000000        0.353241         1    ;  uncertainty k = 0.247073
        43        21        22        46     9      180.000000        0.356302         2    ;  uncertainty k = 0.088459
        43        21        22        46     9        0.000000        0.281586         3    ;  uncertainty k = 0.082622
        43        21        22        46     9      180.000000       -0.046333         4    ;  uncertainty k = 0.052441
        44        21        22        45     9        0.000000        0.353241         1    ;  uncertainty k = 0.247073
        44        21        22        45     9      180.000000        0.356302         2    ;  uncertainty k = 0.088459
        44        21        22        45     9        0.000000        0.281586         3    ;  uncertainty k = 0.082622
        44        21        22        45     9      180.000000       -0.046333         4    ;  uncertainty k = 0.052441
        44        21        22        46     9        0.000000        0.353241         1    ;  uncertainty k = 0.247073
        44        21        22        46     9      180.000000        0.356302         2    ;  uncertainty k = 0.088459
        44        21        22        46     9        0.000000        0.281586         3    ;  uncertainty k = 0.082622
        44        21        22        46     9      180.000000       -0.046333         4    ;  uncertainty k = 0.052441
        45        22        23        47     9        0.000000        2.065466         1    ;  uncertainty k = 0.581086
        45        22        23        47     9      180.000000        0.128238         2    ;  uncertainty k = 0.153427
        45        22        23        47     9        0.000000        0.323705         3    ;  uncertainty k = 0.122348
        45        22        23        47     9      180.000000        0.126782         4    ;  uncertainty k = 0.032762
        45        22        23        48     9        0.000000        2.065466         1    ;  uncertainty k = 0.581086
        45        22        23        48     9      180.000000        0.128238         2    ;  uncertainty k = 0.153427
        45        22        23        48     9        0.000000        0.323705         3    ;  uncertainty k = 0.122348
        45        22        23        48     9      180.000000        0.126782         4    ;  uncertainty k = 0.032762
        46        22        23        47     9        0.000000        2.065466         1    ;  uncertainty k = 0.581086
        46        22        23        47     9      180.000000        0.128238         2    ;  uncertainty k = 0.153427
        46        22        23        47     9        0.000000        0.323705         3    ;  uncertainty k = 0.122348
        46        22        23        47     9      180.000000        0.126782         4    ;  uncertainty k = 0.032762
        46        22        23        48     9        0.000000        2.065466         1    ;  uncertainty k = 0.581086
        46        22        23        48     9      180.000000        0.128238         2    ;  uncertainty k = 0.153427
        46        22        23        48     9        0.000000        0.323705         3    ;  uncertainty k = 0.122348
        46        22        23        48     9      180.000000        0.126782         4    ;  uncertainty k = 0.032762
        47        23        24        49     9        0.000000        2.065466         1    ;  uncertainty k = 0.581086
        47        23        24        49     9      180.000000        0.128238         2    ;  uncertainty k = 0.153427
        47        23        24        49     9        0.000000        0.323705         3    ;  uncertainty k = 0.122348
        47        23        24        49     9      180.000000        0.126782         4    ;  uncertainty k = 0.032762
        47        23        24        50     9        0.000000        2.065466         1    ;  uncertainty k = 0.581086
        47        23        24        50     9      180.000000        0.128238         2    ;  uncertainty k = 0.153427
        47        23        24        50     9        0.000000        0.323705         3    ;  uncertainty k = 0.122348
        47        23        24        50     9      180.000000        0.126782         4    ;  uncertainty k = 0.032762
        48        23        24        49     9        0.000000        2.065466         1    ;  uncertainty k = 0.581086
        48        23        24        49     9      180.000000        0.128238         2    ;  uncertainty k = 0.153427
        48        23        24        49     9        0.000000        0.323705         3    ;  uncertainty k = 0.122348
        48        23        24        49     9      180.000000        0.126782         4    ;  uncertainty k = 0.032762
        48        23        24        50     9        0.000000        2.065466         1    ;  uncertainty k = 0.581086
        48        23        24        50     9      180.000000        0.128238         2    ;  uncertainty k = 0.153427
        48        23        24        50     9        0.000000        0.323705         3    ;  uncertainty k = 0.122348
        48        23        24        50     9      180.000000        0.126782         4    ;  uncertainty k = 0.032762
        49        24        25        51     9        0.000000        0.353241         1    ;  uncertainty k = 0.247073
        49        24        25        51     9      180.000000        0.356302         2    ;  uncertainty k = 0.088459
        49        24        25        51     9        0.000000        0.281586         3    ;  uncertainty k = 0.082622
        49        24        25        51     9      180.000000       -0.046333         4    ;  uncertainty k = 0.052441
        49        24        25        52     9        0.000000        0.353241         1    ;  uncertainty k = 0.247073
        49        24        25        52     9      180.000000        0.356302         2    ;  uncertainty k = 0.088459
        49        24        25        52     9        0.000000        0.281586         3    ;  uncertainty k = 0.082622
        49        24        25        52     9      180.000000       -0.046333         4    ;  uncertainty k = 0.052441
        50        24        25        51     9        0.000000        0.353241         1    ;  uncertainty k = 0.247073
        50        24        25        51     9      180.000000        0.356302         2    ;  uncertainty k = 0.088459
        50        24        25        51     9        0.000000        0.281586         3    ;  uncertainty k = 0.082622
        50        24        25        51     9      180.000000       -0.046333         4    ;  uncertainty k = 0.052441
        50        24        25        52     9        0.000000        0.353241         1    ;  uncertainty k = 0.247073
        50        24        25        52     9      180.000000        0.356302         2    ;  uncertainty k = 0.088459
        50        24        25        52     9        0.000000        0.281586         3    ;  uncertainty k = 0.082622
        50        24        25        52     9      180.000000       -0.046333         4    ;  uncertainty k = 0.052441
        53        28        29        54     9        0.000000       -0.942648         1    ;  uncertainty k = 1.117582
        53        28        29        54     9      180.000000        4.272735         2    ;  uncertainty k = 0.760818
        53        28        29        54     9        0.000000        1.314863         3    ;  uncertainty k = 0.353594
        53        28        29        54     9      180.000000        0.150448         4    ;  uncertainty k = 0.159865

[ dihedrals ] ; impropers
;       ai        aj        ak        al funct           phase               k        pn
         1         2         4        31     4      180.000000        2.942627         2    ;  uncertainty k = 0.234247
         1         4        31         2     4      180.000000        2.942627         2    ;  uncertainty k = 0.234247
         1        31         2         4     4      180.000000        2.942627         2    ;  uncertainty k = 0.234247
         2         1         3        26     4      180.000000       11.998813         2    ;  uncertainty k = 0.085998
         2         3        26         1     4      180.000000       11.998813         2    ;  uncertainty k = 0.085998
         2        26         1         3     4      180.000000       11.998813         2    ;  uncertainty k = 0.085998
         3         2         6        32     4      180.000000        2.568385         2    ;  uncertainty k = 0.449206
         3         6        32         2     4      180.000000        2.568385         2    ;  uncertainty k = 0.449206
         3        32         2         6     4      180.000000        2.568385         2    ;  uncertainty k = 0.449206
         4         1         5        33     4      180.000000        5.236860         2    ;  uncertainty k = 0.137554
         4         5        33         1     4      180.000000        5.236860         2    ;  uncertainty k = 0.137554
         4        33         1         5     4      180.000000        5.236860         2    ;  uncertainty k = 0.137554
         6         3         5         7     4      180.000000        1.599308         2    ;  uncertainty k = 0.982952
         6         5         7         3     4      180.000000        1.599308         2    ;  uncertainty k = 0.982952
         6         7         3         5     4      180.000000        1.599308         2    ;  uncertainty k = 0.982952
         9         5         8        10     4      180.000000        7.218664         2    ;  uncertainty k = 0.222083
         9         8        10         5     4      180.000000        7.218664         2    ;  uncertainty k = 0.222083
         9        10         5         8     4      180.000000        7.218664         2    ;  uncertainty k = 0.222083
        10         9        11        12     4      180.000000        6.131355         2    ;  uncertainty k = 0.374886
        10        11        12         9     4      180.000000        6.131355         2    ;  uncertainty k = 0.374886
        10        12         9        11     4      180.000000        6.131355         2    ;  uncertainty k = 0.374886
        12        10        13        36     4      180.000000        0.300082         2    ;  uncertainty k = 0.671004
        12        13        36        10     4      180.000000        0.300082         2    ;  uncertainty k = 0.671004
        12        36        10        13     4      180.000000        0.300082         2    ;  uncertainty k = 0.671004
        13        12        14        18     4      180.000000        0.203680         2    ;  uncertainty k = 0.447823
        13        14        18        12     4      180.000000        0.203680         2    ;  uncertainty k = 0.447823
        13        18        12        14     4      180.000000        0.203680         2    ;  uncertainty k = 0.447823
        14        11        13        15     4      180.000000        1.547994         2    ;  uncertainty k = 0.529255
        14        13        15        11     4      180.000000        1.547994         2    ;  uncertainty k = 0.529255
        14        15        11        13     4      180.000000        1.547994         2    ;  uncertainty k = 0.529255
        15        14        16        37     4      180.000000        3.328892         2    ;  uncertainty k = 0.304190
        15        16        37        14     4      180.000000        3.328892         2    ;  uncertainty k = 0.304190
        15        37        14        16     4      180.000000        3.328892         2    ;  uncertainty k = 0.304190
        16        15        17        38     4      180.000000        3.703974         2    ;  uncertainty k = 0.231890
        16        17        38        15     4      180.000000        3.703974         2    ;  uncertainty k = 0.231890
        16        38        15        17     4      180.000000        3.703974         2    ;  uncertainty k = 0.231890
        17        16        18        19     4      180.000000        8.046870         2    ;  uncertainty k = 0.338239
        17        18        19        16     4      180.000000        8.046870         2    ;  uncertainty k = 0.338239
        17        19        16        18     4      180.000000        8.046870         2    ;  uncertainty k = 0.338239
        18        13        17        39     4      180.000000        4.453195         2    ;  uncertainty k = 0.297877
        18        17        39        13     4      180.000000        4.453195         2    ;  uncertainty k = 0.297877
        18        39        13        17     4      180.000000        4.453195         2    ;  uncertainty k = 0.297877
        26         2        27        30     4      180.000000        0.046716         2    ;  uncertainty k = 0.104461
        26        27        30         2     4      180.000000        0.046716         2    ;  uncertainty k = 0.104461
        26        30         2        27     4      180.000000        0.046716         2    ;  uncertainty k = 0.104461
        28        27        29        53     4      180.000000        0.650362         2    ;  uncertainty k = 0.696143
        28        29        53        27     4      180.000000        0.650362         2    ;  uncertainty k = 0.696143
        28        53        27        29     4      180.000000        0.650362         2    ;  uncertainty k = 0.696143
        29        28        30        54     4      180.000000        0.650362         2    ;  uncertainty k = 0.696143
        29        30        54        28     4      180.000000        0.650362         2    ;  uncertainty k = 0.696143
        29        54        28        30     4      180.000000        0.650362         2    ;  uncertainty k = 0.696143

[ pairs ]
;       ai        aj funct
         1         6     1
         1         9     1
         1        27     1
         1        30     1
         1        32     1
         2         5     1
         2         7     1
         2        28     1
         2        29     1
         2        33     1
         3         4     1
         3         8     1
         3         9     1
         3        27     1
         3        30     1
         3        31     1
         3        34     1
         4         7     1
         4         8     1
         4        10     1
         4        26     1
         5        11     1
         5        12     1
         5        31     1
         5        32     1
         5        34     1
         6        10     1
         6        26     1
         6        33     1
         7        10     1
         7        32     1
         8        11     1
         8        12     1
         9        13     1
         9        14     1
         9        33     1
         9        34     1
         9        35     1
         9        36     1
        10        15     1
        10        18     1
        11        16     1
        11        18     1
        11        36     1
        11        37     1
        12        15     1
        12        17     1
        12        35     1
        12        39     1
        13        16     1
        13        19     1
        13        35     1
        13        37     1
        14        17     1
        14        36     1
        14        38     1
        14        39     1
        15        18     1
        15        19     1
        15        35     1
        16        20     1
        16        39     1
        16        40     1
        16        41     1
        17        21     1
        17        25     1
        17        37     1
        17        42     1
        18        20     1
        18        36     1
        18        38     1
        18        40     1
        18        41     1
        19        22     1
        19        24     1
        19        38     1
        19        39     1
        19        43     1
        19        44     1
        19        51     1
        19        52     1
        20        23     1
        20        45     1
        20        46     1
        20        49     1
        20        50     1
        21        24     1
        21        40     1
        21        41     1
        21        47     1
        21        48     1
        21        51     1
        21        52     1
        22        25     1
        22        42     1
        22        49     1
        22        50     1
        23        43     1
        23        44     1
        23        51     1
        23        52     1
        24        42     1
        24        45     1
        24        46     1
        25        40     1
        25        41     1
        25        43     1
        25        44     1
        25        47     1
        25        48     1
        26        31     1
        26        32     1
        26        53     1
        26        54     1
        27        54     1
        30        53     1
        31        33     1
        37        38     1
        40        42     1
        41        42     1
        42        43     1
        42        44     1
        42        51     1
        42        52     1
        43        45     1
        43        46     1
        44        45     1
        44        46     1
        45        47     1
        45        48     1
        46        47     1
        46        48     1
        47        49     1
        47        50     1
        48        49     1
        48        50     1
        49        51     1
        49        52     1
        50        51     1
        50        52     1
        53        54     1
