; ITP file created by ByteFF-joint-25, 2025-07-14 11:38:29.220715

[ atomtypes ]
;name           bonded.type        at.num        mass        charge   ptype           sigma         epsilon
 c0bf                                   6      0.0000       0.00000       A     3.31519e-01     4.13403e-01    ;  uncertainty sigma = 0.000006, epsilon = 0.000630
 c1bf                                   6      0.0000       0.00000       A     3.31512e-01     4.13049e-01    ;  uncertainty sigma = 0.000007, epsilon = 0.000504
 c2bf                                   6      0.0000       0.00000       A     3.31512e-01     4.13252e-01    ;  uncertainty sigma = 0.000005, epsilon = 0.000828
 c3bf                                   6      0.0000       0.00000       A     3.31524e-01     4.13286e-01    ;  uncertainty sigma = 0.000008, epsilon = 0.000786
 c4bf                                   6      0.0000       0.00000       A     3.31521e-01     4.13336e-01    ;  uncertainty sigma = 0.000007, epsilon = 0.000639
 c5bf                                   6      0.0000       0.00000       A     3.31514e-01     4.12848e-01    ;  uncertainty sigma = 0.000013, epsilon = 0.001071
 n6bf                                   7      0.0000       0.00000       A     3.20633e-01     8.54017e-01    ;  uncertainty sigma = 0.000014, epsilon = 0.001832
 n7bf                                   7      0.0000       0.00000       A     3.38429e-01     3.93681e-01    ;  uncertainty sigma = 0.000012, epsilon = 0.000578
 c8bf                                   6      0.0000       0.00000       A     3.31525e-01     4.13030e-01    ;  uncertainty sigma = 0.000010, epsilon = 0.000939
 c9bf                                   6      0.0000       0.00000       A     3.31487e-01     4.13616e-01    ;  uncertainty sigma = 0.000020, epsilon = 0.001109
 n10bf                                  7      0.0000       0.00000       A     3.20612e-01     8.51418e-01    ;  uncertainty sigma = 0.000030, epsilon = 0.001559
 c11bf                                  6      0.0000       0.00000       A     3.31545e-01     4.13175e-01    ;  uncertainty sigma = 0.000004, epsilon = 0.000228
 c12bf                                  6      0.0000       0.00000       A     3.31513e-01     4.13679e-01    ;  uncertainty sigma = 0.000008, epsilon = 0.001038
 c13bf                                  6      0.0000       0.00000       A     3.31539e-01     4.13372e-01    ;  uncertainty sigma = 0.000002, epsilon = 0.000832
 c14bf                                  6      0.0000       0.00000       A     3.31510e-01     4.13227e-01    ;  uncertainty sigma = 0.000003, epsilon = 0.000744
 c15bf                                  6      0.0000       0.00000       A     3.31530e-01     4.13453e-01    ;  uncertainty sigma = 0.000012, epsilon = 0.000423
 c16bf                                  6      0.0000       0.00000       A     3.31639e-01     4.14074e-01    ;  uncertainty sigma = 0.000029, epsilon = 0.001725
 c17bf                                  6      0.0000       0.00000       A     3.31542e-01     4.13583e-01    ;  uncertainty sigma = 0.000009, epsilon = 0.000998
 c18bf                                  6      0.0000       0.00000       A     3.39773e-01     4.50389e-01    ;  uncertainty sigma = 0.000036, epsilon = 0.001493
 n19bf                                  7      0.0000       0.00000       A     2.58825e-01     1.06536e+01    ;  uncertainty sigma = 0.000048, epsilon = 0.001081
 c20bf                                  6      0.0000       0.00000       A     3.39751e-01     4.50843e-01    ;  uncertainty sigma = 0.000004, epsilon = 0.001025
 c21bf                                  6      0.0000       0.00000       A     3.39769e-01     4.50680e-01    ;  uncertainty sigma = 0.000010, epsilon = 0.000994
 c22bf                                  6      0.0000       0.00000       A     3.39785e-01     4.50582e-01    ;  uncertainty sigma = 0.000006, epsilon = 0.000924
 c23bf                                  6      0.0000       0.00000       A     3.39769e-01     4.50680e-01    ;  uncertainty sigma = 0.000010, epsilon = 0.000994
 c24bf                                  6      0.0000       0.00000       A     3.39751e-01     4.50843e-01    ;  uncertainty sigma = 0.000004, epsilon = 0.001025
 c25bf                                  6      0.0000       0.00000       A     3.31512e-01     4.13217e-01    ;  uncertainty sigma = 0.000009, epsilon = 0.000501
 h26bf                                  1      0.0000       0.00000       A     2.60047e-01     8.69055e-02    ;  uncertainty sigma = 0.000002, epsilon = 0.000829
 c27bf                                  6      0.0000       0.00000       A     3.31515e-01     4.13258e-01    ;  uncertainty sigma = 0.000005, epsilon = 0.000632
 c28bf                                  6      0.0000       0.00000       A     3.31520e-01     4.13375e-01    ;  uncertainty sigma = 0.000002, epsilon = 0.000634
 c29bf                                  6      0.0000       0.00000       A     3.31518e-01     4.13340e-01    ;  uncertainty sigma = 0.000003, epsilon = 0.000580
 c30bf                                  6      0.0000       0.00000       A     3.31520e-01     4.13375e-01    ;  uncertainty sigma = 0.000002, epsilon = 0.000634
 c31bf                                  6      0.0000       0.00000       A     3.31515e-01     4.13258e-01    ;  uncertainty sigma = 0.000005, epsilon = 0.000632
 h32bf                                  1      0.0000       0.00000       A     2.62564e-01     6.70720e-02    ;  uncertainty sigma = 0.000011, epsilon = 0.000541
 h33bf                                  1      0.0000       0.00000       A     2.62583e-01     6.72256e-02    ;  uncertainty sigma = 0.000010, epsilon = 0.000425
 h34bf                                  1      0.0000       0.00000       A     2.62560e-01     6.68871e-02    ;  uncertainty sigma = 0.000013, epsilon = 0.000432
 h35bf                                  1      0.0000       0.00000       A     1.10655e-01     4.14032e-02    ;  uncertainty sigma = 0.000071, epsilon = 0.000793
 h36bf                                  1      0.0000       0.00000       A     1.10661e-01     4.09777e-02    ;  uncertainty sigma = 0.000073, epsilon = 0.000702
 h37bf                                  1      0.0000       0.00000       A     2.62548e-01     6.71074e-02    ;  uncertainty sigma = 0.000030, epsilon = 0.000235
 h38bf                                  1      0.0000       0.00000       A     2.62571e-01     6.70381e-02    ;  uncertainty sigma = 0.000008, epsilon = 0.000473
 h39bf                                  1      0.0000       0.00000       A     2.62577e-01     6.71749e-02    ;  uncertainty sigma = 0.000013, epsilon = 0.000695
 h40bf                                  1      0.0000       0.00000       A     2.62608e-01     6.70651e-02    ;  uncertainty sigma = 0.000010, epsilon = 0.000435
 h41bf                                  1      0.0000       0.00000       A     1.88839e-01     8.73239e-02    ;  uncertainty sigma = 0.000129, epsilon = 0.001577
 h42bf                                  1      0.0000       0.00000       A     1.88839e-01     8.73239e-02    ;  uncertainty sigma = 0.000129, epsilon = 0.001577
 h43bf                                  1      0.0000       0.00000       A     1.10649e-01     4.11876e-02    ;  uncertainty sigma = 0.000180, epsilon = 0.001021
 h44bf                                  1      0.0000       0.00000       A     1.88764e-01     8.66398e-02    ;  uncertainty sigma = 0.000088, epsilon = 0.000806
 h45bf                                  1      0.0000       0.00000       A     1.88764e-01     8.66398e-02    ;  uncertainty sigma = 0.000088, epsilon = 0.000806
 h46bf                                  1      0.0000       0.00000       A     2.60030e-01     8.66906e-02    ;  uncertainty sigma = 0.000008, epsilon = 0.000905
 h47bf                                  1      0.0000       0.00000       A     2.60030e-01     8.66906e-02    ;  uncertainty sigma = 0.000008, epsilon = 0.000905
 h48bf                                  1      0.0000       0.00000       A     2.60047e-01     8.69055e-02    ;  uncertainty sigma = 0.000002, epsilon = 0.000829
 h49bf                                  1      0.0000       0.00000       A     2.60030e-01     8.66906e-02    ;  uncertainty sigma = 0.000008, epsilon = 0.000905
 h50bf                                  1      0.0000       0.00000       A     2.60030e-01     8.66906e-02    ;  uncertainty sigma = 0.000008, epsilon = 0.000905
 h51bf                                  1      0.0000       0.00000       A     1.88764e-01     8.66398e-02    ;  uncertainty sigma = 0.000088, epsilon = 0.000806
 h52bf                                  1      0.0000       0.00000       A     1.88764e-01     8.66398e-02    ;  uncertainty sigma = 0.000088, epsilon = 0.000806
 h53bf                                  1      0.0000       0.00000       A     2.62562e-01     6.70411e-02    ;  uncertainty sigma = 0.000012, epsilon = 0.000506
 h54bf                                  1      0.0000       0.00000       A     2.62559e-01     6.70250e-02    ;  uncertainty sigma = 0.000010, epsilon = 0.000440
 h55bf                                  1      0.0000       0.00000       A     2.62552e-01     6.70645e-02    ;  uncertainty sigma = 0.000011, epsilon = 0.000453
 h56bf                                  1      0.0000       0.00000       A     2.62559e-01     6.70249e-02    ;  uncertainty sigma = 0.000010, epsilon = 0.000440
 h57bf                                  1      0.0000       0.00000       A     2.62562e-01     6.70409e-02    ;  uncertainty sigma = 0.000012, epsilon = 0.000507

[ moleculetype ]
;name             nrexcl
 MOL                   3

[ atoms ]
;       nr            type      resi   res      atom      cgnr      charge          mass ; qtot
         1            c0bf         1   UNL        c0         1    -0.15385       12.0110 ; qtot   -0.154
         2            c1bf         1   UNL        c1         2     0.00076       12.0110 ; qtot   -0.153
         3            c2bf         1   UNL        c2         3    -0.14274       12.0110 ; qtot   -0.296
         4            c3bf         1   UNL        c3         4    -0.05432       12.0110 ; qtot   -0.350
         5            c4bf         1   UNL        c4         5    -0.21134       12.0110 ; qtot   -0.561
         6            c5bf         1   UNL        c5         6    -0.02366       12.0110 ; qtot   -0.585
         7            n6bf         1   UNL        n6         7    -0.02491       14.0070 ; qtot   -0.610
         8            n7bf         1   UNL        n7         8    -0.50901       14.0070 ; qtot   -1.119
         9            c8bf         1   UNL        c8         9     0.42422       12.0110 ; qtot   -0.695
        10            c9bf         1   UNL        c9        10    -0.09297       12.0110 ; qtot   -0.788
        11           n10bf         1   UNL       n10        11    -0.17863       14.0070 ; qtot   -0.966
        12           c11bf         1   UNL       c11        12    -0.14624       12.0110 ; qtot   -1.113
        13           c12bf         1   UNL       c12        13    -0.09138       12.0110 ; qtot   -1.204
        14           c13bf         1   UNL       c13        14    -0.01122       12.0110 ; qtot   -1.215
        15           c14bf         1   UNL       c14        15    -0.11583       12.0110 ; qtot   -1.331
        16           c15bf         1   UNL       c15        16    -0.09384       12.0110 ; qtot   -1.425
        17           c16bf         1   UNL       c16        17    -0.21383       12.0110 ; qtot   -1.639
        18           c17bf         1   UNL       c17        18    -0.02211       12.0110 ; qtot   -1.661
        19           c18bf         1   UNL       c18        19     0.21948       12.0110 ; qtot   -1.441
        20           n19bf         1   UNL       n19        20    -0.72723       14.0070 ; qtot   -2.169
        21           c20bf         1   UNL       c20        21     0.13697       12.0110 ; qtot   -2.032
        22           c21bf         1   UNL       c21        22    -0.10564       12.0110 ; qtot   -2.137
        23           c22bf         1   UNL       c22        23    -0.08930       12.0110 ; qtot   -2.227
        24           c23bf         1   UNL       c23        24    -0.10564       12.0110 ; qtot   -2.332
        25           c24bf         1   UNL       c24        25     0.13697       12.0110 ; qtot   -2.195
        26           c25bf         1   UNL       c25        26    -0.04201       12.0110 ; qtot   -2.237
        27           h26bf         1   UNL       h26        27     0.07955        1.0080 ; qtot   -2.158
        28           c27bf         1   UNL       c27        28    -0.12003       12.0110 ; qtot   -2.278
        29           c28bf         1   UNL       c28        29    -0.13207       12.0110 ; qtot   -2.410
        30           c29bf         1   UNL       c29        30    -0.12215       12.0110 ; qtot   -2.532
        31           c30bf         1   UNL       c30        31    -0.13207       12.0110 ; qtot   -2.664
        32           c31bf         1   UNL       c31        32    -0.12003       12.0110 ; qtot   -2.784
        33           h32bf         1   UNL       h32        33     0.13640        1.0080 ; qtot   -2.648
        34           h33bf         1   UNL       h33        34     0.14190        1.0080 ; qtot   -2.506
        35           h34bf         1   UNL       h34        35     0.14866        1.0080 ; qtot   -2.357
        36           h35bf         1   UNL       h35        36     0.32966        1.0080 ; qtot   -2.027
        37           h36bf         1   UNL       h36        37     0.30972        1.0080 ; qtot   -1.718
        38           h37bf         1   UNL       h37        38     0.16185        1.0080 ; qtot   -1.556
        39           h38bf         1   UNL       h38        39     0.14571        1.0080 ; qtot   -1.410
        40           h39bf         1   UNL       h39        40     0.14052        1.0080 ; qtot   -1.270
        41           h40bf         1   UNL       h40        41     0.14264        1.0080 ; qtot   -1.127
        42           h41bf         1   UNL       h41        42     0.09817        1.0080 ; qtot   -1.029
        43           h42bf         1   UNL       h42        43     0.09817        1.0080 ; qtot   -0.931
        44           h43bf         1   UNL       h43        44     0.44618        1.0080 ; qtot   -0.485
        45           h44bf         1   UNL       h44        45     0.09706        1.0080 ; qtot   -0.387
        46           h45bf         1   UNL       h45        46     0.09706        1.0080 ; qtot   -0.290
        47           h46bf         1   UNL       h46        47     0.08728        1.0080 ; qtot   -0.203
        48           h47bf         1   UNL       h47        48     0.08728        1.0080 ; qtot   -0.116
        49           h48bf         1   UNL       h48        49     0.07955        1.0080 ; qtot   -0.036
        50           h49bf         1   UNL       h49        50     0.08728        1.0080 ; qtot    0.051
        51           h50bf         1   UNL       h50        51     0.08728        1.0080 ; qtot    0.138
        52           h51bf         1   UNL       h51        52     0.09706        1.0080 ; qtot    0.235
        53           h52bf         1   UNL       h52        53     0.09706        1.0080 ; qtot    0.332
        54           h53bf         1   UNL       h53        54     0.13386        1.0080 ; qtot    0.466
        55           h54bf         1   UNL       h54        55     0.13308        1.0080 ; qtot    0.599
        56           h55bf         1   UNL       h55        56     0.13373        1.0080 ; qtot    0.733
        57           h56bf         1   UNL       h56        57     0.13308        1.0080 ; qtot    0.866
        58           h57bf         1   UNL       h57        58     0.13386        1.0080 ; qtot    1.000

[ bonds ]
;       ai        aj funct               r               k
         1         2     1        0.142286   328588.080371    ;  uncertainty r = 0.000089, k = 4.488574
         1         4     1        0.138578   363197.069092    ;  uncertainty r = 0.000056, k = 2.875228
         1        33     1        0.108799   335870.242480    ;  uncertainty r = 0.000025, k = 1.665909
         2         3     1        0.139164   351826.109326    ;  uncertainty r = 0.000040, k = 4.421638
         2        26     1        0.148157   275332.073145    ;  uncertainty r = 0.000056, k = 2.310502
         3         6     1        0.139921   362258.452637    ;  uncertainty r = 0.000052, k = 3.447613
         3        34     1        0.108873   335922.976611    ;  uncertainty r = 0.000022, k = 0.362364
         4         5     1        0.140374   356972.015625    ;  uncertainty r = 0.000046, k = 2.495094
         4        35     1        0.108685   334684.580029    ;  uncertainty r = 0.000029, k = 1.258601
         5         6     1        0.141661   396311.677246    ;  uncertainty r = 0.000082, k = 6.389209
         5         9     1        0.144344   226813.633838    ;  uncertainty r = 0.000038, k = 15.672375
         6         7     1        0.137597   296767.514160    ;  uncertainty r = 0.000017, k = 9.956782
         7         8     1        0.136140   293915.019043    ;  uncertainty r = 0.000066, k = 4.129785
         7        36     1        0.101078   415285.621826    ;  uncertainty r = 0.000031, k = 3.057821
         8         9     1        0.133460   447078.480273    ;  uncertainty r = 0.000096, k = 8.272837
         9        10     1        0.144794   289844.837939    ;  uncertainty r = 0.000097, k = 8.113485
        10        11     1        0.139278   314563.610645    ;  uncertainty r = 0.000138, k = 6.375764
        10        12     1        0.138557   411550.487598    ;  uncertainty r = 0.000054, k = 8.789488
        11        14     1        0.138425   328598.831494    ;  uncertainty r = 0.000062, k = 8.931475
        11        37     1        0.101173   411616.066895    ;  uncertainty r = 0.000057, k = 2.842789
        12        13     1        0.143692   255790.055566    ;  uncertainty r = 0.000105, k = 4.554133
        12        38     1        0.108254   339128.037061    ;  uncertainty r = 0.000025, k = 2.039581
        13        14     1        0.142749   371889.109473    ;  uncertainty r = 0.000072, k = 7.022474
        13        18     1        0.140315   369064.066748    ;  uncertainty r = 0.000085, k = 6.344517
        14        15     1        0.139681   367411.177344    ;  uncertainty r = 0.000052, k = 3.723678
        15        16     1        0.139020   366168.899121    ;  uncertainty r = 0.000059, k = 2.515093
        15        39     1        0.108877   336609.592871    ;  uncertainty r = 0.000015, k = 1.582506
        16        17     1        0.141750   334230.760059    ;  uncertainty r = 0.000211, k = 11.244450
        16        40     1        0.108854   333323.784082    ;  uncertainty r = 0.000014, k = 3.098911
        17        18     1        0.139748   350982.567529    ;  uncertainty r = 0.000152, k = 5.394295
        17        19     1        0.150103   226936.288574    ;  uncertainty r = 0.000114, k = 17.047802
        18        41     1        0.108909   332925.251953    ;  uncertainty r = 0.000037, k = 2.830692
        19        20     1        0.153660   179012.748999    ;  uncertainty r = 0.000327, k = 43.366644
        19        42     1        0.109181   310034.246777    ;  uncertainty r = 0.000035, k = 3.833353
        19        43     1        0.109181   310034.246777    ;  uncertainty r = 0.000035, k = 3.833353
        20        21     1        0.152169   180406.066455    ;  uncertainty r = 0.000049, k = 12.452743
        20        25     1        0.152169   180406.066455    ;  uncertainty r = 0.000049, k = 12.452743
        20        44     1        0.102586   390637.842285    ;  uncertainty r = 0.000036, k = 11.281185
        21        22     1        0.152834   209282.701929    ;  uncertainty r = 0.000028, k = 9.286892
        21        45     1        0.109144   310070.075342    ;  uncertainty r = 0.000010, k = 2.395423
        21        46     1        0.109144   310070.075342    ;  uncertainty r = 0.000010, k = 2.395423
        22        23     1        0.153701   218673.041797    ;  uncertainty r = 0.000042, k = 7.507755
        22        47     1        0.109502   309117.592236    ;  uncertainty r = 0.000018, k = 2.859548
        22        48     1        0.109502   309117.592236    ;  uncertainty r = 0.000018, k = 2.859548
        23        24     1        0.153701   218673.041797    ;  uncertainty r = 0.000042, k = 7.507755
        23        27     1        0.109462   308277.702246    ;  uncertainty r = 0.000013, k = 3.408438
        23        49     1        0.109462   308277.702246    ;  uncertainty r = 0.000013, k = 3.408438
        24        25     1        0.152834   209282.701929    ;  uncertainty r = 0.000028, k = 9.286892
        24        50     1        0.109502   309117.592236    ;  uncertainty r = 0.000018, k = 2.859548
        24        51     1        0.109502   309117.592236    ;  uncertainty r = 0.000018, k = 2.859548
        25        52     1        0.109144   310070.075342    ;  uncertainty r = 0.000010, k = 2.395423
        25        53     1        0.109144   310070.075342    ;  uncertainty r = 0.000010, k = 2.395423
        26        28     1        0.140310   344659.936768    ;  uncertainty r = 0.000017, k = 2.605463
        26        32     1        0.140310   344659.936768    ;  uncertainty r = 0.000017, k = 2.605463
        28        29     1        0.139485   365874.609473    ;  uncertainty r = 0.000027, k = 1.691767
        28        54     1        0.108845   334896.435889    ;  uncertainty r = 0.000024, k = 0.901235
        29        30     1        0.139635   371417.694434    ;  uncertainty r = 0.000019, k = 0.651041
        29        55     1        0.108846   333796.322754    ;  uncertainty r = 0.000013, k = 0.671753
        30        31     1        0.139635   371417.694434    ;  uncertainty r = 0.000019, k = 0.651041
        30        56     1        0.108841   334518.895264    ;  uncertainty r = 0.000012, k = 0.635598
        31        32     1        0.139485   365874.609473    ;  uncertainty r = 0.000027, k = 1.691756
        31        57     1        0.108846   333796.322754    ;  uncertainty r = 0.000013, k = 0.671759
        32        58     1        0.108845   334896.435889    ;  uncertainty r = 0.000024, k = 0.901243

[ angles ]
;       ai        aj        ak funct           theta             cth
         1         2         3     1      122.602028      418.097321    ;  uncertainty theta = 0.001341, k = 0.087109
         1         2        26     1      120.289963      414.001839    ;  uncertainty theta = 0.001233, k = 0.149500
         1         4         5     1      119.013161      537.374711    ;  uncertainty theta = 0.001558, k = 0.041052
         1         4        35     1      120.801682      285.543444    ;  uncertainty theta = 0.001219, k = 0.078841
         2         1         4     1      123.197556      529.799862    ;  uncertainty theta = 0.002313, k = 0.060585
         2         1        33     1      118.372971      282.061108    ;  uncertainty theta = 0.002330, k = 0.045526
         2         3         6     1      116.987503      520.165987    ;  uncertainty theta = 0.003789, k = 0.127321
         2         3        34     1      120.422829      272.804321    ;  uncertainty theta = 0.003128, k = 0.074540
         2        26        28     1      121.043274      413.703853    ;  uncertainty theta = 0.002009, k = 0.031436
         2        26        32     1      121.043274      413.703853    ;  uncertainty theta = 0.002009, k = 0.031436
         3         2        26     1      120.449661      410.254620    ;  uncertainty theta = 0.003273, k = 0.077112
         3         6         5     1      122.046066      374.602996    ;  uncertainty theta = 0.004557, k = 0.202435
         3         6         7     1      129.553024      393.538986    ;  uncertainty theta = 0.003175, k = 0.183890
         4         1        33     1      119.367615      298.664379    ;  uncertainty theta = 0.001912, k = 0.022777
         4         5         6     1      117.053284      397.409709    ;  uncertainty theta = 0.004436, k = 0.094169
         4         5         9     1      131.468643      363.666282    ;  uncertainty theta = 0.004087, k = 0.277423
         5         4        35     1      121.166893      280.622443    ;  uncertainty theta = 0.001242, k = 0.066104
         5         6         7     1      105.466660      657.348243    ;  uncertainty theta = 0.003923, k = 0.154050
         5         9         8     1      113.170639      813.299411    ;  uncertainty theta = 0.003643, k = 0.125162
         5         9        10     1      127.385788      329.630518    ;  uncertainty theta = 0.008535, k = 0.185215
         6         3        34     1      122.141174      295.789379    ;  uncertainty theta = 0.001560, k = 0.104857
         6         5         9     1      103.849319      752.131586    ;  uncertainty theta = 0.005867, k = 0.171212
         6         7         8     1      108.883446     1001.682773    ;  uncertainty theta = 0.003827, k = 0.032041
         6         7        36     1      116.095383      283.379110    ;  uncertainty theta = 0.006342, k = 0.112311
         7         8         9     1      109.050003      921.603250    ;  uncertainty theta = 0.003546, k = 0.164135
         8         7        36     1      108.269653      346.927983    ;  uncertainty theta = 0.005376, k = 0.074563
         8         9        10     1      120.762985      422.043699    ;  uncertainty theta = 0.004996, k = 0.118777
         9        10        11     1      119.132584      397.104668    ;  uncertainty theta = 0.005186, k = 0.178000
         9        10        12     1      128.640167      347.261370    ;  uncertainty theta = 0.004833, k = 0.168064
        10        11        14     1      106.165138      854.002691    ;  uncertainty theta = 0.002753, k = 0.085041
        10        11        37     1      116.293541      283.584141    ;  uncertainty theta = 0.006065, k = 0.113643
        10        12        13     1      107.187729      787.754258    ;  uncertainty theta = 0.002699, k = 0.072143
        10        12        38     1      123.161888      244.573158    ;  uncertainty theta = 0.003527, k = 0.152526
        11        10        12     1      111.264282      650.558244    ;  uncertainty theta = 0.002902, k = 0.165799
        11        14        13     1      108.242752      705.816974    ;  uncertainty theta = 0.002548, k = 0.146960
        11        14        15     1      129.553223      399.783192    ;  uncertainty theta = 0.001405, k = 0.079201
        12        13        14     1      106.846535      662.344706    ;  uncertainty theta = 0.001346, k = 0.176005
        12        13        18     1      132.347778      372.482490    ;  uncertainty theta = 0.003209, k = 0.146270
        13        12        38     1      124.819275      255.898052    ;  uncertainty theta = 0.003779, k = 0.072933
        13        14        15     1      119.718323      387.749499    ;  uncertainty theta = 0.002902, k = 0.065974
        13        18        17     1      119.763710      543.188936    ;  uncertainty theta = 0.005094, k = 0.209394
        13        18        41     1      120.935867      304.812789    ;  uncertainty theta = 0.002476, k = 0.040876
        14        11        37     1      116.981216      292.079827    ;  uncertainty theta = 0.005273, k = 0.076356
        14        13        18     1      116.553329      410.743879    ;  uncertainty theta = 0.005419, k = 0.156523
        14        15        16     1      117.036095      522.748204    ;  uncertainty theta = 0.003091, k = 0.092514
        14        15        39     1      122.463211      292.399360    ;  uncertainty theta = 0.001064, k = 0.070309
        15        16        17     1      123.551590      507.233644    ;  uncertainty theta = 0.008012, k = 0.030918
        15        16        40     1      119.046936      295.375869    ;  uncertainty theta = 0.001171, k = 0.111099
        16        15        39     1      120.796852      284.886821    ;  uncertainty theta = 0.001274, k = 0.066583
        16        17        18     1      124.084671      457.660305    ;  uncertainty theta = 0.007359, k = 0.143504
        16        17        19     1      118.705055      422.194495    ;  uncertainty theta = 0.000610, k = 0.181631
        17        16        40     1      118.020508      280.232140    ;  uncertainty theta = 0.003100, k = 0.193177
        17        18        41     1      119.015297      275.001023    ;  uncertainty theta = 0.004327, k = 0.205861
        17        19        20     1      112.946289      641.268802    ;  uncertainty theta = 0.003207, k = 0.126515
        17        19        42     1      109.866928      412.643393    ;  uncertainty theta = 0.002504, k = 0.135953
        17        19        43     1      109.866928      412.643393    ;  uncertainty theta = 0.002504, k = 0.135953
        18        17        19     1      118.955978      424.704857    ;  uncertainty theta = 0.002486, k = 0.075248
        19        20        21     1      111.988121      601.199098    ;  uncertainty theta = 0.006579, k = 0.139305
        19        20        25     1      111.988121      601.199098    ;  uncertainty theta = 0.006579, k = 0.139305
        19        20        44     1      106.858643      436.715726    ;  uncertainty theta = 0.004999, k = 0.136174
        20        19        42     1      105.880051      451.368249    ;  uncertainty theta = 0.004585, k = 0.191421
        20        19        43     1      105.880051      451.368249    ;  uncertainty theta = 0.004585, k = 0.191421
        20        21        22     1      110.708633      722.998277    ;  uncertainty theta = 0.001865, k = 0.132970
        20        21        45     1      106.218994      468.717554    ;  uncertainty theta = 0.002324, k = 0.085258
        20        21        46     1      106.218994      468.717554    ;  uncertainty theta = 0.002324, k = 0.085258
        20        25        24     1      110.708633      722.998277    ;  uncertainty theta = 0.001865, k = 0.132970
        20        25        52     1      106.218994      468.717554    ;  uncertainty theta = 0.002324, k = 0.085258
        20        25        53     1      106.218994      468.717554    ;  uncertainty theta = 0.002324, k = 0.085258
        21        20        25     1      111.821800      644.923226    ;  uncertainty theta = 0.001949, k = 0.259168
        21        20        44     1      106.543808      448.844735    ;  uncertainty theta = 0.004117, k = 0.223667
        21        22        23     1      109.790810      624.479174    ;  uncertainty theta = 0.004250, k = 0.083823
        21        22        47     1      107.363419      408.221227    ;  uncertainty theta = 0.002020, k = 0.076477
        21        22        48     1      107.363419      408.221227    ;  uncertainty theta = 0.002020, k = 0.076477
        22        21        45     1      111.185471      418.063421    ;  uncertainty theta = 0.001992, k = 0.101180
        22        21        46     1      111.185471      418.063421    ;  uncertainty theta = 0.001992, k = 0.101180
        22        23        24     1      108.999069      633.635057    ;  uncertainty theta = 0.005549, k = 0.186389
        22        23        27     1      108.669968      407.572266    ;  uncertainty theta = 0.002054, k = 0.047913
        22        23        49     1      108.669968      407.572266    ;  uncertainty theta = 0.002054, k = 0.047913
        23        22        47     1      109.402649      408.624746    ;  uncertainty theta = 0.001844, k = 0.027594
        23        22        48     1      109.402649      408.624746    ;  uncertainty theta = 0.001844, k = 0.027594
        23        24        25     1      109.790810      624.479174    ;  uncertainty theta = 0.004250, k = 0.083823
        23        24        50     1      109.402649      408.624746    ;  uncertainty theta = 0.001844, k = 0.027594
        23        24        51     1      109.402649      408.624746    ;  uncertainty theta = 0.001844, k = 0.027594
        24        23        27     1      108.669968      407.572266    ;  uncertainty theta = 0.002054, k = 0.047913
        24        23        49     1      108.669968      407.572266    ;  uncertainty theta = 0.002054, k = 0.047913
        24        25        52     1      111.185471      418.063421    ;  uncertainty theta = 0.001992, k = 0.101180
        24        25        53     1      111.185471      418.063421    ;  uncertainty theta = 0.001992, k = 0.101180
        25        20        44     1      106.543808      448.844735    ;  uncertainty theta = 0.004117, k = 0.223667
        25        24        50     1      107.363419      408.221227    ;  uncertainty theta = 0.002020, k = 0.076477
        25        24        51     1      107.363419      408.221227    ;  uncertainty theta = 0.002020, k = 0.076477
        26        28        29     1      120.958481      523.290165    ;  uncertainty theta = 0.001423, k = 0.044594
        26        28        54     1      119.144638      278.575452    ;  uncertainty theta = 0.001487, k = 0.056934
        26        32        31     1      120.958481      523.290165    ;  uncertainty theta = 0.001423, k = 0.044594
        26        32        58     1      119.144638      278.575452    ;  uncertainty theta = 0.001487, k = 0.056934
        27        23        49     1      104.130638      320.035651    ;  uncertainty theta = 0.002967, k = 0.052617
        28        26        32     1      119.879662      418.656329    ;  uncertainty theta = 0.003102, k = 0.115297
        28        29        30     1      119.781540      514.979879    ;  uncertainty theta = 0.001355, k = 0.011297
        28        29        55     1      120.167740      284.433346    ;  uncertainty theta = 0.001280, k = 0.011547
        29        28        54     1      120.270523      293.301171    ;  uncertainty theta = 0.000987, k = 0.019520
        29        30        31     1      118.290123      528.095260    ;  uncertainty theta = 0.001610, k = 0.009475
        29        30        56     1      120.637001      288.903553    ;  uncertainty theta = 0.001584, k = 0.007453
        30        29        55     1      120.625977      288.164285    ;  uncertainty theta = 0.001231, k = 0.016572
        30        31        32     1      119.781540      514.979879    ;  uncertainty theta = 0.001355, k = 0.011297
        30        31        57     1      120.625977      288.164285    ;  uncertainty theta = 0.001231, k = 0.016572
        31        30        56     1      120.637001      288.903553    ;  uncertainty theta = 0.001584, k = 0.007453
        31        32        58     1      120.270523      293.301171    ;  uncertainty theta = 0.000987, k = 0.019520
        32        31        57     1      120.167740      284.433346    ;  uncertainty theta = 0.001280, k = 0.011547
        42        19        43     1      106.646156      319.393074    ;  uncertainty theta = 0.003403, k = 0.028629
        45        21        46     1      107.461449      325.817508    ;  uncertainty theta = 0.003055, k = 0.044212
        47        22        48     1      104.866112      316.124707    ;  uncertainty theta = 0.003395, k = 0.053955
        50        24        51     1      104.866112      316.124707    ;  uncertainty theta = 0.003395, k = 0.053955
        52        25        53     1      107.461449      325.817508    ;  uncertainty theta = 0.003055, k = 0.044212

[ dihedrals ] ; propers for gromacs 4.5 or higher, use funct 9
;       ai        aj        ak        al funct           phase               k        pn
         1         2         3         6     9        0.000000        0.219706         1    ;  uncertainty k = 0.180451
         1         2         3         6     9      180.000000       14.720016         2    ;  uncertainty k = 0.322854
         1         2         3         6     9        0.000000        0.142593         3    ;  uncertainty k = 0.310463
         1         2         3         6     9      180.000000        0.754849         4    ;  uncertainty k = 0.385214
         1         2         3        34     9        0.000000        0.370690         1    ;  uncertainty k = 0.170624
         1         2         3        34     9      180.000000        8.086335         2    ;  uncertainty k = 0.598517
         1         2         3        34     9        0.000000        1.558065         3    ;  uncertainty k = 0.143193
         1         2         3        34     9      180.000000        1.674346         4    ;  uncertainty k = 0.256099
         1         2        26        28     9        0.000000       -0.312783         1    ;  uncertainty k = 0.477527
         1         2        26        28     9      180.000000        4.168555         2    ;  uncertainty k = 0.128549
         1         2        26        28     9        0.000000        0.333745         3    ;  uncertainty k = 0.130454
         1         2        26        28     9      180.000000       -0.068235         4    ;  uncertainty k = 0.054812
         1         2        26        32     9        0.000000       -0.312783         1    ;  uncertainty k = 0.477527
         1         2        26        32     9      180.000000        4.168555         2    ;  uncertainty k = 0.128549
         1         2        26        32     9        0.000000        0.333745         3    ;  uncertainty k = 0.130454
         1         2        26        32     9      180.000000       -0.068235         4    ;  uncertainty k = 0.054812
         1         4         5         6     9        0.000000        0.086262         1    ;  uncertainty k = 0.389832
         1         4         5         6     9      180.000000       13.583600         2    ;  uncertainty k = 0.304127
         1         4         5         6     9        0.000000       -1.924975         3    ;  uncertainty k = 0.667032
         1         4         5         6     9      180.000000        0.678072         4    ;  uncertainty k = 0.326080
         1         4         5         9     9        0.000000        0.241301         1    ;  uncertainty k = 0.369933
         1         4         5         9     9      180.000000        8.677489         2    ;  uncertainty k = 0.450874
         1         4         5         9     9        0.000000        0.628971         3    ;  uncertainty k = 0.436007
         1         4         5         9     9      180.000000        1.306414         4    ;  uncertainty k = 0.110243
         2         1         4         5     9        0.000000       -0.023669         1    ;  uncertainty k = 0.259755
         2         1         4         5     9      180.000000       16.270050         2    ;  uncertainty k = 0.292701
         2         1         4         5     9        0.000000       -0.305954         3    ;  uncertainty k = 0.518876
         2         1         4         5     9      180.000000        0.758286         4    ;  uncertainty k = 0.324821
         2         1         4        35     9        0.000000        0.012923         1    ;  uncertainty k = 0.230744
         2         1         4        35     9      180.000000        9.034276         2    ;  uncertainty k = 0.378891
         2         1         4        35     9        0.000000        1.383306         3    ;  uncertainty k = 0.260285
         2         1         4        35     9      180.000000        1.902986         4    ;  uncertainty k = 0.356064
         2         3         6         5     9        0.000000       -0.097598         1    ;  uncertainty k = 0.284778
         2         3         6         5     9      180.000000       12.018532         2    ;  uncertainty k = 0.283353
         2         3         6         5     9        0.000000       -1.213429         3    ;  uncertainty k = 0.428647
         2         3         6         5     9      180.000000        0.791522         4    ;  uncertainty k = 0.188619
         2         3         6         7     9        0.000000        0.090989         1    ;  uncertainty k = 0.170381
         2         3         6         7     9      180.000000       10.257967         2    ;  uncertainty k = 0.722706
         2         3         6         7     9        0.000000        0.877260         3    ;  uncertainty k = 0.251100
         2         3         6         7     9      180.000000        1.239970         4    ;  uncertainty k = 0.426454
         2        26        28        29     9        0.000000       -0.005916         1    ;  uncertainty k = 0.201885
         2        26        28        29     9      180.000000        8.719244         2    ;  uncertainty k = 0.535957
         2        26        28        29     9        0.000000        1.238353         3    ;  uncertainty k = 0.421775
         2        26        28        29     9      180.000000        1.774254         4    ;  uncertainty k = 0.168624
         2        26        28        54     9        0.000000       -0.242918         1    ;  uncertainty k = 0.313708
         2        26        28        54     9      180.000000        6.998237         2    ;  uncertainty k = 0.465352
         2        26        28        54     9        0.000000        0.811172         3    ;  uncertainty k = 0.179679
         2        26        28        54     9      180.000000        1.164655         4    ;  uncertainty k = 0.223371
         2        26        32        31     9        0.000000       -0.005916         1    ;  uncertainty k = 0.201885
         2        26        32        31     9      180.000000        8.719244         2    ;  uncertainty k = 0.535957
         2        26        32        31     9        0.000000        1.238353         3    ;  uncertainty k = 0.421775
         2        26        32        31     9      180.000000        1.774254         4    ;  uncertainty k = 0.168624
         2        26        32        58     9        0.000000       -0.242918         1    ;  uncertainty k = 0.313708
         2        26        32        58     9      180.000000        6.998237         2    ;  uncertainty k = 0.465352
         2        26        32        58     9        0.000000        0.811172         3    ;  uncertainty k = 0.179679
         2        26        32        58     9      180.000000        1.164655         4    ;  uncertainty k = 0.223371
         3         2         1         4     9        0.000000       -0.075071         1    ;  uncertainty k = 0.204858
         3         2         1         4     9      180.000000        8.711731         2    ;  uncertainty k = 0.455797
         3         2         1         4     9        0.000000       -0.021020         3    ;  uncertainty k = 0.433452
         3         2         1         4     9      180.000000        1.057571         4    ;  uncertainty k = 0.298800
         3         2         1        33     9        0.000000       -0.154226         1    ;  uncertainty k = 0.204798
         3         2         1        33     9      180.000000        6.221735         2    ;  uncertainty k = 0.691927
         3         2         1        33     9        0.000000        1.247911         3    ;  uncertainty k = 0.200380
         3         2         1        33     9      180.000000        1.468890         4    ;  uncertainty k = 0.228873
         3         2        26        28     9        0.000000       -0.373660         1    ;  uncertainty k = 0.370402
         3         2        26        28     9      180.000000        4.034202         2    ;  uncertainty k = 0.156588
         3         2        26        28     9        0.000000        0.381946         3    ;  uncertainty k = 0.165311
         3         2        26        28     9      180.000000       -0.078104         4    ;  uncertainty k = 0.027745
         3         2        26        32     9        0.000000       -0.373660         1    ;  uncertainty k = 0.370402
         3         2        26        32     9      180.000000        4.034202         2    ;  uncertainty k = 0.156588
         3         2        26        32     9        0.000000        0.381946         3    ;  uncertainty k = 0.165311
         3         2        26        32     9      180.000000       -0.078104         4    ;  uncertainty k = 0.027745
         3         6         5         4     9        0.000000       -0.661370         1    ;  uncertainty k = 0.860854
         3         6         5         4     9      180.000000        7.352822         2    ;  uncertainty k = 0.441050
         3         6         5         4     9        0.000000        0.178338         3    ;  uncertainty k = 0.170450
         3         6         5         4     9      180.000000        1.010737         4    ;  uncertainty k = 0.356584
         3         6         5         9     9        0.000000        0.036862         1    ;  uncertainty k = 0.411824
         3         6         5         9     9      180.000000        7.094024         2    ;  uncertainty k = 0.414257
         3         6         5         9     9        0.000000        0.227535         3    ;  uncertainty k = 0.369291
         3         6         5         9     9      180.000000        1.312472         4    ;  uncertainty k = 0.381005
         3         6         7         8     9        0.000000        1.009595         1    ;  uncertainty k = 0.726740
         3         6         7         8     9      180.000000        6.947436         2    ;  uncertainty k = 0.237885
         3         6         7         8     9        0.000000        0.736030         3    ;  uncertainty k = 0.416576
         3         6         7         8     9      180.000000        0.304594         4    ;  uncertainty k = 0.233720
         3         6         7        36     9        0.000000        2.152293         1    ;  uncertainty k = 1.099967
         3         6         7        36     9      180.000000        1.599165         2    ;  uncertainty k = 0.775577
         3         6         7        36     9        0.000000        1.294625         3    ;  uncertainty k = 0.538678
         3         6         7        36     9      180.000000        0.130290         4    ;  uncertainty k = 0.132069
         4         1         2        26     9        0.000000        0.055259         1    ;  uncertainty k = 0.260666
         4         1         2        26     9      180.000000        7.430014         2    ;  uncertainty k = 0.721676
         4         1         2        26     9        0.000000        1.095771         3    ;  uncertainty k = 0.500164
         4         1         2        26     9      180.000000        1.701040         4    ;  uncertainty k = 0.190851
         4         5         6         7     9        0.000000       -0.070400         1    ;  uncertainty k = 0.515551
         4         5         6         7     9      180.000000        8.373331         2    ;  uncertainty k = 0.217138
         4         5         6         7     9        0.000000       -0.199801         3    ;  uncertainty k = 0.477250
         4         5         6         7     9      180.000000        1.225440         4    ;  uncertainty k = 0.359652
         4         5         9         8     9        0.000000        0.888958         1    ;  uncertainty k = 0.442925
         4         5         9         8     9      180.000000        6.415715         2    ;  uncertainty k = 0.526534
         4         5         9         8     9        0.000000        0.397391         3    ;  uncertainty k = 0.250640
         4         5         9         8     9      180.000000        0.940986         4    ;  uncertainty k = 0.227664
         4         5         9        10     9        0.000000        0.174202         1    ;  uncertainty k = 1.156995
         4         5         9        10     9      180.000000        4.824191         2    ;  uncertainty k = 1.279426
         4         5         9        10     9        0.000000        1.385011         3    ;  uncertainty k = 0.178513
         4         5         9        10     9      180.000000        0.062332         4    ;  uncertainty k = 0.259563
         5         4         1        33     9        0.000000        0.110361         1    ;  uncertainty k = 0.292138
         5         4         1        33     9      180.000000       10.983896         2    ;  uncertainty k = 0.325102
         5         4         1        33     9        0.000000        1.534774         3    ;  uncertainty k = 0.308268
         5         4         1        33     9      180.000000        1.824448         4    ;  uncertainty k = 0.307649
         5         6         3        34     9        0.000000        0.120525         1    ;  uncertainty k = 0.314814
         5         6         3        34     9      180.000000        6.660715         2    ;  uncertainty k = 1.291145
         5         6         3        34     9        0.000000        1.372398         3    ;  uncertainty k = 0.164407
         5         6         3        34     9      180.000000        1.139857         4    ;  uncertainty k = 0.394124
         5         6         7         8     9        0.000000        0.356408         1    ;  uncertainty k = 0.427693
         5         6         7         8     9      180.000000       17.655196         2    ;  uncertainty k = 1.156207
         5         6         7         8     9        0.000000       -8.132787         3    ;  uncertainty k = 1.199650
         5         6         7         8     9      180.000000        0.686514         4    ;  uncertainty k = 0.522117
         5         6         7        36     9        0.000000        4.418445         1    ;  uncertainty k = 1.643922
         5         6         7        36     9      180.000000        5.757738         2    ;  uncertainty k = 1.284735
         5         6         7        36     9        0.000000        1.361558         3    ;  uncertainty k = 0.233334
         5         6         7        36     9      180.000000        0.062872         4    ;  uncertainty k = 0.145235
         5         9         8         7     9        0.000000       -0.152410         1    ;  uncertainty k = 0.525464
         5         9         8         7     9      180.000000       23.104001         2    ;  uncertainty k = 0.271510
         5         9         8         7     9        0.000000       -3.592681         3    ;  uncertainty k = 0.895745
         5         9         8         7     9      180.000000        2.077007         4    ;  uncertainty k = 0.558825
         5         9        10        11     9        0.000000        1.908778         1    ;  uncertainty k = 0.996478
         5         9        10        11     9      180.000000        2.851359         2    ;  uncertainty k = 0.313488
         5         9        10        11     9        0.000000        0.907149         3    ;  uncertainty k = 0.214446
         5         9        10        11     9      180.000000       -0.068309         4    ;  uncertainty k = 0.130633
         5         9        10        12     9        0.000000        0.291783         1    ;  uncertainty k = 0.985958
         5         9        10        12     9      180.000000        2.345366         2    ;  uncertainty k = 0.290524
         5         9        10        12     9        0.000000        0.480589         3    ;  uncertainty k = 0.177212
         5         9        10        12     9      180.000000        0.002386         4    ;  uncertainty k = 0.098834
         6         3         2        26     9        0.000000        0.214867         1    ;  uncertainty k = 0.353642
         6         3         2        26     9      180.000000       12.099210         2    ;  uncertainty k = 0.771974
         6         3         2        26     9        0.000000        1.438144         3    ;  uncertainty k = 0.283232
         6         3         2        26     9      180.000000        1.461979         4    ;  uncertainty k = 0.244885
         6         5         4        35     9        0.000000        0.081606         1    ;  uncertainty k = 0.496730
         6         5         4        35     9      180.000000        7.636439         2    ;  uncertainty k = 0.933550
         6         5         4        35     9        0.000000        1.281995         3    ;  uncertainty k = 0.371274
         6         5         4        35     9      180.000000        1.137925         4    ;  uncertainty k = 0.436075
         6         5         9         8     9        0.000000        0.476955         1    ;  uncertainty k = 0.448116
         6         5         9         8     9      180.000000       13.346305         2    ;  uncertainty k = 0.822166
         6         5         9         8     9        0.000000      -10.555758         3    ;  uncertainty k = 1.843811
         6         5         9         8     9      180.000000        2.004368         4    ;  uncertainty k = 0.453320
         6         5         9        10     9        0.000000        1.050014         1    ;  uncertainty k = 1.884342
         6         5         9        10     9      180.000000        9.354105         2    ;  uncertainty k = 0.390945
         6         5         9        10     9        0.000000        1.294862         3    ;  uncertainty k = 0.277792
         6         5         9        10     9      180.000000        0.446549         4    ;  uncertainty k = 0.271048
         6         7         8         9     9        0.000000       -0.780413         1    ;  uncertainty k = 0.781603
         6         7         8         9     9      180.000000       17.519514         2    ;  uncertainty k = 0.701851
         6         7         8         9     9        0.000000       -4.712189         3    ;  uncertainty k = 1.192115
         6         7         8         9     9      180.000000        1.006851         4    ;  uncertainty k = 0.568145
         7         6         3        34     9        0.000000        0.269838         1    ;  uncertainty k = 0.432751
         7         6         3        34     9      180.000000        5.561952         2    ;  uncertainty k = 0.850219
         7         6         3        34     9        0.000000        1.110261         3    ;  uncertainty k = 0.320167
         7         6         3        34     9      180.000000        0.846831         4    ;  uncertainty k = 0.441715
         7         6         5         9     9        0.000000       -0.423957         1    ;  uncertainty k = 0.141085
         7         6         5         9     9      180.000000       12.652078         2    ;  uncertainty k = 0.778226
         7         6         5         9     9        0.000000       -3.927266         3    ;  uncertainty k = 1.485442
         7         6         5         9     9      180.000000        1.555054         4    ;  uncertainty k = 0.514315
         7         8         9        10     9        0.000000        0.073874         1    ;  uncertainty k = 0.461946
         7         8         9        10     9      180.000000       25.024414         2    ;  uncertainty k = 0.430631
         7         8         9        10     9        0.000000        1.727098         3    ;  uncertainty k = 0.539088
         7         8         9        10     9      180.000000        1.073052         4    ;  uncertainty k = 0.433232
         8         9        10        11     9        0.000000        0.781710         1    ;  uncertainty k = 0.994313
         8         9        10        11     9      180.000000        4.218386         2    ;  uncertainty k = 0.146827
         8         9        10        11     9        0.000000        0.456255         3    ;  uncertainty k = 0.336140
         8         9        10        11     9      180.000000        0.006739         4    ;  uncertainty k = 0.109076
         8         9        10        12     9        0.000000        1.294517         1    ;  uncertainty k = 0.682896
         8         9        10        12     9      180.000000        3.396277         2    ;  uncertainty k = 0.207658
         8         9        10        12     9        0.000000        1.007984         3    ;  uncertainty k = 0.211819
         8         9        10        12     9      180.000000       -0.027329         4    ;  uncertainty k = 0.091070
         9         5         4        35     9        0.000000        0.294226         1    ;  uncertainty k = 0.506176
         9         5         4        35     9      180.000000        5.496407         2    ;  uncertainty k = 0.395005
         9         5         4        35     9        0.000000        1.139160         3    ;  uncertainty k = 0.110549
         9         5         4        35     9      180.000000        0.632530         4    ;  uncertainty k = 0.289108
         9         8         7        36     9        0.000000        3.335436         1    ;  uncertainty k = 2.451323
         9         8         7        36     9      180.000000       12.207877         2    ;  uncertainty k = 0.275272
         9         8         7        36     9        0.000000        1.616288         3    ;  uncertainty k = 1.032718
         9         8         7        36     9      180.000000       -0.141713         4    ;  uncertainty k = 0.500801
         9        10        11        14     9        0.000000        0.972876         1    ;  uncertainty k = 0.747688
         9        10        11        14     9      180.000000        9.072037         2    ;  uncertainty k = 0.685183
         9        10        11        14     9        0.000000        1.396325         3    ;  uncertainty k = 0.437267
         9        10        11        14     9      180.000000        0.162816         4    ;  uncertainty k = 0.433254
         9        10        11        37     9        0.000000        0.918600         1    ;  uncertainty k = 1.149431
         9        10        11        37     9      180.000000        2.312194         2    ;  uncertainty k = 0.875632
         9        10        11        37     9        0.000000        1.179158         3    ;  uncertainty k = 0.546571
         9        10        11        37     9      180.000000        0.033563         4    ;  uncertainty k = 0.163922
         9        10        12        13     9        0.000000        0.445398         1    ;  uncertainty k = 0.425637
         9        10        12        13     9      180.000000       14.898008         2    ;  uncertainty k = 0.250982
         9        10        12        13     9        0.000000        1.555908         3    ;  uncertainty k = 0.315662
         9        10        12        13     9      180.000000        0.839320         4    ;  uncertainty k = 0.195174
         9        10        12        38     9        0.000000        0.548979         1    ;  uncertainty k = 0.628695
         9        10        12        38     9      180.000000        8.040030         2    ;  uncertainty k = 0.846047
         9        10        12        38     9        0.000000        1.437429         3    ;  uncertainty k = 0.231870
         9        10        12        38     9      180.000000        0.430055         4    ;  uncertainty k = 0.351490
        10        11        14        13     9        0.000000        0.677224         1    ;  uncertainty k = 0.484040
        10        11        14        13     9      180.000000       15.391538         2    ;  uncertainty k = 0.543861
        10        11        14        13     9        0.000000       -7.176031         3    ;  uncertainty k = 1.504592
        10        11        14        13     9      180.000000        0.720549         4    ;  uncertainty k = 0.312836
        10        11        14        15     9        0.000000        1.177185         1    ;  uncertainty k = 1.388290
        10        11        14        15     9      180.000000        6.066057         2    ;  uncertainty k = 0.681074
        10        11        14        15     9        0.000000        0.556232         3    ;  uncertainty k = 0.680744
        10        11        14        15     9      180.000000        0.362922         4    ;  uncertainty k = 0.189431
        10        12        13        14     9        0.000000        0.361292         1    ;  uncertainty k = 1.330430
        10        12        13        14     9      180.000000       13.508990         2    ;  uncertainty k = 0.841570
        10        12        13        14     9        0.000000      -10.232746         3    ;  uncertainty k = 2.429813
        10        12        13        14     9      180.000000        1.943500         4    ;  uncertainty k = 0.699510
        10        12        13        18     9        0.000000        0.719928         1    ;  uncertainty k = 1.051785
        10        12        13        18     9      180.000000        7.152434         2    ;  uncertainty k = 0.463258
        10        12        13        18     9        0.000000        0.639458         3    ;  uncertainty k = 0.568479
        10        12        13        18     9      180.000000        0.881597         4    ;  uncertainty k = 0.181196
        11        10        12        13     9        0.000000       -0.170591         1    ;  uncertainty k = 0.457887
        11        10        12        13     9      180.000000       21.183000         2    ;  uncertainty k = 0.305566
        11        10        12        13     9        0.000000       -5.763849         3    ;  uncertainty k = 0.923330
        11        10        12        13     9      180.000000        1.114901         4    ;  uncertainty k = 0.646691
        11        10        12        38     9        0.000000        0.167060         1    ;  uncertainty k = 0.788367
        11        10        12        38     9      180.000000       13.631220         2    ;  uncertainty k = 0.279679
        11        10        12        38     9        0.000000        1.611237         3    ;  uncertainty k = 0.521630
        11        10        12        38     9      180.000000        0.833703         4    ;  uncertainty k = 0.212157
        11        14        13        12     9        0.000000       -0.202825         1    ;  uncertainty k = 0.478407
        11        14        13        12     9      180.000000       13.002652         2    ;  uncertainty k = 0.931177
        11        14        13        12     9        0.000000       -3.504618         3    ;  uncertainty k = 1.340468
        11        14        13        12     9      180.000000        1.499261         4    ;  uncertainty k = 0.893862
        11        14        13        18     9        0.000000       -0.009400         1    ;  uncertainty k = 0.665287
        11        14        13        18     9      180.000000        8.599465         2    ;  uncertainty k = 0.303691
        11        14        13        18     9        0.000000        0.039108         3    ;  uncertainty k = 0.634312
        11        14        13        18     9      180.000000        1.157750         4    ;  uncertainty k = 0.318749
        11        14        15        16     9        0.000000        0.101687         1    ;  uncertainty k = 0.492650
        11        14        15        16     9      180.000000       10.396881         2    ;  uncertainty k = 0.405513
        11        14        15        16     9        0.000000        0.905536         3    ;  uncertainty k = 0.217852
        11        14        15        16     9      180.000000        1.193490         4    ;  uncertainty k = 0.199283
        11        14        15        39     9        0.000000        0.297608         1    ;  uncertainty k = 0.281792
        11        14        15        39     9      180.000000        5.979846         2    ;  uncertainty k = 0.436306
        11        14        15        39     9        0.000000        1.081486         3    ;  uncertainty k = 0.443402
        11        14        15        39     9      180.000000        0.788557         4    ;  uncertainty k = 0.396366
        12        10        11        14     9        0.000000       -0.312845         1    ;  uncertainty k = 0.580788
        12        10        11        14     9      180.000000       14.762202         2    ;  uncertainty k = 0.576008
        12        10        11        14     9        0.000000       -6.005934         3    ;  uncertainty k = 0.754875
        12        10        11        14     9      180.000000        0.807473         4    ;  uncertainty k = 0.503918
        12        10        11        37     9        0.000000        2.692548         1    ;  uncertainty k = 0.930202
        12        10        11        37     9      180.000000        7.104361         2    ;  uncertainty k = 0.633239
        12        10        11        37     9        0.000000        1.708608         3    ;  uncertainty k = 0.800499
        12        10        11        37     9      180.000000       -0.086000         4    ;  uncertainty k = 0.169592
        12        13        14        15     9        0.000000        0.122372         1    ;  uncertainty k = 0.493782
        12        13        14        15     9      180.000000        7.658649         2    ;  uncertainty k = 0.231490
        12        13        14        15     9        0.000000        0.307669         3    ;  uncertainty k = 0.516181
        12        13        14        15     9      180.000000        1.225404         4    ;  uncertainty k = 0.295152
        12        13        18        17     9        0.000000        0.273940         1    ;  uncertainty k = 0.242143
        12        13        18        17     9      180.000000        9.158220         2    ;  uncertainty k = 0.581427
        12        13        18        17     9        0.000000        0.774232         3    ;  uncertainty k = 0.207770
        12        13        18        17     9      180.000000        1.313479         4    ;  uncertainty k = 0.061551
        12        13        18        41     9        0.000000        0.176521         1    ;  uncertainty k = 0.521884
        12        13        18        41     9      180.000000        6.160616         2    ;  uncertainty k = 0.516039
        12        13        18        41     9        0.000000        1.150569         3    ;  uncertainty k = 0.299354
        12        13        18        41     9      180.000000        0.773380         4    ;  uncertainty k = 0.265485
        13        14        11        37     9        0.000000        4.251255         1    ;  uncertainty k = 1.360478
        13        14        11        37     9      180.000000        5.652297         2    ;  uncertainty k = 0.865941
        13        14        11        37     9        0.000000        1.218097         3    ;  uncertainty k = 0.455419
        13        14        11        37     9      180.000000        0.178738         4    ;  uncertainty k = 0.095967
        13        14        15        16     9        0.000000        0.138507         1    ;  uncertainty k = 0.419631
        13        14        15        16     9      180.000000       12.342478         2    ;  uncertainty k = 0.198431
        13        14        15        16     9        0.000000       -1.190024         3    ;  uncertainty k = 0.162598
        13        14        15        16     9      180.000000        0.787465         4    ;  uncertainty k = 0.236198
        13        14        15        39     9        0.000000        0.110142         1    ;  uncertainty k = 0.471897
        13        14        15        39     9      180.000000        6.826218         2    ;  uncertainty k = 0.834942
        13        14        15        39     9        0.000000        1.286748         3    ;  uncertainty k = 0.286966
        13        14        15        39     9      180.000000        1.215500         4    ;  uncertainty k = 0.381963
        13        18        17        16     9        0.000000       -0.120548         1    ;  uncertainty k = 0.442668
        13        18        17        16     9      180.000000       14.435859         2    ;  uncertainty k = 0.456972
        13        18        17        16     9        0.000000       -0.084202         3    ;  uncertainty k = 0.428045
        13        18        17        16     9      180.000000        0.846335         4    ;  uncertainty k = 0.451327
        13        18        17        19     9        0.000000        0.079424         1    ;  uncertainty k = 0.272272
        13        18        17        19     9      180.000000       12.474388         2    ;  uncertainty k = 0.384270
        13        18        17        19     9        0.000000        1.421860         3    ;  uncertainty k = 0.339278
        13        18        17        19     9      180.000000        1.635099         4    ;  uncertainty k = 0.224797
        14        13        12        38     9        0.000000        0.017967         1    ;  uncertainty k = 0.631560
        14        13        12        38     9      180.000000        8.382173         2    ;  uncertainty k = 0.283584
        14        13        12        38     9        0.000000        1.223121         3    ;  uncertainty k = 0.388946
        14        13        12        38     9      180.000000        0.290886         4    ;  uncertainty k = 0.214805
        14        13        18        17     9        0.000000        0.115653         1    ;  uncertainty k = 0.417507
        14        13        18        17     9      180.000000       13.211841         2    ;  uncertainty k = 0.348487
        14        13        18        17     9        0.000000       -1.525755         3    ;  uncertainty k = 0.580502
        14        13        18        17     9      180.000000        0.752655         4    ;  uncertainty k = 0.130469
        14        13        18        41     9        0.000000        0.217180         1    ;  uncertainty k = 0.371606
        14        13        18        41     9      180.000000        7.628301         2    ;  uncertainty k = 0.907146
        14        13        18        41     9        0.000000        1.336832         3    ;  uncertainty k = 0.359407
        14        13        18        41     9      180.000000        1.243972         4    ;  uncertainty k = 0.290146
        14        15        16        17     9        0.000000       -0.069405         1    ;  uncertainty k = 0.317444
        14        15        16        17     9      180.000000       15.480187         2    ;  uncertainty k = 0.356555
        14        15        16        17     9        0.000000       -0.213723         3    ;  uncertainty k = 0.302107
        14        15        16        17     9      180.000000        0.786315         4    ;  uncertainty k = 0.335466
        14        15        16        40     9        0.000000       -0.162996         1    ;  uncertainty k = 0.244564
        14        15        16        40     9      180.000000       11.002376         2    ;  uncertainty k = 0.216657
        14        15        16        40     9        0.000000        1.394471         3    ;  uncertainty k = 0.287042
        14        15        16        40     9      180.000000        1.583323         4    ;  uncertainty k = 0.169870
        15        14        11        37     9        0.000000        1.269472         1    ;  uncertainty k = 0.837827
        15        14        11        37     9      180.000000        2.067532         2    ;  uncertainty k = 0.608338
        15        14        11        37     9        0.000000        1.208102         3    ;  uncertainty k = 0.532703
        15        14        11        37     9      180.000000        0.096571         4    ;  uncertainty k = 0.215072
        15        14        13        18     9        0.000000       -0.706833         1    ;  uncertainty k = 0.684641
        15        14        13        18     9      180.000000        7.606582         2    ;  uncertainty k = 0.334024
        15        14        13        18     9        0.000000        0.144136         3    ;  uncertainty k = 0.309429
        15        14        13        18     9      180.000000        0.910966         4    ;  uncertainty k = 0.352736
        15        16        17        18     9        0.000000       -0.338036         1    ;  uncertainty k = 0.337143
        15        16        17        18     9      180.000000       11.066610         2    ;  uncertainty k = 0.368774
        15        16        17        18     9        0.000000       -0.486274         3    ;  uncertainty k = 0.431050
        15        16        17        18     9      180.000000        0.915685         4    ;  uncertainty k = 0.301678
        15        16        17        19     9        0.000000        0.309409         1    ;  uncertainty k = 0.338090
        15        16        17        19     9      180.000000        8.685456         2    ;  uncertainty k = 0.600813
        15        16        17        19     9        0.000000        1.302275         3    ;  uncertainty k = 0.420104
        15        16        17        19     9      180.000000        1.806136         4    ;  uncertainty k = 0.242347
        16        17        18        41     9        0.000000        0.255434         1    ;  uncertainty k = 0.332067
        16        17        18        41     9      180.000000        8.320365         2    ;  uncertainty k = 0.480036
        16        17        18        41     9        0.000000        1.477869         3    ;  uncertainty k = 0.227399
        16        17        18        41     9      180.000000        1.668731         4    ;  uncertainty k = 0.153873
        16        17        19        20     9        0.000000       -0.502648         1    ;  uncertainty k = 1.172516
        16        17        19        20     9      180.000000       -0.311487         2    ;  uncertainty k = 0.247766
        16        17        19        20     9        0.000000        0.789899         3    ;  uncertainty k = 0.241029
        16        17        19        20     9      180.000000        0.138126         4    ;  uncertainty k = 0.126498
        16        17        19        42     9        0.000000       -0.779480         1    ;  uncertainty k = 0.316160
        16        17        19        42     9      180.000000        1.643899         2    ;  uncertainty k = 0.203375
        16        17        19        42     9        0.000000        0.566007         3    ;  uncertainty k = 0.131158
        16        17        19        42     9      180.000000        0.097303         4    ;  uncertainty k = 0.092749
        16        17        19        43     9        0.000000       -0.779480         1    ;  uncertainty k = 0.316160
        16        17        19        43     9      180.000000        1.643899         2    ;  uncertainty k = 0.203375
        16        17        19        43     9        0.000000        0.566007         3    ;  uncertainty k = 0.131158
        16        17        19        43     9      180.000000        0.097303         4    ;  uncertainty k = 0.092749
        17        16        15        39     9        0.000000        0.062625         1    ;  uncertainty k = 0.188029
        17        16        15        39     9      180.000000        8.653029         2    ;  uncertainty k = 0.558389
        17        16        15        39     9        0.000000        1.424910         3    ;  uncertainty k = 0.169008
        17        16        15        39     9      180.000000        1.741614         4    ;  uncertainty k = 0.149464
        17        19        20        21     9        0.000000        0.228024         1    ;  uncertainty k = 1.306396
        17        19        20        21     9      180.000000       -0.094217         2    ;  uncertainty k = 0.261243
        17        19        20        21     9        0.000000        1.131702         3    ;  uncertainty k = 0.248749
        17        19        20        21     9      180.000000        0.011547         4    ;  uncertainty k = 0.094504
        17        19        20        25     9        0.000000        0.228024         1    ;  uncertainty k = 1.306396
        17        19        20        25     9      180.000000       -0.094217         2    ;  uncertainty k = 0.261243
        17        19        20        25     9        0.000000        1.131702         3    ;  uncertainty k = 0.248749
        17        19        20        25     9      180.000000        0.011547         4    ;  uncertainty k = 0.094504
        17        19        20        44     9        0.000000        1.154674         1    ;  uncertainty k = 1.040771
        17        19        20        44     9      180.000000       -0.124686         2    ;  uncertainty k = 0.522409
        17        19        20        44     9        0.000000        0.784931         3    ;  uncertainty k = 0.114049
        17        19        20        44     9      180.000000       -0.130874         4    ;  uncertainty k = 0.109286
        18        13        12        38     9        0.000000        0.461655         1    ;  uncertainty k = 0.985717
        18        13        12        38     9      180.000000        4.269004         2    ;  uncertainty k = 0.713269
        18        13        12        38     9        0.000000        1.295441         3    ;  uncertainty k = 0.311370
        18        13        12        38     9      180.000000        0.090060         4    ;  uncertainty k = 0.170435
        18        17        16        40     9        0.000000        0.085635         1    ;  uncertainty k = 0.380041
        18        17        16        40     9      180.000000        7.117360         2    ;  uncertainty k = 0.584951
        18        17        16        40     9        0.000000        1.371620         3    ;  uncertainty k = 0.155099
        18        17        16        40     9      180.000000        1.456083         4    ;  uncertainty k = 0.133603
        18        17        19        20     9        0.000000       -0.542129         1    ;  uncertainty k = 1.426110
        18        17        19        20     9      180.000000       -0.213649         2    ;  uncertainty k = 0.320963
        18        17        19        20     9        0.000000        0.492927         3    ;  uncertainty k = 0.186694
        18        17        19        20     9      180.000000        0.117443         4    ;  uncertainty k = 0.107545
        18        17        19        42     9        0.000000       -0.478151         1    ;  uncertainty k = 0.298124
        18        17        19        42     9      180.000000        1.736761         2    ;  uncertainty k = 0.361256
        18        17        19        42     9        0.000000        0.380981         3    ;  uncertainty k = 0.163856
        18        17        19        42     9      180.000000        0.078124         4    ;  uncertainty k = 0.111272
        18        17        19        43     9        0.000000       -0.478151         1    ;  uncertainty k = 0.298124
        18        17        19        43     9      180.000000        1.736761         2    ;  uncertainty k = 0.361256
        18        17        19        43     9        0.000000        0.380981         3    ;  uncertainty k = 0.163856
        18        17        19        43     9      180.000000        0.078124         4    ;  uncertainty k = 0.111272
        19        17        16        40     9        0.000000        0.122853         1    ;  uncertainty k = 0.462101
        19        17        16        40     9      180.000000        6.723881         2    ;  uncertainty k = 0.452487
        19        17        16        40     9        0.000000        0.764244         3    ;  uncertainty k = 0.258190
        19        17        16        40     9      180.000000        1.116906         4    ;  uncertainty k = 0.304850
        19        17        18        41     9        0.000000        0.097601         1    ;  uncertainty k = 0.277337
        19        17        18        41     9      180.000000        7.549729         2    ;  uncertainty k = 0.389850
        19        17        18        41     9        0.000000        0.959678         3    ;  uncertainty k = 0.304181
        19        17        18        41     9      180.000000        1.284138         4    ;  uncertainty k = 0.347818
        19        20        21        22     9        0.000000       -2.574566         1    ;  uncertainty k = 0.281796
        19        20        21        22     9      180.000000        0.479104         2    ;  uncertainty k = 0.475507
        19        20        21        22     9        0.000000        0.885379         3    ;  uncertainty k = 0.094303
        19        20        21        22     9      180.000000       -0.088547         4    ;  uncertainty k = 0.097600
        19        20        21        45     9        0.000000       -0.105984         1    ;  uncertainty k = 0.325338
        19        20        21        45     9      180.000000       -1.019772         2    ;  uncertainty k = 0.208597
        19        20        21        45     9        0.000000        0.825381         3    ;  uncertainty k = 0.098256
        19        20        21        45     9      180.000000       -0.051999         4    ;  uncertainty k = 0.047873
        19        20        21        46     9        0.000000       -0.105984         1    ;  uncertainty k = 0.325338
        19        20        21        46     9      180.000000       -1.019772         2    ;  uncertainty k = 0.208597
        19        20        21        46     9        0.000000        0.825381         3    ;  uncertainty k = 0.098256
        19        20        21        46     9      180.000000       -0.051999         4    ;  uncertainty k = 0.047873
        19        20        25        24     9        0.000000       -2.574566         1    ;  uncertainty k = 0.281796
        19        20        25        24     9      180.000000        0.479104         2    ;  uncertainty k = 0.475507
        19        20        25        24     9        0.000000        0.885379         3    ;  uncertainty k = 0.094303
        19        20        25        24     9      180.000000       -0.088547         4    ;  uncertainty k = 0.097600
        19        20        25        52     9        0.000000       -0.105984         1    ;  uncertainty k = 0.325338
        19        20        25        52     9      180.000000       -1.019772         2    ;  uncertainty k = 0.208597
        19        20        25        52     9        0.000000        0.825381         3    ;  uncertainty k = 0.098256
        19        20        25        52     9      180.000000       -0.051999         4    ;  uncertainty k = 0.047873
        19        20        25        53     9        0.000000       -0.105984         1    ;  uncertainty k = 0.325338
        19        20        25        53     9      180.000000       -1.019772         2    ;  uncertainty k = 0.208597
        19        20        25        53     9        0.000000        0.825381         3    ;  uncertainty k = 0.098256
        19        20        25        53     9      180.000000       -0.051999         4    ;  uncertainty k = 0.047873
        20        21        22        23     9        0.000000       -0.960043         1    ;  uncertainty k = 1.015404
        20        21        22        23     9      180.000000       -1.839615         2    ;  uncertainty k = 0.830077
        20        21        22        23     9        0.000000        1.912143         3    ;  uncertainty k = 0.244230
        20        21        22        23     9      180.000000       -0.904406         4    ;  uncertainty k = 0.229121
        20        21        22        47     9        0.000000       -0.583337         1    ;  uncertainty k = 0.759808
        20        21        22        47     9      180.000000       -1.764027         2    ;  uncertainty k = 0.462837
        20        21        22        47     9        0.000000        0.775149         3    ;  uncertainty k = 0.096083
        20        21        22        47     9      180.000000       -0.068994         4    ;  uncertainty k = 0.160962
        20        21        22        48     9        0.000000       -0.583337         1    ;  uncertainty k = 0.759808
        20        21        22        48     9      180.000000       -1.764027         2    ;  uncertainty k = 0.462837
        20        21        22        48     9        0.000000        0.775149         3    ;  uncertainty k = 0.096083
        20        21        22        48     9      180.000000       -0.068994         4    ;  uncertainty k = 0.160962
        20        25        24        23     9        0.000000       -0.960043         1    ;  uncertainty k = 1.015404
        20        25        24        23     9      180.000000       -1.839615         2    ;  uncertainty k = 0.830077
        20        25        24        23     9        0.000000        1.912143         3    ;  uncertainty k = 0.244230
        20        25        24        23     9      180.000000       -0.904406         4    ;  uncertainty k = 0.229121
        20        25        24        50     9        0.000000       -0.583337         1    ;  uncertainty k = 0.759808
        20        25        24        50     9      180.000000       -1.764027         2    ;  uncertainty k = 0.462837
        20        25        24        50     9        0.000000        0.775149         3    ;  uncertainty k = 0.096083
        20        25        24        50     9      180.000000       -0.068994         4    ;  uncertainty k = 0.160962
        20        25        24        51     9        0.000000       -0.583337         1    ;  uncertainty k = 0.759808
        20        25        24        51     9      180.000000       -1.764027         2    ;  uncertainty k = 0.462837
        20        25        24        51     9        0.000000        0.775149         3    ;  uncertainty k = 0.096083
        20        25        24        51     9      180.000000       -0.068994         4    ;  uncertainty k = 0.160962
        21        20        19        42     9        0.000000       -0.486273         1    ;  uncertainty k = 0.396482
        21        20        19        42     9      180.000000       -0.446871         2    ;  uncertainty k = 0.239801
        21        20        19        42     9        0.000000        0.889072         3    ;  uncertainty k = 0.185769
        21        20        19        42     9      180.000000       -0.057138         4    ;  uncertainty k = 0.158412
        21        20        19        43     9        0.000000       -0.486273         1    ;  uncertainty k = 0.396482
        21        20        19        43     9      180.000000       -0.446871         2    ;  uncertainty k = 0.239801
        21        20        19        43     9        0.000000        0.889072         3    ;  uncertainty k = 0.185769
        21        20        19        43     9      180.000000       -0.057138         4    ;  uncertainty k = 0.158412
        21        20        25        24     9        0.000000       -0.214545         1    ;  uncertainty k = 0.605913
        21        20        25        24     9      180.000000       -0.310706         2    ;  uncertainty k = 0.547554
        21        20        25        24     9        0.000000        0.727519         3    ;  uncertainty k = 0.267402
        21        20        25        24     9      180.000000       -0.360140         4    ;  uncertainty k = 0.313231
        21        20        25        52     9        0.000000       -0.325973         1    ;  uncertainty k = 0.679075
        21        20        25        52     9      180.000000       -0.892397         2    ;  uncertainty k = 0.294848
        21        20        25        52     9        0.000000        0.425327         3    ;  uncertainty k = 0.253460
        21        20        25        52     9      180.000000        0.013081         4    ;  uncertainty k = 0.187622
        21        20        25        53     9        0.000000       -0.325973         1    ;  uncertainty k = 0.679075
        21        20        25        53     9      180.000000       -0.892397         2    ;  uncertainty k = 0.294848
        21        20        25        53     9        0.000000        0.425327         3    ;  uncertainty k = 0.253460
        21        20        25        53     9      180.000000        0.013081         4    ;  uncertainty k = 0.187622
        21        22        23        24     9        0.000000       -7.024421         1    ;  uncertainty k = 1.282597
        21        22        23        24     9      180.000000        0.534974         2    ;  uncertainty k = 0.812259
        21        22        23        24     9        0.000000        1.706653         3    ;  uncertainty k = 0.095741
        21        22        23        24     9      180.000000       -1.004374         4    ;  uncertainty k = 0.160418
        21        22        23        27     9        0.000000       -1.564502         1    ;  uncertainty k = 0.555680
        21        22        23        27     9      180.000000       -0.696408         2    ;  uncertainty k = 0.204692
        21        22        23        27     9        0.000000        0.561736         3    ;  uncertainty k = 0.091502
        21        22        23        27     9      180.000000       -0.099846         4    ;  uncertainty k = 0.065184
        21        22        23        49     9        0.000000       -1.564502         1    ;  uncertainty k = 0.555680
        21        22        23        49     9      180.000000       -0.696408         2    ;  uncertainty k = 0.204692
        21        22        23        49     9        0.000000        0.561736         3    ;  uncertainty k = 0.091502
        21        22        23        49     9      180.000000       -0.099846         4    ;  uncertainty k = 0.065184
        22        21        20        25     9        0.000000       -0.214545         1    ;  uncertainty k = 0.605913
        22        21        20        25     9      180.000000       -0.310706         2    ;  uncertainty k = 0.547554
        22        21        20        25     9        0.000000        0.727519         3    ;  uncertainty k = 0.267402
        22        21        20        25     9      180.000000       -0.360140         4    ;  uncertainty k = 0.313231
        22        21        20        44     9        0.000000       -0.489044         1    ;  uncertainty k = 0.294494
        22        21        20        44     9      180.000000       -0.418723         2    ;  uncertainty k = 0.251138
        22        21        20        44     9        0.000000        0.374961         3    ;  uncertainty k = 0.183942
        22        21        20        44     9      180.000000       -0.122123         4    ;  uncertainty k = 0.077493
        22        23        24        25     9        0.000000       -7.024421         1    ;  uncertainty k = 1.282597
        22        23        24        25     9      180.000000        0.534974         2    ;  uncertainty k = 0.812259
        22        23        24        25     9        0.000000        1.706653         3    ;  uncertainty k = 0.095741
        22        23        24        25     9      180.000000       -1.004374         4    ;  uncertainty k = 0.160418
        22        23        24        50     9        0.000000       -1.731084         1    ;  uncertainty k = 0.118909
        22        23        24        50     9      180.000000       -0.275642         2    ;  uncertainty k = 0.205940
        22        23        24        50     9        0.000000        0.507808         3    ;  uncertainty k = 0.221376
        22        23        24        50     9      180.000000       -0.022493         4    ;  uncertainty k = 0.102359
        22        23        24        51     9        0.000000       -1.731084         1    ;  uncertainty k = 0.118909
        22        23        24        51     9      180.000000       -0.275642         2    ;  uncertainty k = 0.205940
        22        23        24        51     9        0.000000        0.507808         3    ;  uncertainty k = 0.221376
        22        23        24        51     9      180.000000       -0.022493         4    ;  uncertainty k = 0.102359
        23        22        21        45     9        0.000000       -0.255252         1    ;  uncertainty k = 0.641429
        23        22        21        45     9      180.000000       -0.702894         2    ;  uncertainty k = 0.251438
        23        22        21        45     9        0.000000        0.502590         3    ;  uncertainty k = 0.195279
        23        22        21        45     9      180.000000        0.108164         4    ;  uncertainty k = 0.079509
        23        22        21        46     9        0.000000       -0.255252         1    ;  uncertainty k = 0.641429
        23        22        21        46     9      180.000000       -0.702894         2    ;  uncertainty k = 0.251438
        23        22        21        46     9        0.000000        0.502590         3    ;  uncertainty k = 0.195279
        23        22        21        46     9      180.000000        0.108164         4    ;  uncertainty k = 0.079509
        23        24        25        52     9        0.000000       -0.255252         1    ;  uncertainty k = 0.641429
        23        24        25        52     9      180.000000       -0.702894         2    ;  uncertainty k = 0.251438
        23        24        25        52     9        0.000000        0.502590         3    ;  uncertainty k = 0.195279
        23        24        25        52     9      180.000000        0.108164         4    ;  uncertainty k = 0.079509
        23        24        25        53     9        0.000000       -0.255252         1    ;  uncertainty k = 0.641429
        23        24        25        53     9      180.000000       -0.702894         2    ;  uncertainty k = 0.251438
        23        24        25        53     9        0.000000        0.502590         3    ;  uncertainty k = 0.195279
        23        24        25        53     9      180.000000        0.108164         4    ;  uncertainty k = 0.079509
        24        23        22        47     9        0.000000       -1.731084         1    ;  uncertainty k = 0.118909
        24        23        22        47     9      180.000000       -0.275642         2    ;  uncertainty k = 0.205940
        24        23        22        47     9        0.000000        0.507808         3    ;  uncertainty k = 0.221376
        24        23        22        47     9      180.000000       -0.022493         4    ;  uncertainty k = 0.102359
        24        23        22        48     9        0.000000       -1.731084         1    ;  uncertainty k = 0.118909
        24        23        22        48     9      180.000000       -0.275642         2    ;  uncertainty k = 0.205940
        24        23        22        48     9        0.000000        0.507808         3    ;  uncertainty k = 0.221376
        24        23        22        48     9      180.000000       -0.022493         4    ;  uncertainty k = 0.102359
        24        25        20        44     9        0.000000       -0.489044         1    ;  uncertainty k = 0.294494
        24        25        20        44     9      180.000000       -0.418723         2    ;  uncertainty k = 0.251138
        24        25        20        44     9        0.000000        0.374961         3    ;  uncertainty k = 0.183942
        24        25        20        44     9      180.000000       -0.122123         4    ;  uncertainty k = 0.077493
        25        20        19        42     9        0.000000       -0.486273         1    ;  uncertainty k = 0.396482
        25        20        19        42     9      180.000000       -0.446871         2    ;  uncertainty k = 0.239801
        25        20        19        42     9        0.000000        0.889072         3    ;  uncertainty k = 0.185769
        25        20        19        42     9      180.000000       -0.057138         4    ;  uncertainty k = 0.158412
        25        20        19        43     9        0.000000       -0.486273         1    ;  uncertainty k = 0.396482
        25        20        19        43     9      180.000000       -0.446871         2    ;  uncertainty k = 0.239801
        25        20        19        43     9        0.000000        0.889072         3    ;  uncertainty k = 0.185769
        25        20        19        43     9      180.000000       -0.057138         4    ;  uncertainty k = 0.158412
        25        20        21        45     9        0.000000       -0.325973         1    ;  uncertainty k = 0.679075
        25        20        21        45     9      180.000000       -0.892397         2    ;  uncertainty k = 0.294848
        25        20        21        45     9        0.000000        0.425327         3    ;  uncertainty k = 0.253460
        25        20        21        45     9      180.000000        0.013081         4    ;  uncertainty k = 0.187622
        25        20        21        46     9        0.000000       -0.325973         1    ;  uncertainty k = 0.679075
        25        20        21        46     9      180.000000       -0.892397         2    ;  uncertainty k = 0.294848
        25        20        21        46     9        0.000000        0.425327         3    ;  uncertainty k = 0.253460
        25        20        21        46     9      180.000000        0.013081         4    ;  uncertainty k = 0.187622
        25        24        23        27     9        0.000000       -1.564502         1    ;  uncertainty k = 0.555680
        25        24        23        27     9      180.000000       -0.696408         2    ;  uncertainty k = 0.204692
        25        24        23        27     9        0.000000        0.561736         3    ;  uncertainty k = 0.091502
        25        24        23        27     9      180.000000       -0.099846         4    ;  uncertainty k = 0.065184
        25        24        23        49     9        0.000000       -1.564502         1    ;  uncertainty k = 0.555680
        25        24        23        49     9      180.000000       -0.696408         2    ;  uncertainty k = 0.204692
        25        24        23        49     9        0.000000        0.561736         3    ;  uncertainty k = 0.091502
        25        24        23        49     9      180.000000       -0.099846         4    ;  uncertainty k = 0.065184
        26         2         1        33     9        0.000000       -0.425598         1    ;  uncertainty k = 0.431767
        26         2         1        33     9      180.000000        6.878286         2    ;  uncertainty k = 0.463136
        26         2         1        33     9        0.000000        0.799768         3    ;  uncertainty k = 0.122075
        26         2         1        33     9      180.000000        1.045309         4    ;  uncertainty k = 0.260464
        26         2         3        34     9        0.000000       -0.174862         1    ;  uncertainty k = 0.086689
        26         2         3        34     9      180.000000        7.648893         2    ;  uncertainty k = 0.262896
        26         2         3        34     9        0.000000        0.878280         3    ;  uncertainty k = 0.155752
        26         2         3        34     9      180.000000        1.127866         4    ;  uncertainty k = 0.102829
        26        28        29        30     9        0.000000        0.000933         1    ;  uncertainty k = 0.156356
        26        28        29        30     9      180.000000       14.348073         2    ;  uncertainty k = 0.204807
        26        28        29        30     9        0.000000       -0.875070         3    ;  uncertainty k = 0.433802
        26        28        29        30     9      180.000000        0.675783         4    ;  uncertainty k = 0.258620
        26        28        29        55     9        0.000000        0.046199         1    ;  uncertainty k = 0.218019
        26        28        29        55     9      180.000000        7.791013         2    ;  uncertainty k = 0.345896
        26        28        29        55     9        0.000000        1.370563         3    ;  uncertainty k = 0.261650
        26        28        29        55     9      180.000000        1.852266         4    ;  uncertainty k = 0.179369
        26        32        31        30     9        0.000000        0.000933         1    ;  uncertainty k = 0.156356
        26        32        31        30     9      180.000000       14.348073         2    ;  uncertainty k = 0.204807
        26        32        31        30     9        0.000000       -0.875070         3    ;  uncertainty k = 0.433802
        26        32        31        30     9      180.000000        0.675783         4    ;  uncertainty k = 0.258620
        26        32        31        57     9        0.000000        0.046199         1    ;  uncertainty k = 0.218019
        26        32        31        57     9      180.000000        7.791013         2    ;  uncertainty k = 0.345896
        26        32        31        57     9        0.000000        1.370563         3    ;  uncertainty k = 0.261650
        26        32        31        57     9      180.000000        1.852266         4    ;  uncertainty k = 0.179369
        27        23        22        47     9        0.000000        2.065466         1    ;  uncertainty k = 0.581086
        27        23        22        47     9      180.000000        0.128238         2    ;  uncertainty k = 0.153427
        27        23        22        47     9        0.000000        0.323705         3    ;  uncertainty k = 0.122348
        27        23        22        47     9      180.000000        0.126782         4    ;  uncertainty k = 0.032762
        27        23        22        48     9        0.000000        2.065466         1    ;  uncertainty k = 0.581086
        27        23        22        48     9      180.000000        0.128238         2    ;  uncertainty k = 0.153427
        27        23        22        48     9        0.000000        0.323705         3    ;  uncertainty k = 0.122348
        27        23        22        48     9      180.000000        0.126782         4    ;  uncertainty k = 0.032762
        27        23        24        50     9        0.000000        2.065466         1    ;  uncertainty k = 0.581086
        27        23        24        50     9      180.000000        0.128238         2    ;  uncertainty k = 0.153427
        27        23        24        50     9        0.000000        0.323705         3    ;  uncertainty k = 0.122348
        27        23        24        50     9      180.000000        0.126782         4    ;  uncertainty k = 0.032762
        27        23        24        51     9        0.000000        2.065466         1    ;  uncertainty k = 0.581086
        27        23        24        51     9      180.000000        0.128238         2    ;  uncertainty k = 0.153427
        27        23        24        51     9        0.000000        0.323705         3    ;  uncertainty k = 0.122348
        27        23        24        51     9      180.000000        0.126782         4    ;  uncertainty k = 0.032762
        28        26        32        31     9        0.000000        0.051394         1    ;  uncertainty k = 0.095086
        28        26        32        31     9      180.000000       11.294127         2    ;  uncertainty k = 0.264470
        28        26        32        31     9        0.000000       -0.413719         3    ;  uncertainty k = 0.292995
        28        26        32        31     9      180.000000        0.858672         4    ;  uncertainty k = 0.259352
        28        26        32        58     9        0.000000        0.128347         1    ;  uncertainty k = 0.146608
        28        26        32        58     9      180.000000        6.920422         2    ;  uncertainty k = 0.538542
        28        26        32        58     9        0.000000        1.434757         3    ;  uncertainty k = 0.236137
        28        26        32        58     9      180.000000        1.617566         4    ;  uncertainty k = 0.236497
        28        29        30        31     9        0.000000       -0.011819         1    ;  uncertainty k = 0.082673
        28        29        30        31     9      180.000000       14.959790         2    ;  uncertainty k = 0.275382
        28        29        30        31     9        0.000000       -1.174929         3    ;  uncertainty k = 0.519825
        28        29        30        31     9      180.000000        0.529434         4    ;  uncertainty k = 0.279415
        28        29        30        56     9        0.000000        0.092236         1    ;  uncertainty k = 0.054385
        28        29        30        56     9      180.000000        7.487674         2    ;  uncertainty k = 0.326596
        28        29        30        56     9        0.000000        1.470892         3    ;  uncertainty k = 0.285834
        28        29        30        56     9      180.000000        1.795040         4    ;  uncertainty k = 0.140217
        29        28        26        32     9        0.000000        0.051394         1    ;  uncertainty k = 0.095086
        29        28        26        32     9      180.000000       11.294127         2    ;  uncertainty k = 0.264470
        29        28        26        32     9        0.000000       -0.413719         3    ;  uncertainty k = 0.292995
        29        28        26        32     9      180.000000        0.858672         4    ;  uncertainty k = 0.259352
        29        30        31        32     9        0.000000       -0.011819         1    ;  uncertainty k = 0.082673
        29        30        31        32     9      180.000000       14.959790         2    ;  uncertainty k = 0.275382
        29        30        31        32     9        0.000000       -1.174929         3    ;  uncertainty k = 0.519825
        29        30        31        32     9      180.000000        0.529434         4    ;  uncertainty k = 0.279415
        29        30        31        57     9        0.000000        0.072465         1    ;  uncertainty k = 0.048533
        29        30        31        57     9      180.000000        7.567595         2    ;  uncertainty k = 0.302860
        29        30        31        57     9        0.000000        1.437009         3    ;  uncertainty k = 0.328857
        29        30        31        57     9      180.000000        1.801943         4    ;  uncertainty k = 0.135710
        30        29        28        54     9        0.000000        0.072497         1    ;  uncertainty k = 0.109452
        30        29        28        54     9      180.000000        7.946726         2    ;  uncertainty k = 0.248017
        30        29        28        54     9        0.000000        1.422322         3    ;  uncertainty k = 0.289612
        30        29        28        54     9      180.000000        1.853764         4    ;  uncertainty k = 0.194918
        30        31        32        58     9        0.000000        0.072497         1    ;  uncertainty k = 0.109452
        30        31        32        58     9      180.000000        7.946726         2    ;  uncertainty k = 0.248017
        30        31        32        58     9        0.000000        1.422322         3    ;  uncertainty k = 0.289612
        30        31        32        58     9      180.000000        1.853764         4    ;  uncertainty k = 0.194918
        31        30        29        55     9        0.000000        0.072465         1    ;  uncertainty k = 0.048533
        31        30        29        55     9      180.000000        7.567595         2    ;  uncertainty k = 0.302860
        31        30        29        55     9        0.000000        1.437009         3    ;  uncertainty k = 0.328857
        31        30        29        55     9      180.000000        1.801943         4    ;  uncertainty k = 0.135710
        32        26        28        54     9        0.000000        0.128347         1    ;  uncertainty k = 0.146608
        32        26        28        54     9      180.000000        6.920422         2    ;  uncertainty k = 0.538542
        32        26        28        54     9        0.000000        1.434757         3    ;  uncertainty k = 0.236137
        32        26        28        54     9      180.000000        1.617566         4    ;  uncertainty k = 0.236497
        32        31        30        56     9        0.000000        0.092236         1    ;  uncertainty k = 0.054385
        32        31        30        56     9      180.000000        7.487674         2    ;  uncertainty k = 0.326596
        32        31        30        56     9        0.000000        1.470892         3    ;  uncertainty k = 0.285834
        32        31        30        56     9      180.000000        1.795040         4    ;  uncertainty k = 0.140217
        33         1         4        35     9        0.000000       -0.173580         1    ;  uncertainty k = 0.121100
        33         1         4        35     9      180.000000        8.183774         2    ;  uncertainty k = 0.315916
        33         1         4        35     9        0.000000       -0.193409         3    ;  uncertainty k = 0.244903
        33         1         4        35     9      180.000000        0.326162         4    ;  uncertainty k = 0.267989
        39        15        16        40     9        0.000000       -0.013045         1    ;  uncertainty k = 0.178040
        39        15        16        40     9      180.000000        7.749499         2    ;  uncertainty k = 0.110935
        39        15        16        40     9        0.000000       -0.170352         3    ;  uncertainty k = 0.227080
        39        15        16        40     9      180.000000        0.302639         4    ;  uncertainty k = 0.156541
        42        19        20        44     9        0.000000        0.633594         1    ;  uncertainty k = 0.761392
        42        19        20        44     9      180.000000       -0.469721         2    ;  uncertainty k = 0.224849
        42        19        20        44     9        0.000000        0.121846         3    ;  uncertainty k = 0.102010
        42        19        20        44     9      180.000000       -0.010722         4    ;  uncertainty k = 0.068107
        43        19        20        44     9        0.000000        0.633594         1    ;  uncertainty k = 0.761392
        43        19        20        44     9      180.000000       -0.469721         2    ;  uncertainty k = 0.224849
        43        19        20        44     9        0.000000        0.121846         3    ;  uncertainty k = 0.102010
        43        19        20        44     9      180.000000       -0.010722         4    ;  uncertainty k = 0.068107
        44        20        21        45     9        0.000000        0.505820         1    ;  uncertainty k = 0.508179
        44        20        21        45     9      180.000000       -0.445261         2    ;  uncertainty k = 0.343433
        44        20        21        45     9        0.000000        0.063530         3    ;  uncertainty k = 0.166996
        44        20        21        45     9      180.000000        0.024300         4    ;  uncertainty k = 0.084356
        44        20        21        46     9        0.000000        0.505820         1    ;  uncertainty k = 0.508179
        44        20        21        46     9      180.000000       -0.445261         2    ;  uncertainty k = 0.343433
        44        20        21        46     9        0.000000        0.063530         3    ;  uncertainty k = 0.166996
        44        20        21        46     9      180.000000        0.024300         4    ;  uncertainty k = 0.084356
        44        20        25        52     9        0.000000        0.505820         1    ;  uncertainty k = 0.508179
        44        20        25        52     9      180.000000       -0.445261         2    ;  uncertainty k = 0.343433
        44        20        25        52     9        0.000000        0.063530         3    ;  uncertainty k = 0.166996
        44        20        25        52     9      180.000000        0.024300         4    ;  uncertainty k = 0.084356
        44        20        25        53     9        0.000000        0.505820         1    ;  uncertainty k = 0.508179
        44        20        25        53     9      180.000000       -0.445261         2    ;  uncertainty k = 0.343433
        44        20        25        53     9        0.000000        0.063530         3    ;  uncertainty k = 0.166996
        44        20        25        53     9      180.000000        0.024300         4    ;  uncertainty k = 0.084356
        45        21        22        47     9        0.000000        0.353241         1    ;  uncertainty k = 0.247073
        45        21        22        47     9      180.000000        0.356302         2    ;  uncertainty k = 0.088459
        45        21        22        47     9        0.000000        0.281586         3    ;  uncertainty k = 0.082622
        45        21        22        47     9      180.000000       -0.046333         4    ;  uncertainty k = 0.052441
        45        21        22        48     9        0.000000        0.353241         1    ;  uncertainty k = 0.247073
        45        21        22        48     9      180.000000        0.356302         2    ;  uncertainty k = 0.088459
        45        21        22        48     9        0.000000        0.281586         3    ;  uncertainty k = 0.082622
        45        21        22        48     9      180.000000       -0.046333         4    ;  uncertainty k = 0.052441
        46        21        22        47     9        0.000000        0.353241         1    ;  uncertainty k = 0.247073
        46        21        22        47     9      180.000000        0.356302         2    ;  uncertainty k = 0.088459
        46        21        22        47     9        0.000000        0.281586         3    ;  uncertainty k = 0.082622
        46        21        22        47     9      180.000000       -0.046333         4    ;  uncertainty k = 0.052441
        46        21        22        48     9        0.000000        0.353241         1    ;  uncertainty k = 0.247073
        46        21        22        48     9      180.000000        0.356302         2    ;  uncertainty k = 0.088459
        46        21        22        48     9        0.000000        0.281586         3    ;  uncertainty k = 0.082622
        46        21        22        48     9      180.000000       -0.046333         4    ;  uncertainty k = 0.052441
        47        22        23        49     9        0.000000        2.065466         1    ;  uncertainty k = 0.581086
        47        22        23        49     9      180.000000        0.128238         2    ;  uncertainty k = 0.153427
        47        22        23        49     9        0.000000        0.323705         3    ;  uncertainty k = 0.122348
        47        22        23        49     9      180.000000        0.126782         4    ;  uncertainty k = 0.032762
        48        22        23        49     9        0.000000        2.065466         1    ;  uncertainty k = 0.581086
        48        22        23        49     9      180.000000        0.128238         2    ;  uncertainty k = 0.153427
        48        22        23        49     9        0.000000        0.323705         3    ;  uncertainty k = 0.122348
        48        22        23        49     9      180.000000        0.126782         4    ;  uncertainty k = 0.032762
        49        23        24        50     9        0.000000        2.065466         1    ;  uncertainty k = 0.581086
        49        23        24        50     9      180.000000        0.128238         2    ;  uncertainty k = 0.153427
        49        23        24        50     9        0.000000        0.323705         3    ;  uncertainty k = 0.122348
        49        23        24        50     9      180.000000        0.126782         4    ;  uncertainty k = 0.032762
        49        23        24        51     9        0.000000        2.065466         1    ;  uncertainty k = 0.581086
        49        23        24        51     9      180.000000        0.128238         2    ;  uncertainty k = 0.153427
        49        23        24        51     9        0.000000        0.323705         3    ;  uncertainty k = 0.122348
        49        23        24        51     9      180.000000        0.126782         4    ;  uncertainty k = 0.032762
        50        24        25        52     9        0.000000        0.353241         1    ;  uncertainty k = 0.247073
        50        24        25        52     9      180.000000        0.356302         2    ;  uncertainty k = 0.088459
        50        24        25        52     9        0.000000        0.281586         3    ;  uncertainty k = 0.082622
        50        24        25        52     9      180.000000       -0.046333         4    ;  uncertainty k = 0.052441
        50        24        25        53     9        0.000000        0.353241         1    ;  uncertainty k = 0.247073
        50        24        25        53     9      180.000000        0.356302         2    ;  uncertainty k = 0.088459
        50        24        25        53     9        0.000000        0.281586         3    ;  uncertainty k = 0.082622
        50        24        25        53     9      180.000000       -0.046333         4    ;  uncertainty k = 0.052441
        51        24        25        52     9        0.000000        0.353241         1    ;  uncertainty k = 0.247073
        51        24        25        52     9      180.000000        0.356302         2    ;  uncertainty k = 0.088459
        51        24        25        52     9        0.000000        0.281586         3    ;  uncertainty k = 0.082622
        51        24        25        52     9      180.000000       -0.046333         4    ;  uncertainty k = 0.052441
        51        24        25        53     9        0.000000        0.353241         1    ;  uncertainty k = 0.247073
        51        24        25        53     9      180.000000        0.356302         2    ;  uncertainty k = 0.088459
        51        24        25        53     9        0.000000        0.281586         3    ;  uncertainty k = 0.082622
        51        24        25        53     9      180.000000       -0.046333         4    ;  uncertainty k = 0.052441
        54        28        29        55     9        0.000000       -0.079316         1    ;  uncertainty k = 0.121215
        54        28        29        55     9      180.000000        7.787936         2    ;  uncertainty k = 0.320386
        54        28        29        55     9        0.000000       -0.487129         3    ;  uncertainty k = 0.280417
        54        28        29        55     9      180.000000        0.132642         4    ;  uncertainty k = 0.123861
        55        29        30        56     9        0.000000       -0.054064         1    ;  uncertainty k = 0.098598
        55        29        30        56     9      180.000000        7.627309         2    ;  uncertainty k = 0.408950
        55        29        30        56     9        0.000000       -0.419010         3    ;  uncertainty k = 0.294815
        55        29        30        56     9      180.000000        0.038054         4    ;  uncertainty k = 0.143388
        56        30        31        57     9        0.000000       -0.054064         1    ;  uncertainty k = 0.098598
        56        30        31        57     9      180.000000        7.627309         2    ;  uncertainty k = 0.408950
        56        30        31        57     9        0.000000       -0.419010         3    ;  uncertainty k = 0.294815
        56        30        31        57     9      180.000000        0.038054         4    ;  uncertainty k = 0.143388
        57        31        32        58     9        0.000000       -0.079316         1    ;  uncertainty k = 0.121215
        57        31        32        58     9      180.000000        7.787936         2    ;  uncertainty k = 0.320386
        57        31        32        58     9        0.000000       -0.487129         3    ;  uncertainty k = 0.280417
        57        31        32        58     9      180.000000        0.132642         4    ;  uncertainty k = 0.123861

[ dihedrals ] ; impropers
;       ai        aj        ak        al funct           phase               k        pn
         1         2         4        33     4      180.000000        2.886211         2    ;  uncertainty k = 0.237562
         1         4        33         2     4      180.000000        2.886211         2    ;  uncertainty k = 0.237562
         1        33         2         4     4      180.000000        2.886211         2    ;  uncertainty k = 0.237562
         2         1         3        26     4      180.000000       14.848315         2    ;  uncertainty k = 0.016278
         2         3        26         1     4      180.000000       14.848315         2    ;  uncertainty k = 0.016278
         2        26         1         3     4      180.000000       14.848315         2    ;  uncertainty k = 0.016278
         3         2         6        34     4      180.000000        2.386559         2    ;  uncertainty k = 0.302982
         3         6        34         2     4      180.000000        2.386559         2    ;  uncertainty k = 0.302982
         3        34         2         6     4      180.000000        2.386559         2    ;  uncertainty k = 0.302982
         4         1         5        35     4      180.000000        5.147940         2    ;  uncertainty k = 0.139188
         4         5        35         1     4      180.000000        5.147940         2    ;  uncertainty k = 0.139188
         4        35         1         5     4      180.000000        5.147940         2    ;  uncertainty k = 0.139188
         6         3         5         7     4      180.000000        1.497586         2    ;  uncertainty k = 0.910823
         6         5         7         3     4      180.000000        1.497586         2    ;  uncertainty k = 0.910823
         6         7         3         5     4      180.000000        1.497586         2    ;  uncertainty k = 0.910823
         9         5         8        10     4      180.000000        7.121418         2    ;  uncertainty k = 0.228151
         9         8        10         5     4      180.000000        7.121418         2    ;  uncertainty k = 0.228151
         9        10         5         8     4      180.000000        7.121418         2    ;  uncertainty k = 0.228151
        10         9        11        12     4      180.000000        6.131355         2    ;  uncertainty k = 0.374886
        10        11        12         9     4      180.000000        6.131355         2    ;  uncertainty k = 0.374886
        10        12         9        11     4      180.000000        6.131355         2    ;  uncertainty k = 0.374886
        12        10        13        38     4      180.000000        0.300082         2    ;  uncertainty k = 0.671004
        12        13        38        10     4      180.000000        0.300082         2    ;  uncertainty k = 0.671004
        12        38        10        13     4      180.000000        0.300082         2    ;  uncertainty k = 0.671004
        13        12        14        18     4      180.000000        0.203680         2    ;  uncertainty k = 0.447823
        13        14        18        12     4      180.000000        0.203680         2    ;  uncertainty k = 0.447823
        13        18        12        14     4      180.000000        0.203680         2    ;  uncertainty k = 0.447823
        14        11        13        15     4      180.000000        1.547994         2    ;  uncertainty k = 0.529255
        14        13        15        11     4      180.000000        1.547994         2    ;  uncertainty k = 0.529255
        14        15        11        13     4      180.000000        1.547994         2    ;  uncertainty k = 0.529255
        15        14        16        39     4      180.000000        3.328892         2    ;  uncertainty k = 0.304190
        15        16        39        14     4      180.000000        3.328892         2    ;  uncertainty k = 0.304190
        15        39        14        16     4      180.000000        3.328892         2    ;  uncertainty k = 0.304190
        16        15        17        40     4      180.000000        3.703974         2    ;  uncertainty k = 0.231890
        16        17        40        15     4      180.000000        3.703974         2    ;  uncertainty k = 0.231890
        16        40        15        17     4      180.000000        3.703974         2    ;  uncertainty k = 0.231890
        17        16        18        19     4      180.000000        8.046870         2    ;  uncertainty k = 0.338239
        17        18        19        16     4      180.000000        8.046870         2    ;  uncertainty k = 0.338239
        17        19        16        18     4      180.000000        8.046870         2    ;  uncertainty k = 0.338239
        18        13        17        41     4      180.000000        4.453195         2    ;  uncertainty k = 0.297877
        18        17        41        13     4      180.000000        4.453195         2    ;  uncertainty k = 0.297877
        18        41        13        17     4      180.000000        4.453195         2    ;  uncertainty k = 0.297877
        26         2        28        32     4      180.000000       14.216317         2    ;  uncertainty k = 0.073939
        26        28        32         2     4      180.000000       14.216317         2    ;  uncertainty k = 0.073939
        26        32         2        28     4      180.000000       14.216317         2    ;  uncertainty k = 0.073939
        28        26        29        54     4      180.000000        3.779119         2    ;  uncertainty k = 0.063335
        28        29        54        26     4      180.000000        3.779119         2    ;  uncertainty k = 0.063335
        28        54        26        29     4      180.000000        3.779119         2    ;  uncertainty k = 0.063335
        29        28        30        55     4      180.000000        4.101215         2    ;  uncertainty k = 0.085549
        29        30        55        28     4      180.000000        4.101215         2    ;  uncertainty k = 0.085549
        29        55        28        30     4      180.000000        4.101215         2    ;  uncertainty k = 0.085549
        30        29        31        56     4      180.000000        4.364182         2    ;  uncertainty k = 0.168222
        30        31        56        29     4      180.000000        4.364182         2    ;  uncertainty k = 0.168222
        30        56        29        31     4      180.000000        4.364182         2    ;  uncertainty k = 0.168222
        31        30        32        57     4      180.000000        4.101215         2    ;  uncertainty k = 0.085549
        31        32        57        30     4      180.000000        4.101215         2    ;  uncertainty k = 0.085549
        31        57        30        32     4      180.000000        4.101215         2    ;  uncertainty k = 0.085549
        32        26        31        58     4      180.000000        3.779118         2    ;  uncertainty k = 0.063334
        32        31        58        26     4      180.000000        3.779118         2    ;  uncertainty k = 0.063334
        32        58        26        31     4      180.000000        3.779118         2    ;  uncertainty k = 0.063334

[ pairs ]
;       ai        aj funct
         1         6     1
         1         9     1
         1        28     1
         1        32     1
         1        34     1
         2         5     1
         2         7     1
         2        29     1
         2        31     1
         2        35     1
         2        54     1
         2        58     1
         3         4     1
         3         8     1
         3         9     1
         3        28     1
         3        32     1
         3        33     1
         3        36     1
         4         7     1
         4         8     1
         4        10     1
         4        26     1
         5        11     1
         5        12     1
         5        33     1
         5        34     1
         5        36     1
         6        10     1
         6        26     1
         6        35     1
         7        10     1
         7        34     1
         8        11     1
         8        12     1
         9        13     1
         9        14     1
         9        35     1
         9        36     1
         9        37     1
         9        38     1
        10        15     1
        10        18     1
        11        16     1
        11        18     1
        11        38     1
        11        39     1
        12        15     1
        12        17     1
        12        37     1
        12        41     1
        13        16     1
        13        19     1
        13        37     1
        13        39     1
        14        17     1
        14        38     1
        14        40     1
        14        41     1
        15        18     1
        15        19     1
        15        37     1
        16        20     1
        16        41     1
        16        42     1
        16        43     1
        17        21     1
        17        25     1
        17        39     1
        17        44     1
        18        20     1
        18        38     1
        18        40     1
        18        42     1
        18        43     1
        19        22     1
        19        24     1
        19        40     1
        19        41     1
        19        45     1
        19        46     1
        19        52     1
        19        53     1
        20        23     1
        20        47     1
        20        48     1
        20        50     1
        20        51     1
        21        24     1
        21        27     1
        21        42     1
        21        43     1
        21        49     1
        21        52     1
        21        53     1
        22        25     1
        22        44     1
        22        50     1
        22        51     1
        23        45     1
        23        46     1
        23        52     1
        23        53     1
        24        44     1
        24        47     1
        24        48     1
        25        27     1
        25        42     1
        25        43     1
        25        45     1
        25        46     1
        25        49     1
        26        30     1
        26        33     1
        26        34     1
        26        55     1
        26        57     1
        27        47     1
        27        48     1
        27        50     1
        27        51     1
        28        31     1
        28        56     1
        28        58     1
        29        32     1
        29        57     1
        30        54     1
        30        58     1
        31        55     1
        32        54     1
        32        56     1
        33        35     1
        39        40     1
        42        44     1
        43        44     1
        44        45     1
        44        46     1
        44        52     1
        44        53     1
        45        47     1
        45        48     1
        46        47     1
        46        48     1
        47        49     1
        48        49     1
        49        50     1
        49        51     1
        50        52     1
        50        53     1
        51        52     1
        51        53     1
        54        55     1
        55        56     1
        56        57     1
        57        58     1
