; ITP file created by ByteFF-joint-25, 2025-07-14 11:38:23.515436

[ atomtypes ]
;name           bonded.type        at.num        mass        charge   ptype           sigma         epsilon
 c0bf                                   6      0.0000       0.00000       A     3.31519e-01     4.13403e-01    ;  uncertainty sigma = 0.000006, epsilon = 0.000630
 c1bf                                   6      0.0000       0.00000       A     3.31508e-01     4.13009e-01    ;  uncertainty sigma = 0.000010, epsilon = 0.000514
 c2bf                                   6      0.0000       0.00000       A     3.31512e-01     4.13252e-01    ;  uncertainty sigma = 0.000005, epsilon = 0.000828
 c3bf                                   6      0.0000       0.00000       A     3.31524e-01     4.13286e-01    ;  uncertainty sigma = 0.000008, epsilon = 0.000786
 c4bf                                   6      0.0000       0.00000       A     3.31521e-01     4.13336e-01    ;  uncertainty sigma = 0.000007, epsilon = 0.000639
 c5bf                                   6      0.0000       0.00000       A     3.31514e-01     4.12848e-01    ;  uncertainty sigma = 0.000013, epsilon = 0.001071
 n6bf                                   7      0.0000       0.00000       A     3.20633e-01     8.54017e-01    ;  uncertainty sigma = 0.000014, epsilon = 0.001832
 n7bf                                   7      0.0000       0.00000       A     3.38429e-01     3.93681e-01    ;  uncertainty sigma = 0.000012, epsilon = 0.000578
 c8bf                                   6      0.0000       0.00000       A     3.31525e-01     4.13030e-01    ;  uncertainty sigma = 0.000010, epsilon = 0.000939
 c9bf                                   6      0.0000       0.00000       A     3.31487e-01     4.13616e-01    ;  uncertainty sigma = 0.000020, epsilon = 0.001109
 n10bf                                  7      0.0000       0.00000       A     3.20612e-01     8.51418e-01    ;  uncertainty sigma = 0.000030, epsilon = 0.001559
 c11bf                                  6      0.0000       0.00000       A     3.31545e-01     4.13175e-01    ;  uncertainty sigma = 0.000004, epsilon = 0.000228
 c12bf                                  6      0.0000       0.00000       A     3.31513e-01     4.13679e-01    ;  uncertainty sigma = 0.000008, epsilon = 0.001038
 c13bf                                  6      0.0000       0.00000       A     3.31539e-01     4.13372e-01    ;  uncertainty sigma = 0.000002, epsilon = 0.000832
 c14bf                                  6      0.0000       0.00000       A     3.31510e-01     4.13227e-01    ;  uncertainty sigma = 0.000003, epsilon = 0.000744
 c15bf                                  6      0.0000       0.00000       A     3.31530e-01     4.13453e-01    ;  uncertainty sigma = 0.000012, epsilon = 0.000423
 c16bf                                  6      0.0000       0.00000       A     3.31639e-01     4.14074e-01    ;  uncertainty sigma = 0.000029, epsilon = 0.001725
 c17bf                                  6      0.0000       0.00000       A     3.31542e-01     4.13583e-01    ;  uncertainty sigma = 0.000009, epsilon = 0.000998
 c18bf                                  6      0.0000       0.00000       A     3.39773e-01     4.50389e-01    ;  uncertainty sigma = 0.000036, epsilon = 0.001493
 n19bf                                  7      0.0000       0.00000       A     2.58825e-01     1.06536e+01    ;  uncertainty sigma = 0.000048, epsilon = 0.001081
 c20bf                                  6      0.0000       0.00000       A     3.39751e-01     4.50843e-01    ;  uncertainty sigma = 0.000004, epsilon = 0.001025
 c21bf                                  6      0.0000       0.00000       A     3.39769e-01     4.50680e-01    ;  uncertainty sigma = 0.000010, epsilon = 0.000994
 c22bf                                  6      0.0000       0.00000       A     3.39785e-01     4.50582e-01    ;  uncertainty sigma = 0.000006, epsilon = 0.000924
 c23bf                                  6      0.0000       0.00000       A     3.39769e-01     4.50680e-01    ;  uncertainty sigma = 0.000010, epsilon = 0.000994
 c24bf                                  6      0.0000       0.00000       A     3.39751e-01     4.50843e-01    ;  uncertainty sigma = 0.000004, epsilon = 0.001025
 c25bf                                  6      0.0000       0.00000       A     3.31511e-01     4.13105e-01    ;  uncertainty sigma = 0.000005, epsilon = 0.000406
 h26bf                                  1      0.0000       0.00000       A     2.60047e-01     8.69055e-02    ;  uncertainty sigma = 0.000002, epsilon = 0.000829
 c27bf                                  6      0.0000       0.00000       A     3.31522e-01     4.13362e-01    ;  uncertainty sigma = 0.000008, epsilon = 0.000516
 c28bf                                  6      0.0000       0.00000       A     3.31532e-01     4.13574e-01    ;  uncertainty sigma = 0.000009, epsilon = 0.000603
 c29bf                                  6      0.0000       0.00000       A     3.31534e-01     4.13380e-01    ;  uncertainty sigma = 0.000013, epsilon = 0.001088
 c30bf                                  6      0.0000       0.00000       A     3.31520e-01     4.13549e-01    ;  uncertainty sigma = 0.000016, epsilon = 0.000733
 c31bf                                  6      0.0000       0.00000       A     3.31519e-01     4.13090e-01    ;  uncertainty sigma = 0.000006, epsilon = 0.000609
 o32bf                                  8      0.0000       0.00000       A     3.24277e-01     3.89052e-01    ;  uncertainty sigma = 0.000014, epsilon = 0.001765
 o33bf                                  8      0.0000       0.00000       A     3.15640e-01     3.04090e-01    ;  uncertainty sigma = 0.000018, epsilon = 0.001798
 c34bf                                  6      0.0000       0.00000       A     3.39774e-01     4.50890e-01    ;  uncertainty sigma = 0.000006, epsilon = 0.000513
 h35bf                                  1      0.0000       0.00000       A     2.62564e-01     6.70720e-02    ;  uncertainty sigma = 0.000011, epsilon = 0.000541
 h36bf                                  1      0.0000       0.00000       A     2.62583e-01     6.72256e-02    ;  uncertainty sigma = 0.000010, epsilon = 0.000425
 h37bf                                  1      0.0000       0.00000       A     2.62560e-01     6.68871e-02    ;  uncertainty sigma = 0.000013, epsilon = 0.000432
 h38bf                                  1      0.0000       0.00000       A     1.10655e-01     4.14032e-02    ;  uncertainty sigma = 0.000071, epsilon = 0.000793
 h39bf                                  1      0.0000       0.00000       A     1.10661e-01     4.09777e-02    ;  uncertainty sigma = 0.000073, epsilon = 0.000702
 h40bf                                  1      0.0000       0.00000       A     2.62548e-01     6.71074e-02    ;  uncertainty sigma = 0.000030, epsilon = 0.000235
 h41bf                                  1      0.0000       0.00000       A     2.62571e-01     6.70381e-02    ;  uncertainty sigma = 0.000008, epsilon = 0.000473
 h42bf                                  1      0.0000       0.00000       A     2.62577e-01     6.71749e-02    ;  uncertainty sigma = 0.000013, epsilon = 0.000695
 h43bf                                  1      0.0000       0.00000       A     2.62608e-01     6.70651e-02    ;  uncertainty sigma = 0.000010, epsilon = 0.000435
 h44bf                                  1      0.0000       0.00000       A     1.88839e-01     8.73239e-02    ;  uncertainty sigma = 0.000129, epsilon = 0.001577
 h45bf                                  1      0.0000       0.00000       A     1.88839e-01     8.73239e-02    ;  uncertainty sigma = 0.000129, epsilon = 0.001577
 h46bf                                  1      0.0000       0.00000       A     1.10649e-01     4.11876e-02    ;  uncertainty sigma = 0.000180, epsilon = 0.001021
 h47bf                                  1      0.0000       0.00000       A     1.88764e-01     8.66398e-02    ;  uncertainty sigma = 0.000088, epsilon = 0.000806
 h48bf                                  1      0.0000       0.00000       A     1.88764e-01     8.66398e-02    ;  uncertainty sigma = 0.000088, epsilon = 0.000806
 h49bf                                  1      0.0000       0.00000       A     2.60030e-01     8.66906e-02    ;  uncertainty sigma = 0.000008, epsilon = 0.000905
 h50bf                                  1      0.0000       0.00000       A     2.60030e-01     8.66906e-02    ;  uncertainty sigma = 0.000008, epsilon = 0.000905
 h51bf                                  1      0.0000       0.00000       A     2.60047e-01     8.69055e-02    ;  uncertainty sigma = 0.000002, epsilon = 0.000829
 h52bf                                  1      0.0000       0.00000       A     2.60030e-01     8.66906e-02    ;  uncertainty sigma = 0.000008, epsilon = 0.000905
 h53bf                                  1      0.0000       0.00000       A     2.60030e-01     8.66906e-02    ;  uncertainty sigma = 0.000008, epsilon = 0.000905
 h54bf                                  1      0.0000       0.00000       A     1.88764e-01     8.66398e-02    ;  uncertainty sigma = 0.000088, epsilon = 0.000806
 h55bf                                  1      0.0000       0.00000       A     1.88764e-01     8.66398e-02    ;  uncertainty sigma = 0.000088, epsilon = 0.000806
 h56bf                                  1      0.0000       0.00000       A     2.62569e-01     6.70400e-02    ;  uncertainty sigma = 0.000011, epsilon = 0.000552
 h57bf                                  1      0.0000       0.00000       A     2.62560e-01     6.69221e-02    ;  uncertainty sigma = 0.000014, epsilon = 0.000288
 h58bf                                  1      0.0000       0.00000       A     2.62568e-01     6.71955e-02    ;  uncertainty sigma = 0.000017, epsilon = 0.000627
 h59bf                                  1      0.0000       0.00000       A     5.38170e-02     1.92525e-02    ;  uncertainty sigma = 0.000105, epsilon = 0.001169
 h60bf                                  1      0.0000       0.00000       A     2.42205e-01     8.67537e-02    ;  uncertainty sigma = 0.000015, epsilon = 0.000624
 h61bf                                  1      0.0000       0.00000       A     2.42205e-01     8.67537e-02    ;  uncertainty sigma = 0.000015, epsilon = 0.000624
 h62bf                                  1      0.0000       0.00000       A     2.42205e-01     8.67537e-02    ;  uncertainty sigma = 0.000015, epsilon = 0.000624

[ moleculetype ]
;name             nrexcl
 MOL                   3

[ atoms ]
;       nr            type      resi   res      atom      cgnr      charge          mass ; qtot
         1            c0bf         1   UNL        c0         1    -0.15272       12.0110 ; qtot   -0.153
         2            c1bf         1   UNL        c1         2     0.00302       12.0110 ; qtot   -0.150
         3            c2bf         1   UNL        c2         3    -0.14100       12.0110 ; qtot   -0.291
         4            c3bf         1   UNL        c3         4    -0.05432       12.0110 ; qtot   -0.345
         5            c4bf         1   UNL        c4         5    -0.21134       12.0110 ; qtot   -0.556
         6            c5bf         1   UNL        c5         6    -0.02366       12.0110 ; qtot   -0.580
         7            n6bf         1   UNL        n6         7    -0.02491       14.0070 ; qtot   -0.605
         8            n7bf         1   UNL        n7         8    -0.50901       14.0070 ; qtot   -1.114
         9            c8bf         1   UNL        c8         9     0.42422       12.0110 ; qtot   -0.690
        10            c9bf         1   UNL        c9        10    -0.09297       12.0110 ; qtot   -0.783
        11           n10bf         1   UNL       n10        11    -0.17863       14.0070 ; qtot   -0.961
        12           c11bf         1   UNL       c11        12    -0.14624       12.0110 ; qtot   -1.108
        13           c12bf         1   UNL       c12        13    -0.09138       12.0110 ; qtot   -1.199
        14           c13bf         1   UNL       c13        14    -0.01122       12.0110 ; qtot   -1.210
        15           c14bf         1   UNL       c14        15    -0.11583       12.0110 ; qtot   -1.326
        16           c15bf         1   UNL       c15        16    -0.09384       12.0110 ; qtot   -1.420
        17           c16bf         1   UNL       c16        17    -0.21383       12.0110 ; qtot   -1.634
        18           c17bf         1   UNL       c17        18    -0.02211       12.0110 ; qtot   -1.656
        19           c18bf         1   UNL       c18        19     0.21948       12.0110 ; qtot   -1.436
        20           n19bf         1   UNL       n19        20    -0.72723       14.0070 ; qtot   -2.164
        21           c20bf         1   UNL       c20        21     0.13697       12.0110 ; qtot   -2.027
        22           c21bf         1   UNL       c21        22    -0.10564       12.0110 ; qtot   -2.132
        23           c22bf         1   UNL       c22        23    -0.08930       12.0110 ; qtot   -2.221
        24           c23bf         1   UNL       c23        24    -0.10564       12.0110 ; qtot   -2.327
        25           c24bf         1   UNL       c24        25     0.13697       12.0110 ; qtot   -2.190
        26           c25bf         1   UNL       c25        26    -0.04266       12.0110 ; qtot   -2.233
        27           h26bf         1   UNL       h26        27     0.07955        1.0080 ; qtot   -2.153
        28           c27bf         1   UNL       c27        28    -0.10113       12.0110 ; qtot   -2.254
        29           c28bf         1   UNL       c28        29    -0.16763       12.0110 ; qtot   -2.422
        30           c29bf         1   UNL       c29        30     0.11714       12.0110 ; qtot   -2.305
        31           c30bf         1   UNL       c30        31     0.05482       12.0110 ; qtot   -2.250
        32           c31bf         1   UNL       c31        32    -0.15175       12.0110 ; qtot   -2.402
        33           o32bf         1   UNL       o32        33    -0.49182       15.9990 ; qtot   -2.894
        34           o33bf         1   UNL       o33        34    -0.33955       15.9990 ; qtot   -3.233
        35           c34bf         1   UNL       c34        35     0.12267       12.0110 ; qtot   -3.111
        36           h35bf         1   UNL       h35        36     0.13640        1.0080 ; qtot   -2.974
        37           h36bf         1   UNL       h36        37     0.14190        1.0080 ; qtot   -2.832
        38           h37bf         1   UNL       h37        38     0.14866        1.0080 ; qtot   -2.684
        39           h38bf         1   UNL       h38        39     0.32966        1.0080 ; qtot   -2.354
        40           h39bf         1   UNL       h39        40     0.30972        1.0080 ; qtot   -2.044
        41           h40bf         1   UNL       h40        41     0.16185        1.0080 ; qtot   -1.882
        42           h41bf         1   UNL       h41        42     0.14571        1.0080 ; qtot   -1.737
        43           h42bf         1   UNL       h42        43     0.14052        1.0080 ; qtot   -1.596
        44           h43bf         1   UNL       h43        44     0.14264        1.0080 ; qtot   -1.453
        45           h44bf         1   UNL       h44        45     0.09817        1.0080 ; qtot   -1.355
        46           h45bf         1   UNL       h45        46     0.09817        1.0080 ; qtot   -1.257
        47           h46bf         1   UNL       h46        47     0.44618        1.0080 ; qtot   -0.811
        48           h47bf         1   UNL       h47        48     0.09706        1.0080 ; qtot   -0.714
        49           h48bf         1   UNL       h48        49     0.09706        1.0080 ; qtot   -0.617
        50           h49bf         1   UNL       h49        50     0.08728        1.0080 ; qtot   -0.530
        51           h50bf         1   UNL       h50        51     0.08728        1.0080 ; qtot   -0.442
        52           h51bf         1   UNL       h51        52     0.07955        1.0080 ; qtot   -0.363
        53           h52bf         1   UNL       h52        53     0.08728        1.0080 ; qtot   -0.275
        54           h53bf         1   UNL       h53        54     0.08728        1.0080 ; qtot   -0.188
        55           h54bf         1   UNL       h54        55     0.09706        1.0080 ; qtot   -0.091
        56           h55bf         1   UNL       h55        56     0.09706        1.0080 ; qtot    0.006
        57           h56bf         1   UNL       h56        57     0.14030        1.0080 ; qtot    0.146
        58           h57bf         1   UNL       h57        58     0.14540        1.0080 ; qtot    0.292
        59           h58bf         1   UNL       h58        59     0.14345        1.0080 ; qtot    0.435
        60           h59bf         1   UNL       h59        60     0.43477        1.0080 ; qtot    0.870
        61           h60bf         1   UNL       h60        61     0.04337        1.0080 ; qtot    0.913
        62           h61bf         1   UNL       h61        62     0.04337        1.0080 ; qtot    0.957
        63           h62bf         1   UNL       h62        63     0.04337        1.0080 ; qtot    1.000

[ bonds ]
;       ai        aj funct               r               k
         1         2     1        0.142267   329054.771045    ;  uncertainty r = 0.000085, k = 4.799028
         1         4     1        0.138578   363197.069092    ;  uncertainty r = 0.000056, k = 2.875228
         1        36     1        0.108799   335870.242480    ;  uncertainty r = 0.000025, k = 1.665909
         2         3     1        0.139143   352030.329590    ;  uncertainty r = 0.000043, k = 4.419361
         2        26     1        0.147990   275661.859375    ;  uncertainty r = 0.000064, k = 4.108747
         3         6     1        0.139921   362258.452637    ;  uncertainty r = 0.000052, k = 3.447613
         3        37     1        0.108873   335922.976611    ;  uncertainty r = 0.000022, k = 0.362364
         4         5     1        0.140374   356972.015625    ;  uncertainty r = 0.000046, k = 2.495094
         4        38     1        0.108685   334684.580029    ;  uncertainty r = 0.000029, k = 1.258601
         5         6     1        0.141661   396311.677246    ;  uncertainty r = 0.000082, k = 6.389209
         5         9     1        0.144344   226813.633838    ;  uncertainty r = 0.000038, k = 15.672375
         6         7     1        0.137597   296767.514160    ;  uncertainty r = 0.000017, k = 9.956782
         7         8     1        0.136140   293915.019043    ;  uncertainty r = 0.000066, k = 4.129785
         7        39     1        0.101078   415285.621826    ;  uncertainty r = 0.000031, k = 3.057821
         8         9     1        0.133460   447078.480273    ;  uncertainty r = 0.000096, k = 8.272837
         9        10     1        0.144794   289844.837939    ;  uncertainty r = 0.000097, k = 8.113485
        10        11     1        0.139278   314563.610645    ;  uncertainty r = 0.000138, k = 6.375764
        10        12     1        0.138557   411550.487598    ;  uncertainty r = 0.000054, k = 8.789488
        11        14     1        0.138425   328598.831494    ;  uncertainty r = 0.000062, k = 8.931475
        11        40     1        0.101173   411616.066895    ;  uncertainty r = 0.000057, k = 2.842789
        12        13     1        0.143692   255790.055566    ;  uncertainty r = 0.000105, k = 4.554133
        12        41     1        0.108254   339128.037061    ;  uncertainty r = 0.000025, k = 2.039581
        13        14     1        0.142749   371889.109473    ;  uncertainty r = 0.000072, k = 7.022474
        13        18     1        0.140315   369064.066748    ;  uncertainty r = 0.000085, k = 6.344517
        14        15     1        0.139681   367411.177344    ;  uncertainty r = 0.000052, k = 3.723678
        15        16     1        0.139020   366168.899121    ;  uncertainty r = 0.000059, k = 2.515093
        15        42     1        0.108877   336609.592871    ;  uncertainty r = 0.000015, k = 1.582506
        16        17     1        0.141750   334230.760059    ;  uncertainty r = 0.000211, k = 11.244450
        16        43     1        0.108854   333323.784082    ;  uncertainty r = 0.000014, k = 3.098911
        17        18     1        0.139748   350982.567529    ;  uncertainty r = 0.000152, k = 5.394295
        17        19     1        0.150103   226936.288574    ;  uncertainty r = 0.000114, k = 17.047802
        18        44     1        0.108909   332925.251953    ;  uncertainty r = 0.000037, k = 2.830692
        19        20     1        0.153660   179012.748999    ;  uncertainty r = 0.000327, k = 43.366644
        19        45     1        0.109181   310034.246777    ;  uncertainty r = 0.000035, k = 3.833353
        19        46     1        0.109181   310034.246777    ;  uncertainty r = 0.000035, k = 3.833353
        20        21     1        0.152169   180406.066455    ;  uncertainty r = 0.000049, k = 12.452743
        20        25     1        0.152169   180406.066455    ;  uncertainty r = 0.000049, k = 12.452743
        20        47     1        0.102586   390637.842285    ;  uncertainty r = 0.000036, k = 11.281185
        21        22     1        0.152834   209282.701929    ;  uncertainty r = 0.000028, k = 9.286892
        21        48     1        0.109144   310070.049805    ;  uncertainty r = 0.000010, k = 2.395423
        21        49     1        0.109144   310070.049805    ;  uncertainty r = 0.000010, k = 2.395423
        22        23     1        0.153701   218673.041797    ;  uncertainty r = 0.000042, k = 7.507755
        22        50     1        0.109502   309117.592236    ;  uncertainty r = 0.000018, k = 2.859548
        22        51     1        0.109502   309117.592236    ;  uncertainty r = 0.000018, k = 2.859548
        23        24     1        0.153701   218673.041797    ;  uncertainty r = 0.000042, k = 7.507755
        23        27     1        0.109462   308277.702246    ;  uncertainty r = 0.000013, k = 3.408438
        23        52     1        0.109462   308277.702246    ;  uncertainty r = 0.000013, k = 3.408438
        24        25     1        0.152834   209282.701929    ;  uncertainty r = 0.000028, k = 9.286892
        24        53     1        0.109502   309117.592236    ;  uncertainty r = 0.000018, k = 2.859548
        24        54     1        0.109502   309117.592236    ;  uncertainty r = 0.000018, k = 2.859548
        25        55     1        0.109144   310070.049805    ;  uncertainty r = 0.000010, k = 2.395423
        25        56     1        0.109144   310070.049805    ;  uncertainty r = 0.000010, k = 2.395423
        26        28     1        0.140024   349924.539551    ;  uncertainty r = 0.000078, k = 2.604019
        26        32     1        0.140503   350187.469629    ;  uncertainty r = 0.000099, k = 5.254370
        28        29     1        0.139193   370340.641309    ;  uncertainty r = 0.000040, k = 3.424579
        28        57     1        0.108721   334485.390576    ;  uncertainty r = 0.000022, k = 1.334227
        29        30     1        0.139339   369297.858984    ;  uncertainty r = 0.000053, k = 4.441979
        29        58     1        0.108866   336523.583887    ;  uncertainty r = 0.000038, k = 2.308786
        30        31     1        0.140199   349061.564014    ;  uncertainty r = 0.000088, k = 10.218646
        30        33     1        0.137418   339124.129883    ;  uncertainty r = 0.000111, k = 10.481772
        31        32     1        0.139090   348398.978174    ;  uncertainty r = 0.000055, k = 3.590744
        31        34     1        0.137145   326440.613770    ;  uncertainty r = 0.000132, k = 8.096354
        32        59     1        0.108727   338471.324756    ;  uncertainty r = 0.000019, k = 2.073757
        33        60     1        0.097402   458381.051660    ;  uncertainty r = 0.000026, k = 3.117747
        34        35     1        0.142484   249233.760254    ;  uncertainty r = 0.000032, k = 4.163573
        35        61     1        0.109559   311162.527344    ;  uncertainty r = 0.000020, k = 1.272522
        35        62     1        0.109559   311162.527344    ;  uncertainty r = 0.000020, k = 1.272522
        35        63     1        0.109559   311162.527344    ;  uncertainty r = 0.000020, k = 1.272522

[ angles ]
;       ai        aj        ak funct           theta             cth
         1         2         3     1      122.660362      418.763840    ;  uncertainty theta = 0.001767, k = 0.087268
         1         2        26     1      120.218750      414.260466    ;  uncertainty theta = 0.001650, k = 0.127217
         1         4         5     1      119.013161      537.374711    ;  uncertainty theta = 0.001558, k = 0.041052
         1         4        38     1      120.801682      285.543444    ;  uncertainty theta = 0.001219, k = 0.078841
         2         1         4     1      123.198746      529.035600    ;  uncertainty theta = 0.002318, k = 0.062881
         2         1        36     1      118.349693      281.754535    ;  uncertainty theta = 0.002350, k = 0.050051
         2         3         6     1      116.989967      520.055380    ;  uncertainty theta = 0.003966, k = 0.138290
         2         3        37     1      120.398827      272.563123    ;  uncertainty theta = 0.003159, k = 0.082558
         2        26        28     1      121.277199      410.814585    ;  uncertainty theta = 0.001006, k = 0.099392
         2        26        32     1      120.727745      407.794566    ;  uncertainty theta = 0.002174, k = 0.064317
         3         2        26     1      120.363503      410.159079    ;  uncertainty theta = 0.003905, k = 0.110399
         3         6         5     1      122.046066      374.602996    ;  uncertainty theta = 0.004557, k = 0.202435
         3         6         7     1      129.553024      393.538986    ;  uncertainty theta = 0.003175, k = 0.183890
         4         1        36     1      119.367615      298.664379    ;  uncertainty theta = 0.001912, k = 0.022777
         4         5         6     1      117.053284      397.409709    ;  uncertainty theta = 0.004436, k = 0.094169
         4         5         9     1      131.468643      363.666282    ;  uncertainty theta = 0.004087, k = 0.277423
         5         4        38     1      121.166893      280.622443    ;  uncertainty theta = 0.001242, k = 0.066104
         5         6         7     1      105.466660      657.348243    ;  uncertainty theta = 0.003923, k = 0.154050
         5         9         8     1      113.170639      813.299411    ;  uncertainty theta = 0.003643, k = 0.125162
         5         9        10     1      127.385788      329.630518    ;  uncertainty theta = 0.008535, k = 0.185215
         6         3        37     1      122.141174      295.789379    ;  uncertainty theta = 0.001560, k = 0.104857
         6         5         9     1      103.849319      752.131586    ;  uncertainty theta = 0.005867, k = 0.171212
         6         7         8     1      108.883446     1001.682773    ;  uncertainty theta = 0.003827, k = 0.032041
         6         7        39     1      116.095383      283.379110    ;  uncertainty theta = 0.006342, k = 0.112311
         7         8         9     1      109.050003      921.603250    ;  uncertainty theta = 0.003546, k = 0.164135
         8         7        39     1      108.269653      346.927983    ;  uncertainty theta = 0.005376, k = 0.074563
         8         9        10     1      120.762985      422.043699    ;  uncertainty theta = 0.004996, k = 0.118777
         9        10        11     1      119.132584      397.104668    ;  uncertainty theta = 0.005186, k = 0.178000
         9        10        12     1      128.640167      347.261370    ;  uncertainty theta = 0.004833, k = 0.168064
        10        11        14     1      106.165138      854.002691    ;  uncertainty theta = 0.002753, k = 0.085041
        10        11        40     1      116.293541      283.584141    ;  uncertainty theta = 0.006065, k = 0.113643
        10        12        13     1      107.187729      787.754258    ;  uncertainty theta = 0.002699, k = 0.072143
        10        12        41     1      123.161888      244.573158    ;  uncertainty theta = 0.003527, k = 0.152526
        11        10        12     1      111.264282      650.558244    ;  uncertainty theta = 0.002902, k = 0.165799
        11        14        13     1      108.242752      705.816974    ;  uncertainty theta = 0.002548, k = 0.146960
        11        14        15     1      129.553223      399.783192    ;  uncertainty theta = 0.001405, k = 0.079201
        12        13        14     1      106.846535      662.344706    ;  uncertainty theta = 0.001346, k = 0.176005
        12        13        18     1      132.347778      372.482490    ;  uncertainty theta = 0.003209, k = 0.146270
        13        12        41     1      124.819275      255.898052    ;  uncertainty theta = 0.003779, k = 0.072933
        13        14        15     1      119.718323      387.749499    ;  uncertainty theta = 0.002902, k = 0.065974
        13        18        17     1      119.763710      543.188936    ;  uncertainty theta = 0.005094, k = 0.209394
        13        18        44     1      120.935867      304.812789    ;  uncertainty theta = 0.002476, k = 0.040876
        14        11        40     1      116.981216      292.079827    ;  uncertainty theta = 0.005273, k = 0.076356
        14        13        18     1      116.553329      410.743879    ;  uncertainty theta = 0.005419, k = 0.156523
        14        15        16     1      117.036095      522.748204    ;  uncertainty theta = 0.003091, k = 0.092514
        14        15        42     1      122.463211      292.399360    ;  uncertainty theta = 0.001064, k = 0.070309
        15        16        17     1      123.551590      507.233644    ;  uncertainty theta = 0.008012, k = 0.030918
        15        16        43     1      119.046936      295.375869    ;  uncertainty theta = 0.001171, k = 0.111099
        16        15        42     1      120.796852      284.886821    ;  uncertainty theta = 0.001274, k = 0.066583
        16        17        18     1      124.084671      457.660305    ;  uncertainty theta = 0.007359, k = 0.143504
        16        17        19     1      118.705055      422.194495    ;  uncertainty theta = 0.000610, k = 0.181631
        17        16        43     1      118.020508      280.232140    ;  uncertainty theta = 0.003100, k = 0.193177
        17        18        44     1      119.015297      275.001023    ;  uncertainty theta = 0.004327, k = 0.205861
        17        19        20     1      112.946289      641.268802    ;  uncertainty theta = 0.003207, k = 0.126515
        17        19        45     1      109.866928      412.643393    ;  uncertainty theta = 0.002504, k = 0.135953
        17        19        46     1      109.866928      412.643393    ;  uncertainty theta = 0.002504, k = 0.135953
        18        17        19     1      118.955978      424.704857    ;  uncertainty theta = 0.002486, k = 0.075248
        19        20        21     1      111.988121      601.199098    ;  uncertainty theta = 0.006579, k = 0.139305
        19        20        25     1      111.988121      601.199098    ;  uncertainty theta = 0.006579, k = 0.139305
        19        20        47     1      106.858643      436.715726    ;  uncertainty theta = 0.004999, k = 0.136174
        20        19        45     1      105.880051      451.368249    ;  uncertainty theta = 0.004585, k = 0.191421
        20        19        46     1      105.880051      451.368249    ;  uncertainty theta = 0.004585, k = 0.191421
        20        21        22     1      110.708633      722.998277    ;  uncertainty theta = 0.001865, k = 0.132970
        20        21        48     1      106.218994      468.717554    ;  uncertainty theta = 0.002324, k = 0.085258
        20        21        49     1      106.218994      468.717554    ;  uncertainty theta = 0.002324, k = 0.085258
        20        25        24     1      110.708633      722.998277    ;  uncertainty theta = 0.001865, k = 0.132970
        20        25        55     1      106.218994      468.717554    ;  uncertainty theta = 0.002324, k = 0.085258
        20        25        56     1      106.218994      468.717554    ;  uncertainty theta = 0.002324, k = 0.085258
        21        20        25     1      111.821800      644.923226    ;  uncertainty theta = 0.001949, k = 0.259168
        21        20        47     1      106.543808      448.844735    ;  uncertainty theta = 0.004117, k = 0.223667
        21        22        23     1      109.790810      624.479174    ;  uncertainty theta = 0.004250, k = 0.083823
        21        22        50     1      107.363419      408.221227    ;  uncertainty theta = 0.002020, k = 0.076477
        21        22        51     1      107.363419      408.221227    ;  uncertainty theta = 0.002020, k = 0.076477
        22        21        48     1      111.185471      418.063421    ;  uncertainty theta = 0.001992, k = 0.101180
        22        21        49     1      111.185471      418.063421    ;  uncertainty theta = 0.001992, k = 0.101180
        22        23        24     1      108.999069      633.635057    ;  uncertainty theta = 0.005549, k = 0.186389
        22        23        27     1      108.669968      407.572266    ;  uncertainty theta = 0.002054, k = 0.047913
        22        23        52     1      108.669968      407.572266    ;  uncertainty theta = 0.002054, k = 0.047913
        23        22        50     1      109.402649      408.624746    ;  uncertainty theta = 0.001844, k = 0.027594
        23        22        51     1      109.402649      408.624746    ;  uncertainty theta = 0.001844, k = 0.027594
        23        24        25     1      109.790810      624.479174    ;  uncertainty theta = 0.004250, k = 0.083823
        23        24        53     1      109.402649      408.624746    ;  uncertainty theta = 0.001844, k = 0.027594
        23        24        54     1      109.402649      408.624746    ;  uncertainty theta = 0.001844, k = 0.027594
        24        23        27     1      108.669968      407.572266    ;  uncertainty theta = 0.002054, k = 0.047913
        24        23        52     1      108.669968      407.572266    ;  uncertainty theta = 0.002054, k = 0.047913
        24        25        55     1      111.185471      418.063421    ;  uncertainty theta = 0.001992, k = 0.101180
        24        25        56     1      111.185471      418.063421    ;  uncertainty theta = 0.001992, k = 0.101180
        25        20        47     1      106.543808      448.844735    ;  uncertainty theta = 0.004117, k = 0.223667
        25        24        53     1      107.363419      408.221227    ;  uncertainty theta = 0.002020, k = 0.076477
        25        24        54     1      107.363419      408.221227    ;  uncertainty theta = 0.002020, k = 0.076477
        26        28        29     1      120.639259      519.986302    ;  uncertainty theta = 0.001398, k = 0.085094
        26        28        57     1      119.173683      277.580782    ;  uncertainty theta = 0.001473, k = 0.079755
        26        32        31     1      122.328712      513.111584    ;  uncertainty theta = 0.002037, k = 0.199998
        26        32        59     1      119.080360      272.006829    ;  uncertainty theta = 0.002538, k = 0.076848
        27        23        52     1      104.130638      320.035651    ;  uncertainty theta = 0.002967, k = 0.052617
        28        26        32     1      120.674767      425.017240    ;  uncertainty theta = 0.003859, k = 0.125044
        28        29        30     1      119.425148      517.731439    ;  uncertainty theta = 0.003127, k = 0.134852
        28        29        58     1      121.368958      277.666554    ;  uncertainty theta = 0.001626, k = 0.049264
        29        28        57     1      119.859535      290.426841    ;  uncertainty theta = 0.001356, k = 0.068554
        29        30        31     1      118.985268      367.764828    ;  uncertainty theta = 0.007592, k = 0.076145
        29        30        33     1      121.543533      480.467274    ;  uncertainty theta = 0.003915, k = 0.195683
        30        29        58     1      119.191452      287.448353    ;  uncertainty theta = 0.002533, k = 0.085751
        30        31        32     1      122.030411      390.136868    ;  uncertainty theta = 0.004928, k = 0.144745
        30        31        34     1      115.346458      362.342151    ;  uncertainty theta = 0.005171, k = 0.171066
        30        33        60     1      110.793457      497.971494    ;  uncertainty theta = 0.001958, k = 0.085121
        31        30        33     1      122.592735      673.877009    ;  uncertainty theta = 0.004203, k = 0.274798
        31        32        59     1      117.321426      273.026557    ;  uncertainty theta = 0.001599, k = 0.087435
        31        34        35     1      111.019348      515.271258    ;  uncertainty theta = 0.001127, k = 0.070748
        32        31        34     1      121.235107      439.897905    ;  uncertainty theta = 0.002314, k = 0.111297
        34        35        61     1      108.965004      447.334981    ;  uncertainty theta = 0.001257, k = 0.029670
        34        35        62     1      108.965004      447.334981    ;  uncertainty theta = 0.001257, k = 0.029670
        34        35        63     1      108.965004      447.334981    ;  uncertainty theta = 0.001257, k = 0.029670
        45        19        46     1      106.646156      319.393074    ;  uncertainty theta = 0.003403, k = 0.028629
        48        21        49     1      107.461449      325.817508    ;  uncertainty theta = 0.003055, k = 0.044212
        50        22        51     1      104.866112      316.124707    ;  uncertainty theta = 0.003395, k = 0.053955
        53        24        54     1      104.866112      316.124707    ;  uncertainty theta = 0.003395, k = 0.053955
        55        25        56     1      107.461449      325.817508    ;  uncertainty theta = 0.003055, k = 0.044212
        61        35        62     1      109.159256      331.008628    ;  uncertainty theta = 0.001734, k = 0.015290
        61        35        63     1      109.159256      331.008628    ;  uncertainty theta = 0.001734, k = 0.015290
        62        35        63     1      109.159256      331.008628    ;  uncertainty theta = 0.001734, k = 0.015290

[ dihedrals ] ; propers for gromacs 4.5 or higher, use funct 9
;       ai        aj        ak        al funct           phase               k        pn
         1         2         3         6     9        0.000000        0.215719         1    ;  uncertainty k = 0.184162
         1         2         3         6     9      180.000000       14.756566         2    ;  uncertainty k = 0.320157
         1         2         3         6     9        0.000000        0.129483         3    ;  uncertainty k = 0.312784
         1         2         3         6     9      180.000000        0.746574         4    ;  uncertainty k = 0.387462
         1         2         3        37     9        0.000000        0.372972         1    ;  uncertainty k = 0.171393
         1         2         3        37     9      180.000000        8.093415         2    ;  uncertainty k = 0.606445
         1         2         3        37     9        0.000000        1.560014         3    ;  uncertainty k = 0.145473
         1         2         3        37     9      180.000000        1.673411         4    ;  uncertainty k = 0.259143
         1         2        26        28     9        0.000000       -0.304298         1    ;  uncertainty k = 0.408760
         1         2        26        28     9      180.000000        4.243415         2    ;  uncertainty k = 0.176702
         1         2        26        28     9        0.000000        0.337386         3    ;  uncertainty k = 0.109182
         1         2        26        28     9      180.000000       -0.026924         4    ;  uncertainty k = 0.052095
         1         2        26        32     9        0.000000       -0.131691         1    ;  uncertainty k = 0.300705
         1         2        26        32     9      180.000000        4.373782         2    ;  uncertainty k = 0.130286
         1         2        26        32     9        0.000000        0.343074         3    ;  uncertainty k = 0.089138
         1         2        26        32     9      180.000000        0.057880         4    ;  uncertainty k = 0.054062
         1         4         5         6     9        0.000000        0.086262         1    ;  uncertainty k = 0.389832
         1         4         5         6     9      180.000000       13.583600         2    ;  uncertainty k = 0.304127
         1         4         5         6     9        0.000000       -1.924975         3    ;  uncertainty k = 0.667032
         1         4         5         6     9      180.000000        0.678072         4    ;  uncertainty k = 0.326080
         1         4         5         9     9        0.000000        0.241301         1    ;  uncertainty k = 0.369933
         1         4         5         9     9      180.000000        8.677489         2    ;  uncertainty k = 0.450874
         1         4         5         9     9        0.000000        0.628971         3    ;  uncertainty k = 0.436007
         1         4         5         9     9      180.000000        1.306414         4    ;  uncertainty k = 0.110243
         2         1         4         5     9        0.000000       -0.022995         1    ;  uncertainty k = 0.261551
         2         1         4         5     9      180.000000       16.225191         2    ;  uncertainty k = 0.283995
         2         1         4         5     9        0.000000       -0.308678         3    ;  uncertainty k = 0.530735
         2         1         4         5     9      180.000000        0.763372         4    ;  uncertainty k = 0.325780
         2         1         4        38     9        0.000000        0.006230         1    ;  uncertainty k = 0.236776
         2         1         4        38     9      180.000000        9.012894         2    ;  uncertainty k = 0.385256
         2         1         4        38     9        0.000000        1.386088         3    ;  uncertainty k = 0.254841
         2         1         4        38     9      180.000000        1.902997         4    ;  uncertainty k = 0.354257
         2         3         6         5     9        0.000000       -0.105799         1    ;  uncertainty k = 0.291778
         2         3         6         5     9      180.000000       11.988287         2    ;  uncertainty k = 0.276529
         2         3         6         5     9        0.000000       -1.208947         3    ;  uncertainty k = 0.439213
         2         3         6         5     9      180.000000        0.790053         4    ;  uncertainty k = 0.189665
         2         3         6         7     9        0.000000        0.083709         1    ;  uncertainty k = 0.182895
         2         3         6         7     9      180.000000       10.260123         2    ;  uncertainty k = 0.728950
         2         3         6         7     9        0.000000        0.880397         3    ;  uncertainty k = 0.250126
         2         3         6         7     9      180.000000        1.234763         4    ;  uncertainty k = 0.429908
         2        26        28        29     9        0.000000        0.003301         1    ;  uncertainty k = 0.274213
         2        26        28        29     9      180.000000        8.512239         2    ;  uncertainty k = 0.438047
         2        26        28        29     9        0.000000        1.215534         3    ;  uncertainty k = 0.376237
         2        26        28        29     9      180.000000        1.791199         4    ;  uncertainty k = 0.122521
         2        26        28        57     9        0.000000       -0.259449         1    ;  uncertainty k = 0.353621
         2        26        28        57     9      180.000000        6.896533         2    ;  uncertainty k = 0.407901
         2        26        28        57     9        0.000000        0.821373         3    ;  uncertainty k = 0.196712
         2        26        28        57     9      180.000000        1.115735         4    ;  uncertainty k = 0.199941
         2        26        32        31     9        0.000000       -0.066417         1    ;  uncertainty k = 0.226994
         2        26        32        31     9      180.000000        8.283470         2    ;  uncertainty k = 0.374140
         2        26        32        31     9        0.000000        1.240090         3    ;  uncertainty k = 0.298392
         2        26        32        31     9      180.000000        1.654946         4    ;  uncertainty k = 0.087503
         2        26        32        59     9        0.000000       -0.348864         1    ;  uncertainty k = 0.432539
         2        26        32        59     9      180.000000        6.962272         2    ;  uncertainty k = 0.334614
         2        26        32        59     9        0.000000        0.765682         3    ;  uncertainty k = 0.160500
         2        26        32        59     9      180.000000        1.073782         4    ;  uncertainty k = 0.265131
         3         2         1         4     9        0.000000       -0.077856         1    ;  uncertainty k = 0.202248
         3         2         1         4     9      180.000000        8.756368         2    ;  uncertainty k = 0.458305
         3         2         1         4     9        0.000000       -0.029500         3    ;  uncertainty k = 0.435260
         3         2         1         4     9      180.000000        1.053017         4    ;  uncertainty k = 0.302482
         3         2         1        36     9        0.000000       -0.143583         1    ;  uncertainty k = 0.202124
         3         2         1        36     9      180.000000        6.223345         2    ;  uncertainty k = 0.690433
         3         2         1        36     9        0.000000        1.249350         3    ;  uncertainty k = 0.201824
         3         2         1        36     9      180.000000        1.471530         4    ;  uncertainty k = 0.224955
         3         2        26        28     9        0.000000       -0.355697         1    ;  uncertainty k = 0.405325
         3         2        26        28     9      180.000000        4.076484         2    ;  uncertainty k = 0.251181
         3         2        26        28     9        0.000000        0.399235         3    ;  uncertainty k = 0.117407
         3         2        26        28     9      180.000000       -0.056525         4    ;  uncertainty k = 0.037288
         3         2        26        32     9        0.000000       -0.232262         1    ;  uncertainty k = 0.378377
         3         2        26        32     9      180.000000        4.178080         2    ;  uncertainty k = 0.176969
         3         2        26        32     9        0.000000        0.367470         3    ;  uncertainty k = 0.150144
         3         2        26        32     9      180.000000        0.028115         4    ;  uncertainty k = 0.065208
         3         6         5         4     9        0.000000       -0.661370         1    ;  uncertainty k = 0.860854
         3         6         5         4     9      180.000000        7.352822         2    ;  uncertainty k = 0.441050
         3         6         5         4     9        0.000000        0.178338         3    ;  uncertainty k = 0.170450
         3         6         5         4     9      180.000000        1.010737         4    ;  uncertainty k = 0.356584
         3         6         5         9     9        0.000000        0.036862         1    ;  uncertainty k = 0.411824
         3         6         5         9     9      180.000000        7.094024         2    ;  uncertainty k = 0.414257
         3         6         5         9     9        0.000000        0.227535         3    ;  uncertainty k = 0.369291
         3         6         5         9     9      180.000000        1.312472         4    ;  uncertainty k = 0.381005
         3         6         7         8     9        0.000000        1.009595         1    ;  uncertainty k = 0.726740
         3         6         7         8     9      180.000000        6.947436         2    ;  uncertainty k = 0.237885
         3         6         7         8     9        0.000000        0.736030         3    ;  uncertainty k = 0.416576
         3         6         7         8     9      180.000000        0.304594         4    ;  uncertainty k = 0.233720
         3         6         7        39     9        0.000000        2.152293         1    ;  uncertainty k = 1.099967
         3         6         7        39     9      180.000000        1.599165         2    ;  uncertainty k = 0.775577
         3         6         7        39     9        0.000000        1.294625         3    ;  uncertainty k = 0.538678
         3         6         7        39     9      180.000000        0.130290         4    ;  uncertainty k = 0.132069
         4         1         2        26     9        0.000000        0.050882         1    ;  uncertainty k = 0.263143
         4         1         2        26     9      180.000000        7.418755         2    ;  uncertainty k = 0.733581
         4         1         2        26     9        0.000000        1.148823         3    ;  uncertainty k = 0.484627
         4         1         2        26     9      180.000000        1.708448         4    ;  uncertainty k = 0.192959
         4         5         6         7     9        0.000000       -0.070400         1    ;  uncertainty k = 0.515551
         4         5         6         7     9      180.000000        8.373331         2    ;  uncertainty k = 0.217138
         4         5         6         7     9        0.000000       -0.199801         3    ;  uncertainty k = 0.477250
         4         5         6         7     9      180.000000        1.225440         4    ;  uncertainty k = 0.359652
         4         5         9         8     9        0.000000        0.888958         1    ;  uncertainty k = 0.442925
         4         5         9         8     9      180.000000        6.415715         2    ;  uncertainty k = 0.526534
         4         5         9         8     9        0.000000        0.397391         3    ;  uncertainty k = 0.250640
         4         5         9         8     9      180.000000        0.940986         4    ;  uncertainty k = 0.227664
         4         5         9        10     9        0.000000        0.174202         1    ;  uncertainty k = 1.156995
         4         5         9        10     9      180.000000        4.824191         2    ;  uncertainty k = 1.279426
         4         5         9        10     9        0.000000        1.385011         3    ;  uncertainty k = 0.178513
         4         5         9        10     9      180.000000        0.062332         4    ;  uncertainty k = 0.259563
         5         4         1        36     9        0.000000        0.110361         1    ;  uncertainty k = 0.292138
         5         4         1        36     9      180.000000       10.983896         2    ;  uncertainty k = 0.325102
         5         4         1        36     9        0.000000        1.534774         3    ;  uncertainty k = 0.308268
         5         4         1        36     9      180.000000        1.824448         4    ;  uncertainty k = 0.307649
         5         6         3        37     9        0.000000        0.120525         1    ;  uncertainty k = 0.314814
         5         6         3        37     9      180.000000        6.660715         2    ;  uncertainty k = 1.291145
         5         6         3        37     9        0.000000        1.372398         3    ;  uncertainty k = 0.164407
         5         6         3        37     9      180.000000        1.139857         4    ;  uncertainty k = 0.394124
         5         6         7         8     9        0.000000        0.356408         1    ;  uncertainty k = 0.427693
         5         6         7         8     9      180.000000       17.655196         2    ;  uncertainty k = 1.156207
         5         6         7         8     9        0.000000       -8.132787         3    ;  uncertainty k = 1.199650
         5         6         7         8     9      180.000000        0.686514         4    ;  uncertainty k = 0.522117
         5         6         7        39     9        0.000000        4.418445         1    ;  uncertainty k = 1.643922
         5         6         7        39     9      180.000000        5.757738         2    ;  uncertainty k = 1.284735
         5         6         7        39     9        0.000000        1.361558         3    ;  uncertainty k = 0.233334
         5         6         7        39     9      180.000000        0.062872         4    ;  uncertainty k = 0.145235
         5         9         8         7     9        0.000000       -0.152410         1    ;  uncertainty k = 0.525464
         5         9         8         7     9      180.000000       23.104001         2    ;  uncertainty k = 0.271510
         5         9         8         7     9        0.000000       -3.592681         3    ;  uncertainty k = 0.895745
         5         9         8         7     9      180.000000        2.077007         4    ;  uncertainty k = 0.558825
         5         9        10        11     9        0.000000        1.908778         1    ;  uncertainty k = 0.996478
         5         9        10        11     9      180.000000        2.851359         2    ;  uncertainty k = 0.313488
         5         9        10        11     9        0.000000        0.907149         3    ;  uncertainty k = 0.214446
         5         9        10        11     9      180.000000       -0.068309         4    ;  uncertainty k = 0.130633
         5         9        10        12     9        0.000000        0.291783         1    ;  uncertainty k = 0.985958
         5         9        10        12     9      180.000000        2.345366         2    ;  uncertainty k = 0.290524
         5         9        10        12     9        0.000000        0.480589         3    ;  uncertainty k = 0.177212
         5         9        10        12     9      180.000000        0.002386         4    ;  uncertainty k = 0.098834
         6         3         2        26     9        0.000000        0.178494         1    ;  uncertainty k = 0.365348
         6         3         2        26     9      180.000000       12.015196         2    ;  uncertainty k = 0.773804
         6         3         2        26     9        0.000000        1.482525         3    ;  uncertainty k = 0.312049
         6         3         2        26     9      180.000000        1.487014         4    ;  uncertainty k = 0.244246
         6         5         4        38     9        0.000000        0.081606         1    ;  uncertainty k = 0.496730
         6         5         4        38     9      180.000000        7.636439         2    ;  uncertainty k = 0.933550
         6         5         4        38     9        0.000000        1.281995         3    ;  uncertainty k = 0.371274
         6         5         4        38     9      180.000000        1.137925         4    ;  uncertainty k = 0.436075
         6         5         9         8     9        0.000000        0.476955         1    ;  uncertainty k = 0.448116
         6         5         9         8     9      180.000000       13.346305         2    ;  uncertainty k = 0.822166
         6         5         9         8     9        0.000000      -10.555758         3    ;  uncertainty k = 1.843811
         6         5         9         8     9      180.000000        2.004368         4    ;  uncertainty k = 0.453320
         6         5         9        10     9        0.000000        1.050014         1    ;  uncertainty k = 1.884342
         6         5         9        10     9      180.000000        9.354105         2    ;  uncertainty k = 0.390945
         6         5         9        10     9        0.000000        1.294862         3    ;  uncertainty k = 0.277792
         6         5         9        10     9      180.000000        0.446549         4    ;  uncertainty k = 0.271048
         6         7         8         9     9        0.000000       -0.780413         1    ;  uncertainty k = 0.781603
         6         7         8         9     9      180.000000       17.519514         2    ;  uncertainty k = 0.701851
         6         7         8         9     9        0.000000       -4.712189         3    ;  uncertainty k = 1.192115
         6         7         8         9     9      180.000000        1.006851         4    ;  uncertainty k = 0.568145
         7         6         3        37     9        0.000000        0.269838         1    ;  uncertainty k = 0.432751
         7         6         3        37     9      180.000000        5.561952         2    ;  uncertainty k = 0.850219
         7         6         3        37     9        0.000000        1.110261         3    ;  uncertainty k = 0.320167
         7         6         3        37     9      180.000000        0.846831         4    ;  uncertainty k = 0.441715
         7         6         5         9     9        0.000000       -0.423957         1    ;  uncertainty k = 0.141085
         7         6         5         9     9      180.000000       12.652078         2    ;  uncertainty k = 0.778226
         7         6         5         9     9        0.000000       -3.927266         3    ;  uncertainty k = 1.485442
         7         6         5         9     9      180.000000        1.555054         4    ;  uncertainty k = 0.514315
         7         8         9        10     9        0.000000        0.073874         1    ;  uncertainty k = 0.461946
         7         8         9        10     9      180.000000       25.024414         2    ;  uncertainty k = 0.430631
         7         8         9        10     9        0.000000        1.727098         3    ;  uncertainty k = 0.539088
         7         8         9        10     9      180.000000        1.073052         4    ;  uncertainty k = 0.433232
         8         9        10        11     9        0.000000        0.781710         1    ;  uncertainty k = 0.994313
         8         9        10        11     9      180.000000        4.218386         2    ;  uncertainty k = 0.146827
         8         9        10        11     9        0.000000        0.456255         3    ;  uncertainty k = 0.336140
         8         9        10        11     9      180.000000        0.006739         4    ;  uncertainty k = 0.109076
         8         9        10        12     9        0.000000        1.294517         1    ;  uncertainty k = 0.682896
         8         9        10        12     9      180.000000        3.396277         2    ;  uncertainty k = 0.207658
         8         9        10        12     9        0.000000        1.007984         3    ;  uncertainty k = 0.211819
         8         9        10        12     9      180.000000       -0.027329         4    ;  uncertainty k = 0.091070
         9         5         4        38     9        0.000000        0.294226         1    ;  uncertainty k = 0.506176
         9         5         4        38     9      180.000000        5.496407         2    ;  uncertainty k = 0.395005
         9         5         4        38     9        0.000000        1.139160         3    ;  uncertainty k = 0.110549
         9         5         4        38     9      180.000000        0.632530         4    ;  uncertainty k = 0.289108
         9         8         7        39     9        0.000000        3.335436         1    ;  uncertainty k = 2.451323
         9         8         7        39     9      180.000000       12.207877         2    ;  uncertainty k = 0.275272
         9         8         7        39     9        0.000000        1.616288         3    ;  uncertainty k = 1.032718
         9         8         7        39     9      180.000000       -0.141713         4    ;  uncertainty k = 0.500801
         9        10        11        14     9        0.000000        0.972876         1    ;  uncertainty k = 0.747688
         9        10        11        14     9      180.000000        9.072037         2    ;  uncertainty k = 0.685183
         9        10        11        14     9        0.000000        1.396325         3    ;  uncertainty k = 0.437267
         9        10        11        14     9      180.000000        0.162816         4    ;  uncertainty k = 0.433254
         9        10        11        40     9        0.000000        0.918600         1    ;  uncertainty k = 1.149431
         9        10        11        40     9      180.000000        2.312194         2    ;  uncertainty k = 0.875632
         9        10        11        40     9        0.000000        1.179158         3    ;  uncertainty k = 0.546571
         9        10        11        40     9      180.000000        0.033563         4    ;  uncertainty k = 0.163922
         9        10        12        13     9        0.000000        0.445398         1    ;  uncertainty k = 0.425637
         9        10        12        13     9      180.000000       14.898008         2    ;  uncertainty k = 0.250982
         9        10        12        13     9        0.000000        1.555908         3    ;  uncertainty k = 0.315662
         9        10        12        13     9      180.000000        0.839320         4    ;  uncertainty k = 0.195174
         9        10        12        41     9        0.000000        0.548979         1    ;  uncertainty k = 0.628695
         9        10        12        41     9      180.000000        8.040030         2    ;  uncertainty k = 0.846047
         9        10        12        41     9        0.000000        1.437429         3    ;  uncertainty k = 0.231870
         9        10        12        41     9      180.000000        0.430055         4    ;  uncertainty k = 0.351490
        10        11        14        13     9        0.000000        0.677224         1    ;  uncertainty k = 0.484040
        10        11        14        13     9      180.000000       15.391538         2    ;  uncertainty k = 0.543861
        10        11        14        13     9        0.000000       -7.176031         3    ;  uncertainty k = 1.504592
        10        11        14        13     9      180.000000        0.720549         4    ;  uncertainty k = 0.312836
        10        11        14        15     9        0.000000        1.177185         1    ;  uncertainty k = 1.388290
        10        11        14        15     9      180.000000        6.066057         2    ;  uncertainty k = 0.681074
        10        11        14        15     9        0.000000        0.556232         3    ;  uncertainty k = 0.680744
        10        11        14        15     9      180.000000        0.362922         4    ;  uncertainty k = 0.189431
        10        12        13        14     9        0.000000        0.361292         1    ;  uncertainty k = 1.330430
        10        12        13        14     9      180.000000       13.508990         2    ;  uncertainty k = 0.841570
        10        12        13        14     9        0.000000      -10.232746         3    ;  uncertainty k = 2.429813
        10        12        13        14     9      180.000000        1.943500         4    ;  uncertainty k = 0.699510
        10        12        13        18     9        0.000000        0.719928         1    ;  uncertainty k = 1.051785
        10        12        13        18     9      180.000000        7.152434         2    ;  uncertainty k = 0.463258
        10        12        13        18     9        0.000000        0.639458         3    ;  uncertainty k = 0.568479
        10        12        13        18     9      180.000000        0.881597         4    ;  uncertainty k = 0.181196
        11        10        12        13     9        0.000000       -0.170591         1    ;  uncertainty k = 0.457887
        11        10        12        13     9      180.000000       21.183000         2    ;  uncertainty k = 0.305566
        11        10        12        13     9        0.000000       -5.763849         3    ;  uncertainty k = 0.923330
        11        10        12        13     9      180.000000        1.114901         4    ;  uncertainty k = 0.646691
        11        10        12        41     9        0.000000        0.167060         1    ;  uncertainty k = 0.788367
        11        10        12        41     9      180.000000       13.631220         2    ;  uncertainty k = 0.279679
        11        10        12        41     9        0.000000        1.611237         3    ;  uncertainty k = 0.521630
        11        10        12        41     9      180.000000        0.833703         4    ;  uncertainty k = 0.212157
        11        14        13        12     9        0.000000       -0.202825         1    ;  uncertainty k = 0.478407
        11        14        13        12     9      180.000000       13.002652         2    ;  uncertainty k = 0.931177
        11        14        13        12     9        0.000000       -3.504618         3    ;  uncertainty k = 1.340468
        11        14        13        12     9      180.000000        1.499261         4    ;  uncertainty k = 0.893862
        11        14        13        18     9        0.000000       -0.009400         1    ;  uncertainty k = 0.665287
        11        14        13        18     9      180.000000        8.599465         2    ;  uncertainty k = 0.303691
        11        14        13        18     9        0.000000        0.039108         3    ;  uncertainty k = 0.634312
        11        14        13        18     9      180.000000        1.157750         4    ;  uncertainty k = 0.318749
        11        14        15        16     9        0.000000        0.101687         1    ;  uncertainty k = 0.492650
        11        14        15        16     9      180.000000       10.396881         2    ;  uncertainty k = 0.405513
        11        14        15        16     9        0.000000        0.905536         3    ;  uncertainty k = 0.217852
        11        14        15        16     9      180.000000        1.193490         4    ;  uncertainty k = 0.199283
        11        14        15        42     9        0.000000        0.297608         1    ;  uncertainty k = 0.281792
        11        14        15        42     9      180.000000        5.979846         2    ;  uncertainty k = 0.436306
        11        14        15        42     9        0.000000        1.081486         3    ;  uncertainty k = 0.443402
        11        14        15        42     9      180.000000        0.788557         4    ;  uncertainty k = 0.396366
        12        10        11        14     9        0.000000       -0.312845         1    ;  uncertainty k = 0.580788
        12        10        11        14     9      180.000000       14.762202         2    ;  uncertainty k = 0.576008
        12        10        11        14     9        0.000000       -6.005934         3    ;  uncertainty k = 0.754875
        12        10        11        14     9      180.000000        0.807473         4    ;  uncertainty k = 0.503918
        12        10        11        40     9        0.000000        2.692548         1    ;  uncertainty k = 0.930202
        12        10        11        40     9      180.000000        7.104361         2    ;  uncertainty k = 0.633239
        12        10        11        40     9        0.000000        1.708608         3    ;  uncertainty k = 0.800499
        12        10        11        40     9      180.000000       -0.086000         4    ;  uncertainty k = 0.169592
        12        13        14        15     9        0.000000        0.122372         1    ;  uncertainty k = 0.493782
        12        13        14        15     9      180.000000        7.658649         2    ;  uncertainty k = 0.231490
        12        13        14        15     9        0.000000        0.307669         3    ;  uncertainty k = 0.516181
        12        13        14        15     9      180.000000        1.225404         4    ;  uncertainty k = 0.295152
        12        13        18        17     9        0.000000        0.273940         1    ;  uncertainty k = 0.242143
        12        13        18        17     9      180.000000        9.158220         2    ;  uncertainty k = 0.581427
        12        13        18        17     9        0.000000        0.774232         3    ;  uncertainty k = 0.207770
        12        13        18        17     9      180.000000        1.313479         4    ;  uncertainty k = 0.061551
        12        13        18        44     9        0.000000        0.176521         1    ;  uncertainty k = 0.521884
        12        13        18        44     9      180.000000        6.160616         2    ;  uncertainty k = 0.516039
        12        13        18        44     9        0.000000        1.150569         3    ;  uncertainty k = 0.299354
        12        13        18        44     9      180.000000        0.773380         4    ;  uncertainty k = 0.265485
        13        14        11        40     9        0.000000        4.251255         1    ;  uncertainty k = 1.360478
        13        14        11        40     9      180.000000        5.652297         2    ;  uncertainty k = 0.865941
        13        14        11        40     9        0.000000        1.218097         3    ;  uncertainty k = 0.455419
        13        14        11        40     9      180.000000        0.178738         4    ;  uncertainty k = 0.095967
        13        14        15        16     9        0.000000        0.138507         1    ;  uncertainty k = 0.419631
        13        14        15        16     9      180.000000       12.342478         2    ;  uncertainty k = 0.198431
        13        14        15        16     9        0.000000       -1.190024         3    ;  uncertainty k = 0.162598
        13        14        15        16     9      180.000000        0.787465         4    ;  uncertainty k = 0.236198
        13        14        15        42     9        0.000000        0.110142         1    ;  uncertainty k = 0.471897
        13        14        15        42     9      180.000000        6.826218         2    ;  uncertainty k = 0.834942
        13        14        15        42     9        0.000000        1.286748         3    ;  uncertainty k = 0.286966
        13        14        15        42     9      180.000000        1.215500         4    ;  uncertainty k = 0.381963
        13        18        17        16     9        0.000000       -0.120548         1    ;  uncertainty k = 0.442668
        13        18        17        16     9      180.000000       14.435859         2    ;  uncertainty k = 0.456972
        13        18        17        16     9        0.000000       -0.084202         3    ;  uncertainty k = 0.428045
        13        18        17        16     9      180.000000        0.846335         4    ;  uncertainty k = 0.451327
        13        18        17        19     9        0.000000        0.079424         1    ;  uncertainty k = 0.272272
        13        18        17        19     9      180.000000       12.474388         2    ;  uncertainty k = 0.384270
        13        18        17        19     9        0.000000        1.421860         3    ;  uncertainty k = 0.339278
        13        18        17        19     9      180.000000        1.635099         4    ;  uncertainty k = 0.224797
        14        13        12        41     9        0.000000        0.017967         1    ;  uncertainty k = 0.631560
        14        13        12        41     9      180.000000        8.382173         2    ;  uncertainty k = 0.283584
        14        13        12        41     9        0.000000        1.223121         3    ;  uncertainty k = 0.388946
        14        13        12        41     9      180.000000        0.290886         4    ;  uncertainty k = 0.214805
        14        13        18        17     9        0.000000        0.115653         1    ;  uncertainty k = 0.417507
        14        13        18        17     9      180.000000       13.211841         2    ;  uncertainty k = 0.348487
        14        13        18        17     9        0.000000       -1.525755         3    ;  uncertainty k = 0.580502
        14        13        18        17     9      180.000000        0.752655         4    ;  uncertainty k = 0.130469
        14        13        18        44     9        0.000000        0.217180         1    ;  uncertainty k = 0.371606
        14        13        18        44     9      180.000000        7.628301         2    ;  uncertainty k = 0.907146
        14        13        18        44     9        0.000000        1.336832         3    ;  uncertainty k = 0.359407
        14        13        18        44     9      180.000000        1.243972         4    ;  uncertainty k = 0.290146
        14        15        16        17     9        0.000000       -0.069405         1    ;  uncertainty k = 0.317444
        14        15        16        17     9      180.000000       15.480187         2    ;  uncertainty k = 0.356555
        14        15        16        17     9        0.000000       -0.213723         3    ;  uncertainty k = 0.302107
        14        15        16        17     9      180.000000        0.786315         4    ;  uncertainty k = 0.335466
        14        15        16        43     9        0.000000       -0.162996         1    ;  uncertainty k = 0.244564
        14        15        16        43     9      180.000000       11.002376         2    ;  uncertainty k = 0.216657
        14        15        16        43     9        0.000000        1.394471         3    ;  uncertainty k = 0.287042
        14        15        16        43     9      180.000000        1.583323         4    ;  uncertainty k = 0.169870
        15        14        11        40     9        0.000000        1.269472         1    ;  uncertainty k = 0.837827
        15        14        11        40     9      180.000000        2.067532         2    ;  uncertainty k = 0.608338
        15        14        11        40     9        0.000000        1.208102         3    ;  uncertainty k = 0.532703
        15        14        11        40     9      180.000000        0.096571         4    ;  uncertainty k = 0.215072
        15        14        13        18     9        0.000000       -0.706833         1    ;  uncertainty k = 0.684641
        15        14        13        18     9      180.000000        7.606582         2    ;  uncertainty k = 0.334024
        15        14        13        18     9        0.000000        0.144136         3    ;  uncertainty k = 0.309429
        15        14        13        18     9      180.000000        0.910966         4    ;  uncertainty k = 0.352736
        15        16        17        18     9        0.000000       -0.338036         1    ;  uncertainty k = 0.337143
        15        16        17        18     9      180.000000       11.066610         2    ;  uncertainty k = 0.368774
        15        16        17        18     9        0.000000       -0.486274         3    ;  uncertainty k = 0.431050
        15        16        17        18     9      180.000000        0.915685         4    ;  uncertainty k = 0.301678
        15        16        17        19     9        0.000000        0.309409         1    ;  uncertainty k = 0.338090
        15        16        17        19     9      180.000000        8.685456         2    ;  uncertainty k = 0.600813
        15        16        17        19     9        0.000000        1.302275         3    ;  uncertainty k = 0.420104
        15        16        17        19     9      180.000000        1.806136         4    ;  uncertainty k = 0.242347
        16        17        18        44     9        0.000000        0.255434         1    ;  uncertainty k = 0.332067
        16        17        18        44     9      180.000000        8.320365         2    ;  uncertainty k = 0.480036
        16        17        18        44     9        0.000000        1.477869         3    ;  uncertainty k = 0.227399
        16        17        18        44     9      180.000000        1.668731         4    ;  uncertainty k = 0.153873
        16        17        19        20     9        0.000000       -0.502648         1    ;  uncertainty k = 1.172516
        16        17        19        20     9      180.000000       -0.311487         2    ;  uncertainty k = 0.247766
        16        17        19        20     9        0.000000        0.789899         3    ;  uncertainty k = 0.241029
        16        17        19        20     9      180.000000        0.138126         4    ;  uncertainty k = 0.126498
        16        17        19        45     9        0.000000       -0.779480         1    ;  uncertainty k = 0.316160
        16        17        19        45     9      180.000000        1.643899         2    ;  uncertainty k = 0.203375
        16        17        19        45     9        0.000000        0.566007         3    ;  uncertainty k = 0.131158
        16        17        19        45     9      180.000000        0.097303         4    ;  uncertainty k = 0.092749
        16        17        19        46     9        0.000000       -0.779480         1    ;  uncertainty k = 0.316160
        16        17        19        46     9      180.000000        1.643899         2    ;  uncertainty k = 0.203375
        16        17        19        46     9        0.000000        0.566007         3    ;  uncertainty k = 0.131158
        16        17        19        46     9      180.000000        0.097303         4    ;  uncertainty k = 0.092749
        17        16        15        42     9        0.000000        0.062625         1    ;  uncertainty k = 0.188029
        17        16        15        42     9      180.000000        8.653029         2    ;  uncertainty k = 0.558389
        17        16        15        42     9        0.000000        1.424910         3    ;  uncertainty k = 0.169008
        17        16        15        42     9      180.000000        1.741614         4    ;  uncertainty k = 0.149464
        17        19        20        21     9        0.000000        0.228024         1    ;  uncertainty k = 1.306396
        17        19        20        21     9      180.000000       -0.094217         2    ;  uncertainty k = 0.261243
        17        19        20        21     9        0.000000        1.131702         3    ;  uncertainty k = 0.248749
        17        19        20        21     9      180.000000        0.011547         4    ;  uncertainty k = 0.094504
        17        19        20        25     9        0.000000        0.228024         1    ;  uncertainty k = 1.306396
        17        19        20        25     9      180.000000       -0.094217         2    ;  uncertainty k = 0.261243
        17        19        20        25     9        0.000000        1.131702         3    ;  uncertainty k = 0.248749
        17        19        20        25     9      180.000000        0.011547         4    ;  uncertainty k = 0.094504
        17        19        20        47     9        0.000000        1.154674         1    ;  uncertainty k = 1.040771
        17        19        20        47     9      180.000000       -0.124686         2    ;  uncertainty k = 0.522409
        17        19        20        47     9        0.000000        0.784931         3    ;  uncertainty k = 0.114049
        17        19        20        47     9      180.000000       -0.130874         4    ;  uncertainty k = 0.109286
        18        13        12        41     9        0.000000        0.461655         1    ;  uncertainty k = 0.985717
        18        13        12        41     9      180.000000        4.269004         2    ;  uncertainty k = 0.713269
        18        13        12        41     9        0.000000        1.295441         3    ;  uncertainty k = 0.311370
        18        13        12        41     9      180.000000        0.090060         4    ;  uncertainty k = 0.170435
        18        17        16        43     9        0.000000        0.085635         1    ;  uncertainty k = 0.380041
        18        17        16        43     9      180.000000        7.117360         2    ;  uncertainty k = 0.584951
        18        17        16        43     9        0.000000        1.371620         3    ;  uncertainty k = 0.155099
        18        17        16        43     9      180.000000        1.456083         4    ;  uncertainty k = 0.133603
        18        17        19        20     9        0.000000       -0.542129         1    ;  uncertainty k = 1.426110
        18        17        19        20     9      180.000000       -0.213649         2    ;  uncertainty k = 0.320963
        18        17        19        20     9        0.000000        0.492927         3    ;  uncertainty k = 0.186694
        18        17        19        20     9      180.000000        0.117443         4    ;  uncertainty k = 0.107545
        18        17        19        45     9        0.000000       -0.478151         1    ;  uncertainty k = 0.298124
        18        17        19        45     9      180.000000        1.736761         2    ;  uncertainty k = 0.361256
        18        17        19        45     9        0.000000        0.380981         3    ;  uncertainty k = 0.163856
        18        17        19        45     9      180.000000        0.078124         4    ;  uncertainty k = 0.111272
        18        17        19        46     9        0.000000       -0.478151         1    ;  uncertainty k = 0.298124
        18        17        19        46     9      180.000000        1.736761         2    ;  uncertainty k = 0.361256
        18        17        19        46     9        0.000000        0.380981         3    ;  uncertainty k = 0.163856
        18        17        19        46     9      180.000000        0.078124         4    ;  uncertainty k = 0.111272
        19        17        16        43     9        0.000000        0.122853         1    ;  uncertainty k = 0.462101
        19        17        16        43     9      180.000000        6.723881         2    ;  uncertainty k = 0.452487
        19        17        16        43     9        0.000000        0.764244         3    ;  uncertainty k = 0.258190
        19        17        16        43     9      180.000000        1.116906         4    ;  uncertainty k = 0.304850
        19        17        18        44     9        0.000000        0.097601         1    ;  uncertainty k = 0.277337
        19        17        18        44     9      180.000000        7.549729         2    ;  uncertainty k = 0.389850
        19        17        18        44     9        0.000000        0.959678         3    ;  uncertainty k = 0.304181
        19        17        18        44     9      180.000000        1.284138         4    ;  uncertainty k = 0.347818
        19        20        21        22     9        0.000000       -2.574566         1    ;  uncertainty k = 0.281796
        19        20        21        22     9      180.000000        0.479104         2    ;  uncertainty k = 0.475507
        19        20        21        22     9        0.000000        0.885379         3    ;  uncertainty k = 0.094303
        19        20        21        22     9      180.000000       -0.088547         4    ;  uncertainty k = 0.097600
        19        20        21        48     9        0.000000       -0.105984         1    ;  uncertainty k = 0.325338
        19        20        21        48     9      180.000000       -1.019772         2    ;  uncertainty k = 0.208597
        19        20        21        48     9        0.000000        0.825381         3    ;  uncertainty k = 0.098256
        19        20        21        48     9      180.000000       -0.051999         4    ;  uncertainty k = 0.047873
        19        20        21        49     9        0.000000       -0.105984         1    ;  uncertainty k = 0.325338
        19        20        21        49     9      180.000000       -1.019772         2    ;  uncertainty k = 0.208597
        19        20        21        49     9        0.000000        0.825381         3    ;  uncertainty k = 0.098256
        19        20        21        49     9      180.000000       -0.051999         4    ;  uncertainty k = 0.047873
        19        20        25        24     9        0.000000       -2.574566         1    ;  uncertainty k = 0.281796
        19        20        25        24     9      180.000000        0.479104         2    ;  uncertainty k = 0.475507
        19        20        25        24     9        0.000000        0.885379         3    ;  uncertainty k = 0.094303
        19        20        25        24     9      180.000000       -0.088547         4    ;  uncertainty k = 0.097600
        19        20        25        55     9        0.000000       -0.105984         1    ;  uncertainty k = 0.325338
        19        20        25        55     9      180.000000       -1.019772         2    ;  uncertainty k = 0.208597
        19        20        25        55     9        0.000000        0.825381         3    ;  uncertainty k = 0.098256
        19        20        25        55     9      180.000000       -0.051999         4    ;  uncertainty k = 0.047873
        19        20        25        56     9        0.000000       -0.105984         1    ;  uncertainty k = 0.325338
        19        20        25        56     9      180.000000       -1.019772         2    ;  uncertainty k = 0.208597
        19        20        25        56     9        0.000000        0.825381         3    ;  uncertainty k = 0.098256
        19        20        25        56     9      180.000000       -0.051999         4    ;  uncertainty k = 0.047873
        20        21        22        23     9        0.000000       -0.960043         1    ;  uncertainty k = 1.015404
        20        21        22        23     9      180.000000       -1.839615         2    ;  uncertainty k = 0.830077
        20        21        22        23     9        0.000000        1.912143         3    ;  uncertainty k = 0.244230
        20        21        22        23     9      180.000000       -0.904406         4    ;  uncertainty k = 0.229121
        20        21        22        50     9        0.000000       -0.583337         1    ;  uncertainty k = 0.759808
        20        21        22        50     9      180.000000       -1.764027         2    ;  uncertainty k = 0.462837
        20        21        22        50     9        0.000000        0.775149         3    ;  uncertainty k = 0.096083
        20        21        22        50     9      180.000000       -0.068994         4    ;  uncertainty k = 0.160962
        20        21        22        51     9        0.000000       -0.583337         1    ;  uncertainty k = 0.759808
        20        21        22        51     9      180.000000       -1.764027         2    ;  uncertainty k = 0.462837
        20        21        22        51     9        0.000000        0.775149         3    ;  uncertainty k = 0.096083
        20        21        22        51     9      180.000000       -0.068994         4    ;  uncertainty k = 0.160962
        20        25        24        23     9        0.000000       -0.960043         1    ;  uncertainty k = 1.015404
        20        25        24        23     9      180.000000       -1.839615         2    ;  uncertainty k = 0.830077
        20        25        24        23     9        0.000000        1.912143         3    ;  uncertainty k = 0.244230
        20        25        24        23     9      180.000000       -0.904406         4    ;  uncertainty k = 0.229121
        20        25        24        53     9        0.000000       -0.583337         1    ;  uncertainty k = 0.759808
        20        25        24        53     9      180.000000       -1.764027         2    ;  uncertainty k = 0.462837
        20        25        24        53     9        0.000000        0.775149         3    ;  uncertainty k = 0.096083
        20        25        24        53     9      180.000000       -0.068994         4    ;  uncertainty k = 0.160962
        20        25        24        54     9        0.000000       -0.583337         1    ;  uncertainty k = 0.759808
        20        25        24        54     9      180.000000       -1.764027         2    ;  uncertainty k = 0.462837
        20        25        24        54     9        0.000000        0.775149         3    ;  uncertainty k = 0.096083
        20        25        24        54     9      180.000000       -0.068994         4    ;  uncertainty k = 0.160962
        21        20        19        45     9        0.000000       -0.486273         1    ;  uncertainty k = 0.396482
        21        20        19        45     9      180.000000       -0.446871         2    ;  uncertainty k = 0.239801
        21        20        19        45     9        0.000000        0.889072         3    ;  uncertainty k = 0.185769
        21        20        19        45     9      180.000000       -0.057138         4    ;  uncertainty k = 0.158412
        21        20        19        46     9        0.000000       -0.486273         1    ;  uncertainty k = 0.396482
        21        20        19        46     9      180.000000       -0.446871         2    ;  uncertainty k = 0.239801
        21        20        19        46     9        0.000000        0.889072         3    ;  uncertainty k = 0.185769
        21        20        19        46     9      180.000000       -0.057138         4    ;  uncertainty k = 0.158412
        21        20        25        24     9        0.000000       -0.214545         1    ;  uncertainty k = 0.605913
        21        20        25        24     9      180.000000       -0.310706         2    ;  uncertainty k = 0.547554
        21        20        25        24     9        0.000000        0.727519         3    ;  uncertainty k = 0.267402
        21        20        25        24     9      180.000000       -0.360140         4    ;  uncertainty k = 0.313231
        21        20        25        55     9        0.000000       -0.325973         1    ;  uncertainty k = 0.679075
        21        20        25        55     9      180.000000       -0.892397         2    ;  uncertainty k = 0.294848
        21        20        25        55     9        0.000000        0.425327         3    ;  uncertainty k = 0.253460
        21        20        25        55     9      180.000000        0.013081         4    ;  uncertainty k = 0.187622
        21        20        25        56     9        0.000000       -0.325973         1    ;  uncertainty k = 0.679075
        21        20        25        56     9      180.000000       -0.892397         2    ;  uncertainty k = 0.294848
        21        20        25        56     9        0.000000        0.425327         3    ;  uncertainty k = 0.253460
        21        20        25        56     9      180.000000        0.013081         4    ;  uncertainty k = 0.187622
        21        22        23        24     9        0.000000       -7.024421         1    ;  uncertainty k = 1.282597
        21        22        23        24     9      180.000000        0.534974         2    ;  uncertainty k = 0.812259
        21        22        23        24     9        0.000000        1.706653         3    ;  uncertainty k = 0.095741
        21        22        23        24     9      180.000000       -1.004374         4    ;  uncertainty k = 0.160418
        21        22        23        27     9        0.000000       -1.564502         1    ;  uncertainty k = 0.555680
        21        22        23        27     9      180.000000       -0.696408         2    ;  uncertainty k = 0.204692
        21        22        23        27     9        0.000000        0.561736         3    ;  uncertainty k = 0.091502
        21        22        23        27     9      180.000000       -0.099846         4    ;  uncertainty k = 0.065184
        21        22        23        52     9        0.000000       -1.564502         1    ;  uncertainty k = 0.555680
        21        22        23        52     9      180.000000       -0.696408         2    ;  uncertainty k = 0.204692
        21        22        23        52     9        0.000000        0.561736         3    ;  uncertainty k = 0.091502
        21        22        23        52     9      180.000000       -0.099846         4    ;  uncertainty k = 0.065184
        22        21        20        25     9        0.000000       -0.214545         1    ;  uncertainty k = 0.605913
        22        21        20        25     9      180.000000       -0.310706         2    ;  uncertainty k = 0.547554
        22        21        20        25     9        0.000000        0.727519         3    ;  uncertainty k = 0.267402
        22        21        20        25     9      180.000000       -0.360140         4    ;  uncertainty k = 0.313231
        22        21        20        47     9        0.000000       -0.489044         1    ;  uncertainty k = 0.294494
        22        21        20        47     9      180.000000       -0.418723         2    ;  uncertainty k = 0.251138
        22        21        20        47     9        0.000000        0.374961         3    ;  uncertainty k = 0.183942
        22        21        20        47     9      180.000000       -0.122123         4    ;  uncertainty k = 0.077493
        22        23        24        25     9        0.000000       -7.024421         1    ;  uncertainty k = 1.282597
        22        23        24        25     9      180.000000        0.534974         2    ;  uncertainty k = 0.812259
        22        23        24        25     9        0.000000        1.706653         3    ;  uncertainty k = 0.095741
        22        23        24        25     9      180.000000       -1.004374         4    ;  uncertainty k = 0.160418
        22        23        24        53     9        0.000000       -1.731084         1    ;  uncertainty k = 0.118909
        22        23        24        53     9      180.000000       -0.275642         2    ;  uncertainty k = 0.205940
        22        23        24        53     9        0.000000        0.507808         3    ;  uncertainty k = 0.221376
        22        23        24        53     9      180.000000       -0.022493         4    ;  uncertainty k = 0.102359
        22        23        24        54     9        0.000000       -1.731084         1    ;  uncertainty k = 0.118909
        22        23        24        54     9      180.000000       -0.275642         2    ;  uncertainty k = 0.205940
        22        23        24        54     9        0.000000        0.507808         3    ;  uncertainty k = 0.221376
        22        23        24        54     9      180.000000       -0.022493         4    ;  uncertainty k = 0.102359
        23        22        21        48     9        0.000000       -0.255252         1    ;  uncertainty k = 0.641429
        23        22        21        48     9      180.000000       -0.702894         2    ;  uncertainty k = 0.251438
        23        22        21        48     9        0.000000        0.502590         3    ;  uncertainty k = 0.195279
        23        22        21        48     9      180.000000        0.108164         4    ;  uncertainty k = 0.079509
        23        22        21        49     9        0.000000       -0.255252         1    ;  uncertainty k = 0.641429
        23        22        21        49     9      180.000000       -0.702894         2    ;  uncertainty k = 0.251438
        23        22        21        49     9        0.000000        0.502590         3    ;  uncertainty k = 0.195279
        23        22        21        49     9      180.000000        0.108164         4    ;  uncertainty k = 0.079509
        23        24        25        55     9        0.000000       -0.255252         1    ;  uncertainty k = 0.641429
        23        24        25        55     9      180.000000       -0.702894         2    ;  uncertainty k = 0.251438
        23        24        25        55     9        0.000000        0.502590         3    ;  uncertainty k = 0.195279
        23        24        25        55     9      180.000000        0.108164         4    ;  uncertainty k = 0.079509
        23        24        25        56     9        0.000000       -0.255252         1    ;  uncertainty k = 0.641429
        23        24        25        56     9      180.000000       -0.702894         2    ;  uncertainty k = 0.251438
        23        24        25        56     9        0.000000        0.502590         3    ;  uncertainty k = 0.195279
        23        24        25        56     9      180.000000        0.108164         4    ;  uncertainty k = 0.079509
        24        23        22        50     9        0.000000       -1.731084         1    ;  uncertainty k = 0.118909
        24        23        22        50     9      180.000000       -0.275642         2    ;  uncertainty k = 0.205940
        24        23        22        50     9        0.000000        0.507808         3    ;  uncertainty k = 0.221376
        24        23        22        50     9      180.000000       -0.022493         4    ;  uncertainty k = 0.102359
        24        23        22        51     9        0.000000       -1.731084         1    ;  uncertainty k = 0.118909
        24        23        22        51     9      180.000000       -0.275642         2    ;  uncertainty k = 0.205940
        24        23        22        51     9        0.000000        0.507808         3    ;  uncertainty k = 0.221376
        24        23        22        51     9      180.000000       -0.022493         4    ;  uncertainty k = 0.102359
        24        25        20        47     9        0.000000       -0.489044         1    ;  uncertainty k = 0.294494
        24        25        20        47     9      180.000000       -0.418723         2    ;  uncertainty k = 0.251138
        24        25        20        47     9        0.000000        0.374961         3    ;  uncertainty k = 0.183942
        24        25        20        47     9      180.000000       -0.122123         4    ;  uncertainty k = 0.077493
        25        20        19        45     9        0.000000       -0.486273         1    ;  uncertainty k = 0.396482
        25        20        19        45     9      180.000000       -0.446871         2    ;  uncertainty k = 0.239801
        25        20        19        45     9        0.000000        0.889072         3    ;  uncertainty k = 0.185769
        25        20        19        45     9      180.000000       -0.057138         4    ;  uncertainty k = 0.158412
        25        20        19        46     9        0.000000       -0.486273         1    ;  uncertainty k = 0.396482
        25        20        19        46     9      180.000000       -0.446871         2    ;  uncertainty k = 0.239801
        25        20        19        46     9        0.000000        0.889072         3    ;  uncertainty k = 0.185769
        25        20        19        46     9      180.000000       -0.057138         4    ;  uncertainty k = 0.158412
        25        20        21        48     9        0.000000       -0.325973         1    ;  uncertainty k = 0.679075
        25        20        21        48     9      180.000000       -0.892397         2    ;  uncertainty k = 0.294848
        25        20        21        48     9        0.000000        0.425327         3    ;  uncertainty k = 0.253460
        25        20        21        48     9      180.000000        0.013081         4    ;  uncertainty k = 0.187622
        25        20        21        49     9        0.000000       -0.325973         1    ;  uncertainty k = 0.679075
        25        20        21        49     9      180.000000       -0.892397         2    ;  uncertainty k = 0.294848
        25        20        21        49     9        0.000000        0.425327         3    ;  uncertainty k = 0.253460
        25        20        21        49     9      180.000000        0.013081         4    ;  uncertainty k = 0.187622
        25        24        23        27     9        0.000000       -1.564502         1    ;  uncertainty k = 0.555680
        25        24        23        27     9      180.000000       -0.696408         2    ;  uncertainty k = 0.204692
        25        24        23        27     9        0.000000        0.561736         3    ;  uncertainty k = 0.091502
        25        24        23        27     9      180.000000       -0.099846         4    ;  uncertainty k = 0.065184
        25        24        23        52     9        0.000000       -1.564502         1    ;  uncertainty k = 0.555680
        25        24        23        52     9      180.000000       -0.696408         2    ;  uncertainty k = 0.204692
        25        24        23        52     9        0.000000        0.561736         3    ;  uncertainty k = 0.091502
        25        24        23        52     9      180.000000       -0.099846         4    ;  uncertainty k = 0.065184
        26         2         1        36     9        0.000000       -0.390636         1    ;  uncertainty k = 0.395325
        26         2         1        36     9      180.000000        6.843920         2    ;  uncertainty k = 0.396399
        26         2         1        36     9        0.000000        0.821381         3    ;  uncertainty k = 0.138552
        26         2         1        36     9      180.000000        1.055848         4    ;  uncertainty k = 0.271099
        26         2         3        37     9        0.000000       -0.121880         1    ;  uncertainty k = 0.096600
        26         2         3        37     9      180.000000        7.623175         2    ;  uncertainty k = 0.252306
        26         2         3        37     9        0.000000        0.890686         3    ;  uncertainty k = 0.176955
        26         2         3        37     9      180.000000        1.142933         4    ;  uncertainty k = 0.090397
        26        28        29        30     9        0.000000       -0.107086         1    ;  uncertainty k = 0.234212
        26        28        29        30     9      180.000000       14.149394         2    ;  uncertainty k = 0.170592
        26        28        29        30     9        0.000000       -0.942194         3    ;  uncertainty k = 0.610459
        26        28        29        30     9      180.000000        0.913865         4    ;  uncertainty k = 0.324925
        26        28        29        58     9        0.000000        0.062950         1    ;  uncertainty k = 0.145509
        26        28        29        58     9      180.000000        7.911721         2    ;  uncertainty k = 0.331893
        26        28        29        58     9        0.000000        1.384456         3    ;  uncertainty k = 0.255870
        26        28        29        58     9      180.000000        1.865280         4    ;  uncertainty k = 0.168039
        26        32        31        30     9        0.000000       -0.011583         1    ;  uncertainty k = 0.372064
        26        32        31        30     9      180.000000        9.808280         2    ;  uncertainty k = 0.647783
        26        32        31        30     9        0.000000        0.334658         3    ;  uncertainty k = 0.296913
        26        32        31        30     9      180.000000        1.217789         4    ;  uncertainty k = 0.309097
        26        32        31        34     9        0.000000        0.009443         1    ;  uncertainty k = 0.316656
        26        32        31        34     9      180.000000       12.298502         2    ;  uncertainty k = 0.264636
        26        32        31        34     9        0.000000        1.184129         3    ;  uncertainty k = 0.258309
        26        32        31        34     9      180.000000        1.596351         4    ;  uncertainty k = 0.072120
        27        23        22        50     9        0.000000        2.065466         1    ;  uncertainty k = 0.581086
        27        23        22        50     9      180.000000        0.128238         2    ;  uncertainty k = 0.153427
        27        23        22        50     9        0.000000        0.323705         3    ;  uncertainty k = 0.122348
        27        23        22        50     9      180.000000        0.126782         4    ;  uncertainty k = 0.032762
        27        23        22        51     9        0.000000        2.065466         1    ;  uncertainty k = 0.581086
        27        23        22        51     9      180.000000        0.128238         2    ;  uncertainty k = 0.153427
        27        23        22        51     9        0.000000        0.323705         3    ;  uncertainty k = 0.122348
        27        23        22        51     9      180.000000        0.126782         4    ;  uncertainty k = 0.032762
        27        23        24        53     9        0.000000        2.065466         1    ;  uncertainty k = 0.581086
        27        23        24        53     9      180.000000        0.128238         2    ;  uncertainty k = 0.153427
        27        23        24        53     9        0.000000        0.323705         3    ;  uncertainty k = 0.122348
        27        23        24        53     9      180.000000        0.126782         4    ;  uncertainty k = 0.032762
        27        23        24        54     9        0.000000        2.065466         1    ;  uncertainty k = 0.581086
        27        23        24        54     9      180.000000        0.128238         2    ;  uncertainty k = 0.153427
        27        23        24        54     9        0.000000        0.323705         3    ;  uncertainty k = 0.122348
        27        23        24        54     9      180.000000        0.126782         4    ;  uncertainty k = 0.032762
        28        26        32        31     9        0.000000        0.143701         1    ;  uncertainty k = 0.197157
        28        26        32        31     9      180.000000       10.489963         2    ;  uncertainty k = 0.356262
        28        26        32        31     9        0.000000       -0.263178         3    ;  uncertainty k = 0.299028
        28        26        32        31     9      180.000000        1.053459         4    ;  uncertainty k = 0.369291
        28        26        32        59     9        0.000000        0.232001         1    ;  uncertainty k = 0.127356
        28        26        32        59     9      180.000000        6.658671         2    ;  uncertainty k = 0.367513
        28        26        32        59     9        0.000000        1.486256         3    ;  uncertainty k = 0.250863
        28        26        32        59     9      180.000000        1.568999         4    ;  uncertainty k = 0.181442
        28        29        30        31     9        0.000000       -0.091066         1    ;  uncertainty k = 0.276678
        28        29        30        31     9      180.000000        7.965620         2    ;  uncertainty k = 0.767008
        28        29        30        31     9        0.000000        0.402920         3    ;  uncertainty k = 0.383612
        28        29        30        31     9      180.000000        1.412433         4    ;  uncertainty k = 0.222234
        28        29        30        33     9        0.000000       -0.011212         1    ;  uncertainty k = 0.310734
        28        29        30        33     9      180.000000       11.297585         2    ;  uncertainty k = 0.353947
        28        29        30        33     9        0.000000        1.084619         3    ;  uncertainty k = 0.144905
        28        29        30        33     9      180.000000        1.562109         4    ;  uncertainty k = 0.116753
        29        28        26        32     9        0.000000       -0.018779         1    ;  uncertainty k = 0.244276
        29        28        26        32     9      180.000000       11.878784         2    ;  uncertainty k = 0.285270
        29        28        26        32     9        0.000000       -0.604265         3    ;  uncertainty k = 0.252604
        29        28        26        32     9      180.000000        0.887916         4    ;  uncertainty k = 0.228676
        29        30        31        32     9        0.000000       -0.057748         1    ;  uncertainty k = 0.307478
        29        30        31        32     9      180.000000        5.176050         2    ;  uncertainty k = 1.502720
        29        30        31        32     9        0.000000        0.361145         3    ;  uncertainty k = 0.291042
        29        30        31        32     9      180.000000        1.354758         4    ;  uncertainty k = 0.349040
        29        30        31        34     9        0.000000        0.442723         1    ;  uncertainty k = 0.431447
        29        30        31        34     9      180.000000        7.939402         2    ;  uncertainty k = 0.659616
        29        30        31        34     9        0.000000        1.106364         3    ;  uncertainty k = 0.359821
        29        30        31        34     9      180.000000        1.625963         4    ;  uncertainty k = 0.326493
        29        30        33        60     9        0.000000        7.244107         1    ;  uncertainty k = 0.455123
        29        30        33        60     9      180.000000        4.505826         2    ;  uncertainty k = 0.279976
        29        30        33        60     9        0.000000        0.553729         3    ;  uncertainty k = 0.136018
        29        30        33        60     9      180.000000        0.244660         4    ;  uncertainty k = 0.069541
        30        29        28        57     9        0.000000        0.051005         1    ;  uncertainty k = 0.344249
        30        29        28        57     9      180.000000        8.127377         2    ;  uncertainty k = 0.418028
        30        29        28        57     9        0.000000        1.202474         3    ;  uncertainty k = 0.307154
        30        29        28        57     9      180.000000        1.739567         4    ;  uncertainty k = 0.180590
        30        31        32        59     9        0.000000        0.178222         1    ;  uncertainty k = 0.368916
        30        31        32        59     9      180.000000        6.748588         2    ;  uncertainty k = 0.498830
        30        31        32        59     9        0.000000        1.424408         3    ;  uncertainty k = 0.158914
        30        31        32        59     9      180.000000        1.634482         4    ;  uncertainty k = 0.183404
        30        31        34        35     9        0.000000        1.120756         1    ;  uncertainty k = 0.690262
        30        31        34        35     9      180.000000        4.120420         2    ;  uncertainty k = 0.292135
        30        31        34        35     9        0.000000        0.895280         3    ;  uncertainty k = 0.271077
        30        31        34        35     9      180.000000        0.074731         4    ;  uncertainty k = 0.116273
        31        30        29        58     9        0.000000        0.084934         1    ;  uncertainty k = 0.847292
        31        30        29        58     9      180.000000        5.968557         2    ;  uncertainty k = 0.494867
        31        30        29        58     9        0.000000        1.218716         3    ;  uncertainty k = 0.358385
        31        30        29        58     9      180.000000        1.316477         4    ;  uncertainty k = 0.174099
        31        30        33        60     9        0.000000       10.341939         1    ;  uncertainty k = 0.540656
        31        30        33        60     9      180.000000        2.803800         2    ;  uncertainty k = 0.491319
        31        30        33        60     9        0.000000        0.659717         3    ;  uncertainty k = 0.233194
        31        30        33        60     9      180.000000        0.274702         4    ;  uncertainty k = 0.180721
        31        34        35        61     9        0.000000        1.007739         1    ;  uncertainty k = 0.169841
        31        34        35        61     9      180.000000       -1.935537         2    ;  uncertainty k = 0.134572
        31        34        35        61     9        0.000000        1.076032         3    ;  uncertainty k = 0.077318
        31        34        35        61     9      180.000000        0.222162         4    ;  uncertainty k = 0.091919
        31        34        35        62     9        0.000000        1.007739         1    ;  uncertainty k = 0.169841
        31        34        35        62     9      180.000000       -1.935537         2    ;  uncertainty k = 0.134572
        31        34        35        62     9        0.000000        1.076032         3    ;  uncertainty k = 0.077318
        31        34        35        62     9      180.000000        0.222162         4    ;  uncertainty k = 0.091919
        31        34        35        63     9        0.000000        1.007739         1    ;  uncertainty k = 0.169841
        31        34        35        63     9      180.000000       -1.935537         2    ;  uncertainty k = 0.134572
        31        34        35        63     9        0.000000        1.076032         3    ;  uncertainty k = 0.077318
        31        34        35        63     9      180.000000        0.222162         4    ;  uncertainty k = 0.091919
        32        26        28        57     9        0.000000        0.036123         1    ;  uncertainty k = 0.189972
        32        26        28        57     9      180.000000        7.068020         2    ;  uncertainty k = 0.601164
        32        26        28        57     9        0.000000        1.448478         3    ;  uncertainty k = 0.262924
        32        26        28        57     9      180.000000        1.613475         4    ;  uncertainty k = 0.214854
        32        31        30        33     9        0.000000        0.261431         1    ;  uncertainty k = 0.198752
        32        31        30        33     9      180.000000        8.356769         2    ;  uncertainty k = 0.606790
        32        31        30        33     9        0.000000        1.007075         3    ;  uncertainty k = 0.165125
        32        31        30        33     9      180.000000        1.525853         4    ;  uncertainty k = 0.265449
        32        31        34        35     9        0.000000        1.257508         1    ;  uncertainty k = 0.769029
        32        31        34        35     9      180.000000        5.566878         2    ;  uncertainty k = 0.270656
        32        31        34        35     9        0.000000        0.214715         3    ;  uncertainty k = 0.187232
        32        31        34        35     9      180.000000        0.030314         4    ;  uncertainty k = 0.075965
        33        30        29        58     9        0.000000       -0.065516         1    ;  uncertainty k = 0.301170
        33        30        29        58     9      180.000000        8.527759         2    ;  uncertainty k = 0.481604
        33        30        29        58     9        0.000000        0.911039         3    ;  uncertainty k = 0.201921
        33        30        29        58     9      180.000000        1.136628         4    ;  uncertainty k = 0.359569
        33        30        31        34     9        0.000000        0.004223         1    ;  uncertainty k = 0.378070
        33        30        31        34     9      180.000000       13.051944         2    ;  uncertainty k = 0.363561
        33        30        31        34     9        0.000000        0.749850         3    ;  uncertainty k = 0.304852
        33        30        31        34     9      180.000000        1.260291         4    ;  uncertainty k = 0.348260
        34        31        32        59     9        0.000000       -0.066781         1    ;  uncertainty k = 0.340104
        34        31        32        59     9      180.000000        9.113989         2    ;  uncertainty k = 0.349859
        34        31        32        59     9        0.000000        0.873377         3    ;  uncertainty k = 0.219539
        34        31        32        59     9      180.000000        1.302323         4    ;  uncertainty k = 0.304145
        36         1         4        38     9        0.000000       -0.173580         1    ;  uncertainty k = 0.121100
        36         1         4        38     9      180.000000        8.183774         2    ;  uncertainty k = 0.315916
        36         1         4        38     9        0.000000       -0.193409         3    ;  uncertainty k = 0.244903
        36         1         4        38     9      180.000000        0.326162         4    ;  uncertainty k = 0.267989
        42        15        16        43     9        0.000000       -0.013045         1    ;  uncertainty k = 0.178040
        42        15        16        43     9      180.000000        7.749499         2    ;  uncertainty k = 0.110935
        42        15        16        43     9        0.000000       -0.170352         3    ;  uncertainty k = 0.227080
        42        15        16        43     9      180.000000        0.302639         4    ;  uncertainty k = 0.156541
        45        19        20        47     9        0.000000        0.633594         1    ;  uncertainty k = 0.761392
        45        19        20        47     9      180.000000       -0.469721         2    ;  uncertainty k = 0.224849
        45        19        20        47     9        0.000000        0.121846         3    ;  uncertainty k = 0.102010
        45        19        20        47     9      180.000000       -0.010722         4    ;  uncertainty k = 0.068107
        46        19        20        47     9        0.000000        0.633594         1    ;  uncertainty k = 0.761392
        46        19        20        47     9      180.000000       -0.469721         2    ;  uncertainty k = 0.224849
        46        19        20        47     9        0.000000        0.121846         3    ;  uncertainty k = 0.102010
        46        19        20        47     9      180.000000       -0.010722         4    ;  uncertainty k = 0.068107
        47        20        21        48     9        0.000000        0.505820         1    ;  uncertainty k = 0.508179
        47        20        21        48     9      180.000000       -0.445261         2    ;  uncertainty k = 0.343433
        47        20        21        48     9        0.000000        0.063530         3    ;  uncertainty k = 0.166996
        47        20        21        48     9      180.000000        0.024300         4    ;  uncertainty k = 0.084356
        47        20        21        49     9        0.000000        0.505820         1    ;  uncertainty k = 0.508179
        47        20        21        49     9      180.000000       -0.445261         2    ;  uncertainty k = 0.343433
        47        20        21        49     9        0.000000        0.063530         3    ;  uncertainty k = 0.166996
        47        20        21        49     9      180.000000        0.024300         4    ;  uncertainty k = 0.084356
        47        20        25        55     9        0.000000        0.505820         1    ;  uncertainty k = 0.508179
        47        20        25        55     9      180.000000       -0.445261         2    ;  uncertainty k = 0.343433
        47        20        25        55     9        0.000000        0.063530         3    ;  uncertainty k = 0.166996
        47        20        25        55     9      180.000000        0.024300         4    ;  uncertainty k = 0.084356
        47        20        25        56     9        0.000000        0.505820         1    ;  uncertainty k = 0.508179
        47        20        25        56     9      180.000000       -0.445261         2    ;  uncertainty k = 0.343433
        47        20        25        56     9        0.000000        0.063530         3    ;  uncertainty k = 0.166996
        47        20        25        56     9      180.000000        0.024300         4    ;  uncertainty k = 0.084356
        48        21        22        50     9        0.000000        0.353241         1    ;  uncertainty k = 0.247073
        48        21        22        50     9      180.000000        0.356302         2    ;  uncertainty k = 0.088459
        48        21        22        50     9        0.000000        0.281586         3    ;  uncertainty k = 0.082622
        48        21        22        50     9      180.000000       -0.046333         4    ;  uncertainty k = 0.052441
        48        21        22        51     9        0.000000        0.353241         1    ;  uncertainty k = 0.247073
        48        21        22        51     9      180.000000        0.356302         2    ;  uncertainty k = 0.088459
        48        21        22        51     9        0.000000        0.281586         3    ;  uncertainty k = 0.082622
        48        21        22        51     9      180.000000       -0.046333         4    ;  uncertainty k = 0.052441
        49        21        22        50     9        0.000000        0.353241         1    ;  uncertainty k = 0.247073
        49        21        22        50     9      180.000000        0.356302         2    ;  uncertainty k = 0.088459
        49        21        22        50     9        0.000000        0.281586         3    ;  uncertainty k = 0.082622
        49        21        22        50     9      180.000000       -0.046333         4    ;  uncertainty k = 0.052441
        49        21        22        51     9        0.000000        0.353241         1    ;  uncertainty k = 0.247073
        49        21        22        51     9      180.000000        0.356302         2    ;  uncertainty k = 0.088459
        49        21        22        51     9        0.000000        0.281586         3    ;  uncertainty k = 0.082622
        49        21        22        51     9      180.000000       -0.046333         4    ;  uncertainty k = 0.052441
        50        22        23        52     9        0.000000        2.065466         1    ;  uncertainty k = 0.581086
        50        22        23        52     9      180.000000        0.128238         2    ;  uncertainty k = 0.153427
        50        22        23        52     9        0.000000        0.323705         3    ;  uncertainty k = 0.122348
        50        22        23        52     9      180.000000        0.126782         4    ;  uncertainty k = 0.032762
        51        22        23        52     9        0.000000        2.065466         1    ;  uncertainty k = 0.581086
        51        22        23        52     9      180.000000        0.128238         2    ;  uncertainty k = 0.153427
        51        22        23        52     9        0.000000        0.323705         3    ;  uncertainty k = 0.122348
        51        22        23        52     9      180.000000        0.126782         4    ;  uncertainty k = 0.032762
        52        23        24        53     9        0.000000        2.065466         1    ;  uncertainty k = 0.581086
        52        23        24        53     9      180.000000        0.128238         2    ;  uncertainty k = 0.153427
        52        23        24        53     9        0.000000        0.323705         3    ;  uncertainty k = 0.122348
        52        23        24        53     9      180.000000        0.126782         4    ;  uncertainty k = 0.032762
        52        23        24        54     9        0.000000        2.065466         1    ;  uncertainty k = 0.581086
        52        23        24        54     9      180.000000        0.128238         2    ;  uncertainty k = 0.153427
        52        23        24        54     9        0.000000        0.323705         3    ;  uncertainty k = 0.122348
        52        23        24        54     9      180.000000        0.126782         4    ;  uncertainty k = 0.032762
        53        24        25        55     9        0.000000        0.353241         1    ;  uncertainty k = 0.247073
        53        24        25        55     9      180.000000        0.356302         2    ;  uncertainty k = 0.088459
        53        24        25        55     9        0.000000        0.281586         3    ;  uncertainty k = 0.082622
        53        24        25        55     9      180.000000       -0.046333         4    ;  uncertainty k = 0.052441
        53        24        25        56     9        0.000000        0.353241         1    ;  uncertainty k = 0.247073
        53        24        25        56     9      180.000000        0.356302         2    ;  uncertainty k = 0.088459
        53        24        25        56     9        0.000000        0.281586         3    ;  uncertainty k = 0.082622
        53        24        25        56     9      180.000000       -0.046333         4    ;  uncertainty k = 0.052441
        54        24        25        55     9        0.000000        0.353241         1    ;  uncertainty k = 0.247073
        54        24        25        55     9      180.000000        0.356302         2    ;  uncertainty k = 0.088459
        54        24        25        55     9        0.000000        0.281586         3    ;  uncertainty k = 0.082622
        54        24        25        55     9      180.000000       -0.046333         4    ;  uncertainty k = 0.052441
        54        24        25        56     9        0.000000        0.353241         1    ;  uncertainty k = 0.247073
        54        24        25        56     9      180.000000        0.356302         2    ;  uncertainty k = 0.088459
        54        24        25        56     9        0.000000        0.281586         3    ;  uncertainty k = 0.082622
        54        24        25        56     9      180.000000       -0.046333         4    ;  uncertainty k = 0.052441
        57        28        29        58     9        0.000000        0.044242         1    ;  uncertainty k = 0.205148
        57        28        29        58     9      180.000000        7.473204         2    ;  uncertainty k = 0.385762
        57        28        29        58     9        0.000000       -0.367067         3    ;  uncertainty k = 0.284948
        57        28        29        58     9      180.000000        0.206025         4    ;  uncertainty k = 0.162405

[ dihedrals ] ; impropers
;       ai        aj        ak        al funct           phase               k        pn
         1         2         4        36     4      180.000000        2.875848         2    ;  uncertainty k = 0.228988
         1         4        36         2     4      180.000000        2.875848         2    ;  uncertainty k = 0.228988
         1        36         2         4     4      180.000000        2.875848         2    ;  uncertainty k = 0.228988
         2         1         3        26     4      180.000000       14.633785         2    ;  uncertainty k = 0.036799
         2         3        26         1     4      180.000000       14.633785         2    ;  uncertainty k = 0.036799
         2        26         1         3     4      180.000000       14.633785         2    ;  uncertainty k = 0.036799
         3         2         6        37     4      180.000000        2.362006         2    ;  uncertainty k = 0.337231
         3         6        37         2     4      180.000000        2.362006         2    ;  uncertainty k = 0.337231
         3        37         2         6     4      180.000000        2.362006         2    ;  uncertainty k = 0.337231
         4         1         5        38     4      180.000000        5.147940         2    ;  uncertainty k = 0.139188
         4         5        38         1     4      180.000000        5.147940         2    ;  uncertainty k = 0.139188
         4        38         1         5     4      180.000000        5.147940         2    ;  uncertainty k = 0.139188
         6         3         5         7     4      180.000000        1.497586         2    ;  uncertainty k = 0.910823
         6         5         7         3     4      180.000000        1.497586         2    ;  uncertainty k = 0.910823
         6         7         3         5     4      180.000000        1.497586         2    ;  uncertainty k = 0.910823
         9         5         8        10     4      180.000000        7.121418         2    ;  uncertainty k = 0.228151
         9         8        10         5     4      180.000000        7.121418         2    ;  uncertainty k = 0.228151
         9        10         5         8     4      180.000000        7.121418         2    ;  uncertainty k = 0.228151
        10         9        11        12     4      180.000000        6.131355         2    ;  uncertainty k = 0.374886
        10        11        12         9     4      180.000000        6.131355         2    ;  uncertainty k = 0.374886
        10        12         9        11     4      180.000000        6.131355         2    ;  uncertainty k = 0.374886
        12        10        13        41     4      180.000000        0.300082         2    ;  uncertainty k = 0.671004
        12        13        41        10     4      180.000000        0.300082         2    ;  uncertainty k = 0.671004
        12        41        10        13     4      180.000000        0.300082         2    ;  uncertainty k = 0.671004
        13        12        14        18     4      180.000000        0.203680         2    ;  uncertainty k = 0.447823
        13        14        18        12     4      180.000000        0.203680         2    ;  uncertainty k = 0.447823
        13        18        12        14     4      180.000000        0.203680         2    ;  uncertainty k = 0.447823
        14        11        13        15     4      180.000000        1.547994         2    ;  uncertainty k = 0.529255
        14        13        15        11     4      180.000000        1.547994         2    ;  uncertainty k = 0.529255
        14        15        11        13     4      180.000000        1.547994         2    ;  uncertainty k = 0.529255
        15        14        16        42     4      180.000000        3.328892         2    ;  uncertainty k = 0.304190
        15        16        42        14     4      180.000000        3.328892         2    ;  uncertainty k = 0.304190
        15        42        14        16     4      180.000000        3.328892         2    ;  uncertainty k = 0.304190
        16        15        17        43     4      180.000000        3.703974         2    ;  uncertainty k = 0.231890
        16        17        43        15     4      180.000000        3.703974         2    ;  uncertainty k = 0.231890
        16        43        15        17     4      180.000000        3.703974         2    ;  uncertainty k = 0.231890
        17        16        18        19     4      180.000000        8.046870         2    ;  uncertainty k = 0.338239
        17        18        19        16     4      180.000000        8.046870         2    ;  uncertainty k = 0.338239
        17        19        16        18     4      180.000000        8.046870         2    ;  uncertainty k = 0.338239
        18        13        17        44     4      180.000000        4.453195         2    ;  uncertainty k = 0.297877
        18        17        44        13     4      180.000000        4.453195         2    ;  uncertainty k = 0.297877
        18        44        13        17     4      180.000000        4.453195         2    ;  uncertainty k = 0.297877
        26         2        28        32     4      180.000000       13.105553         2    ;  uncertainty k = 0.035226
        26        28        32         2     4      180.000000       13.105553         2    ;  uncertainty k = 0.035226
        26        32         2        28     4      180.000000       13.105553         2    ;  uncertainty k = 0.035226
        28        26        29        57     4      180.000000        3.132915         2    ;  uncertainty k = 0.121213
        28        29        57        26     4      180.000000        3.132915         2    ;  uncertainty k = 0.121213
        28        57        26        29     4      180.000000        3.132915         2    ;  uncertainty k = 0.121213
        29        28        30        58     4      180.000000        1.673346         2    ;  uncertainty k = 0.689989
        29        30        58        28     4      180.000000        1.673346         2    ;  uncertainty k = 0.689989
        29        58        28        30     4      180.000000        1.673346         2    ;  uncertainty k = 0.689989
        30        29        31        33     4      180.000000       15.703219         2    ;  uncertainty k = 0.043696
        30        31        33        29     4      180.000000       15.703219         2    ;  uncertainty k = 0.043696
        30        33        29        31     4      180.000000       15.703219         2    ;  uncertainty k = 0.043696
        31        30        32        34     4      180.000000       12.047677         2    ;  uncertainty k = 0.127269
        31        32        34        30     4      180.000000       12.047677         2    ;  uncertainty k = 0.127269
        31        34        30        32     4      180.000000       12.047677         2    ;  uncertainty k = 0.127269
        32        26        31        59     4      180.000000        1.968400         2    ;  uncertainty k = 0.260261
        32        31        59        26     4      180.000000        1.968400         2    ;  uncertainty k = 0.260261
        32        59        26        31     4      180.000000        1.968400         2    ;  uncertainty k = 0.260261

[ pairs ]
;       ai        aj funct
         1         6     1
         1         9     1
         1        28     1
         1        32     1
         1        37     1
         2         5     1
         2         7     1
         2        29     1
         2        31     1
         2        38     1
         2        57     1
         2        59     1
         3         4     1
         3         8     1
         3         9     1
         3        28     1
         3        32     1
         3        36     1
         3        39     1
         4         7     1
         4         8     1
         4        10     1
         4        26     1
         5        11     1
         5        12     1
         5        36     1
         5        37     1
         5        39     1
         6        10     1
         6        26     1
         6        38     1
         7        10     1
         7        37     1
         8        11     1
         8        12     1
         9        13     1
         9        14     1
         9        38     1
         9        39     1
         9        40     1
         9        41     1
        10        15     1
        10        18     1
        11        16     1
        11        18     1
        11        41     1
        11        42     1
        12        15     1
        12        17     1
        12        40     1
        12        44     1
        13        16     1
        13        19     1
        13        40     1
        13        42     1
        14        17     1
        14        41     1
        14        43     1
        14        44     1
        15        18     1
        15        19     1
        15        40     1
        16        20     1
        16        44     1
        16        45     1
        16        46     1
        17        21     1
        17        25     1
        17        42     1
        17        47     1
        18        20     1
        18        41     1
        18        43     1
        18        45     1
        18        46     1
        19        22     1
        19        24     1
        19        43     1
        19        44     1
        19        48     1
        19        49     1
        19        55     1
        19        56     1
        20        23     1
        20        50     1
        20        51     1
        20        53     1
        20        54     1
        21        24     1
        21        27     1
        21        45     1
        21        46     1
        21        52     1
        21        55     1
        21        56     1
        22        25     1
        22        47     1
        22        53     1
        22        54     1
        23        48     1
        23        49     1
        23        55     1
        23        56     1
        24        47     1
        24        50     1
        24        51     1
        25        27     1
        25        45     1
        25        46     1
        25        48     1
        25        49     1
        25        52     1
        26        30     1
        26        34     1
        26        36     1
        26        37     1
        26        58     1
        27        50     1
        27        51     1
        27        53     1
        27        54     1
        28        31     1
        28        33     1
        28        59     1
        29        32     1
        29        34     1
        29        60     1
        30        35     1
        30        57     1
        30        59     1
        31        58     1
        31        60     1
        31        61     1
        31        62     1
        31        63     1
        32        33     1
        32        35     1
        32        57     1
        33        34     1
        33        58     1
        34        59     1
        36        38     1
        42        43     1
        45        47     1
        46        47     1
        47        48     1
        47        49     1
        47        55     1
        47        56     1
        48        50     1
        48        51     1
        49        50     1
        49        51     1
        50        52     1
        51        52     1
        52        53     1
        52        54     1
        53        55     1
        53        56     1
        54        55     1
        54        56     1
        57        58     1
