; ITP file created by ByteFF-ML, 2025-12-06 04:41:59.845064

[ atomtypes ]
;name           bonded.type        at.num        mass        charge   ptype           sigma         epsilon
 c0bf                                   6      0.0000       0.00000       A     3.39813e-01     4.50976e-01
 c1bf                                   6      0.0000       0.00000       A     3.31356e-01     4.11183e-01
 c2bf                                   6      0.0000       0.00000       A     3.31508e-01     4.12834e-01
 c3bf                                   6      0.0000       0.00000       A     3.31356e-01     4.11183e-01
 c4bf                                   6      0.0000       0.00000       A     3.39813e-01     4.50976e-01
 n5bf                                   7      0.0000       0.00000       A     3.38255e-01     3.94373e-01
 c6bf                                   6      0.0000       0.00000       A     3.31548e-01     4.12659e-01
 n7bf                                   7      0.0000       0.00000       A     3.38255e-01     3.94373e-01
 n8bf                                   7      0.0000       0.00000       A     3.19428e-01     8.94136e-01
 c9bf                                   6      0.0000       0.00000       A     3.39585e-01     4.49212e-01
 c10bf                                  6      0.0000       0.00000       A     3.39712e-01     4.49806e-01
 c11bf                                  6      0.0000       0.00000       A     3.39727e-01     4.50797e-01
 n12bf                                  7      0.0000       0.00000       A     3.18141e-01     6.81151e-01
 c13bf                                  6      0.0000       0.00000       A     3.39727e-01     4.50797e-01
 c14bf                                  6      0.0000       0.00000       A     3.39712e-01     4.49806e-01
 c15bf                                  6      0.0000       0.00000       A     3.39585e-01     4.49212e-01
 c16bf                                  6      0.0000       0.00000       A     3.31345e-01     4.09850e-01
 o17bf                                  8      0.0000       0.00000       A     3.04770e-01     6.12733e-01
 c18bf                                  6      0.0000       0.00000       A     3.31534e-01     4.13800e-01
 c19bf                                  6      0.0000       0.00000       A     3.31469e-01     4.13205e-01
 c20bf                                  6      0.0000       0.00000       A     3.31439e-01     4.12456e-01
 c21bf                                  6      0.0000       0.00000       A     3.31493e-01     4.12656e-01
 c22bf                                  6      0.0000       0.00000       A     3.31535e-01     4.14073e-01
 f23bf                                  9      0.0000       0.00000       A     3.03528e-01     3.48604e-01
 c24bf                                  6      0.0000       0.00000       A     3.31301e-01     4.13877e-01
 n25bf                                  7      0.0000       0.00000       A     3.20649e-01     8.48386e-01
 n26bf                                  7      0.0000       0.00000       A     3.38282e-01     3.94810e-01
 c27bf                                  6      0.0000       0.00000       A     3.31301e-01     4.12308e-01
 c28bf                                  6      0.0000       0.00000       A     3.31301e-01     4.12308e-01
 n29bf                                  7      0.0000       0.00000       A     3.38282e-01     3.94810e-01
 h30bf                                  1      0.0000       0.00000       A     2.59989e-01     8.71151e-02
 h31bf                                  1      0.0000       0.00000       A     2.59989e-01     8.71151e-02
 h32bf                                  1      0.0000       0.00000       A     2.59989e-01     8.71151e-02
 h33bf                                  1      0.0000       0.00000       A     2.62556e-01     6.77132e-02
 h34bf                                  1      0.0000       0.00000       A     2.59989e-01     8.71151e-02
 h35bf                                  1      0.0000       0.00000       A     2.59989e-01     8.71151e-02
 h36bf                                  1      0.0000       0.00000       A     2.59989e-01     8.71151e-02
 h37bf                                  1      0.0000       0.00000       A     2.42127e-01     8.72842e-02
 h38bf                                  1      0.0000       0.00000       A     2.42127e-01     8.72842e-02
 h39bf                                  1      0.0000       0.00000       A     2.60149e-01     8.67575e-02
 h40bf                                  1      0.0000       0.00000       A     2.42171e-01     8.72571e-02
 h41bf                                  1      0.0000       0.00000       A     2.42171e-01     8.72571e-02
 h42bf                                  1      0.0000       0.00000       A     2.42171e-01     8.72571e-02
 h43bf                                  1      0.0000       0.00000       A     2.42171e-01     8.72571e-02
 h44bf                                  1      0.0000       0.00000       A     2.60149e-01     8.67575e-02
 h45bf                                  1      0.0000       0.00000       A     2.42127e-01     8.72842e-02
 h46bf                                  1      0.0000       0.00000       A     2.42127e-01     8.72842e-02
 h47bf                                  1      0.0000       0.00000       A     2.62477e-01     6.73541e-02
 h48bf                                  1      0.0000       0.00000       A     2.62486e-01     6.73637e-02
 h49bf                                  1      0.0000       0.00000       A     2.62509e-01     6.71035e-02
 h50bf                                  1      0.0000       0.00000       A     2.53897e-01     6.74946e-02
 h51bf                                  1      0.0000       0.00000       A     2.53897e-01     6.74946e-02

[ moleculetype ]
;name             nrexcl
 set_2_14              3

[ atoms ]
;       nr            type      resi   res      atom      cgnr      charge          mass ; qtot
         1            c0bf         1   UNL        c0         1    -0.15050       12.0110 ; qtot   -0.150
         2            c1bf         1   UNL        c1         2     0.16283       12.0110 ; qtot    0.012
         3            c2bf         1   UNL        c2         3    -0.27614       12.0110 ; qtot   -0.264
         4            c3bf         1   UNL        c3         4     0.16283       12.0110 ; qtot   -0.101
         5            c4bf         1   UNL        c4         5    -0.15050       12.0110 ; qtot   -0.251
         6            n5bf         1   UNL        n5         6    -0.25087       14.0070 ; qtot   -0.502
         7            c6bf         1   UNL        c6         7     0.38591       12.0110 ; qtot   -0.116
         8            n7bf         1   UNL        n7         8    -0.25087       14.0070 ; qtot   -0.367
         9            n8bf         1   UNL        n8         9    -0.78178       14.0070 ; qtot   -1.149
        10            c9bf         1   UNL        c9        10     0.23669       12.0110 ; qtot   -0.912
        11           c10bf         1   UNL       c10        11    -0.10223       12.0110 ; qtot   -1.015
        12           c11bf         1   UNL       c11        12     0.10928       12.0110 ; qtot   -0.905
        13           n12bf         1   UNL       n12        13    -0.41016       14.0070 ; qtot   -1.316
        14           c13bf         1   UNL       c13        14     0.10928       12.0110 ; qtot   -1.206
        15           c14bf         1   UNL       c14        15    -0.10223       12.0110 ; qtot   -1.308
        16           c15bf         1   UNL       c15        16     0.23669       12.0110 ; qtot   -1.072
        17           c16bf         1   UNL       c16        17     0.62782       12.0110 ; qtot   -0.444
        18           o17bf         1   UNL       o17        18    -0.58742       15.9990 ; qtot   -1.031
        19           c18bf         1   UNL       c18        19    -0.10096       12.0110 ; qtot   -1.132
        20           c19bf         1   UNL       c19        20    -0.08303       12.0110 ; qtot   -1.215
        21           c20bf         1   UNL       c20        21    -0.08320       12.0110 ; qtot   -1.299
        22           c21bf         1   UNL       c21        22    -0.13013       12.0110 ; qtot   -1.429
        23           c22bf         1   UNL       c22        23     0.18493       12.0110 ; qtot   -1.244
        24           f23bf         1   UNL       f23        24    -0.16013       18.9980 ; qtot   -1.404
        25           c24bf         1   UNL       c24        25     0.00906       12.0110 ; qtot   -1.395
        26           n25bf         1   UNL       n25        26     0.31767       14.0070 ; qtot   -1.077
        27           n26bf         1   UNL       n26        27    -0.46959       14.0070 ; qtot   -1.547
        28           c27bf         1   UNL       c27        28     0.20554       12.0110 ; qtot   -1.341
        29           c28bf         1   UNL       c28        29     0.20554       12.0110 ; qtot   -1.136
        30           n29bf         1   UNL       n29        30    -0.46959       14.0070 ; qtot   -1.605
        31           h30bf         1   UNL       h30        31     0.05717        1.0080 ; qtot   -1.548
        32           h31bf         1   UNL       h31        32     0.05717        1.0080 ; qtot   -1.491
        33           h32bf         1   UNL       h32        33     0.05717        1.0080 ; qtot   -1.434
        34           h33bf         1   UNL       h33        34     0.13105        1.0080 ; qtot   -1.303
        35           h34bf         1   UNL       h34        35     0.05717        1.0080 ; qtot   -1.246
        36           h35bf         1   UNL       h35        36     0.05717        1.0080 ; qtot   -1.188
        37           h36bf         1   UNL       h36        37     0.05717        1.0080 ; qtot   -1.131
        38           h37bf         1   UNL       h37        38     0.05798        1.0080 ; qtot   -1.073
        39           h38bf         1   UNL       h38        39     0.05798        1.0080 ; qtot   -1.015
        40           h39bf         1   UNL       h39        40     0.07208        1.0080 ; qtot   -0.943
        41           h40bf         1   UNL       h40        41     0.06015        1.0080 ; qtot   -0.883
        42           h41bf         1   UNL       h41        42     0.06015        1.0080 ; qtot   -0.823
        43           h42bf         1   UNL       h42        43     0.06015        1.0080 ; qtot   -0.763
        44           h43bf         1   UNL       h43        44     0.06015        1.0080 ; qtot   -0.703
        45           h44bf         1   UNL       h44        45     0.07208        1.0080 ; qtot   -0.630
        46           h45bf         1   UNL       h45        46     0.05798        1.0080 ; qtot   -0.572
        47           h46bf         1   UNL       h46        47     0.05798        1.0080 ; qtot   -0.515
        48           h47bf         1   UNL       h47        48     0.13212        1.0080 ; qtot   -0.382
        49           h48bf         1   UNL       h48        49     0.12844        1.0080 ; qtot   -0.254
        50           h49bf         1   UNL       h49        50     0.14143        1.0080 ; qtot   -0.113
        51           h50bf         1   UNL       h50        51     0.05626        1.0080 ; qtot   -0.056
        52           h51bf         1   UNL       h51        52     0.05626        1.0080 ; qtot    0.000

[ bonds ]
;       ai        aj funct               r               k
         1         2     1        0.150694   207469.745923
         1        31     1        0.109354   305309.983691
         1        32     1        0.109354   305309.983691
         1        33     1        0.109354   305309.983691
         2         3     1        0.140051   285005.555713
         2         8     1        0.133745   333057.585254
         3         4     1        0.140051   285005.555713
         3        34     1        0.108514   321723.577686
         4         5     1        0.150694   207469.745923
         4         6     1        0.133745   333057.585254
         5        35     1        0.109354   305309.983691
         5        36     1        0.109354   305309.983691
         5        37     1        0.109354   305309.983691
         6         7     1        0.135061   255154.794434
         7         8     1        0.135061   255154.794434
         7         9     1        0.136150   322423.090186
         9        10     1        0.146885   181060.582568
         9        16     1        0.146885   181060.557031
        10        11     1        0.153334   175036.020947
        10        38     1        0.109481   294444.786377
        10        39     1        0.109481   294444.786377
        11        12     1        0.153427   175080.787500
        11        15     1        0.154277   149842.130322
        11        40     1        0.109325   303915.887354
        12        13     1        0.147342   175956.850806
        12        41     1        0.109385   298254.744336
        12        42     1        0.109385   298254.744336
        13        14     1        0.147342   175956.876343
        13        17     1        0.135898   311393.970166
        14        15     1        0.153427   175080.787500
        14        43     1        0.109385   298254.744336
        14        44     1        0.109385   298254.744336
        15        16     1        0.153334   175036.020947
        15        45     1        0.109325   303915.912891
        16        46     1        0.109481   294444.811914
        16        47     1        0.109481   294444.811914
        17        18     1        0.123386   591096.336523
        17        19     1        0.151169   178493.975391
        19        20     1        0.140077   295677.283887
        19        25     1        0.140380   278473.265283
        20        21     1        0.139539   312178.725537
        20        48     1        0.108476   323526.548682
        21        22     1        0.139689   310500.860840
        21        49     1        0.108530   323689.526514
        22        23     1        0.138950   311653.886865
        22        50     1        0.108457   325801.547607
        23        24     1        0.135019   300640.931836
        23        25     1        0.139957   280108.227637
        25        26     1        0.142004   241909.002246
        26        27     1        0.134019   245466.628027
        26        30     1        0.134019   245466.628027
        27        28     1        0.133443   350461.150830
        28        29     1        0.141148   279463.543311
        28        51     1        0.108128   339085.415625
        29        30     1        0.133443   350461.150830
        29        52     1        0.108128   339085.415625

[ angles ]
;       ai        aj        ak funct           theta             cth
         1         2         3     1      122.040428      489.957279
         1         2         8     1      116.354942      475.838226
         2         1        31     1      110.547607      500.572608
         2         1        32     1      110.547607      500.572608
         2         1        33     1      110.547607      500.572608
         2         3         4     1      117.478683      761.775612
         2         3        34     1      121.294067      418.995525
         2         8         7     1      116.614647      960.079055
         3         2         8     1      121.655540      736.540159
         3         4         5     1      122.040428      489.957279
         3         4         6     1      121.655540      736.540159
         4         3        34     1      121.294067      418.995525
         4         5        35     1      110.547607      500.572608
         4         5        36     1      110.547607      500.572608
         4         5        37     1      110.547607      500.572608
         4         6         7     1      116.614647      960.079055
         5         4         6     1      116.354942      475.838226
         6         7         8     1      126.191666      604.351846
         6         7         9     1      116.861961      541.920764
         7         9        10     1      122.793289      492.092852
         7         9        16     1      122.793289      492.092852
         8         7         9     1      116.861961      541.920764
         9        10        11     1      102.892921      518.507927
         9        10        38     1      110.665466      411.334967
         9        10        39     1      110.665466      411.334967
         9        16        15     1      102.892921      518.507927
         9        16        46     1      110.665466      411.334967
         9        16        47     1      110.665466      411.334967
        10         9        16     1      113.053551      339.130642
        10        11        12     1      115.967918      490.766039
        10        11        15     1      103.531944      553.400524
        10        11        40     1      110.411415      471.837231
        11        10        38     1      112.134521      456.886371
        11        10        39     1      112.134521      456.886371
        11        12        13     1      103.395767      529.540724
        11        12        41     1      112.216675      453.127085
        11        12        42     1      112.216675      453.127085
        11        15        14     1      103.849327      536.391532
        11        15        16     1      103.531944      553.400524
        11        15        45     1      111.068626      475.836438
        12        11        15     1      103.849327      536.391532
        12        11        40     1      110.495773      465.529182
        12        13        14     1      111.329147      405.322861
        12        13        17     1      123.362839      463.578211
        13        12        41     1      110.442825      438.278756
        13        12        42     1      110.442825      438.278756
        13        14        15     1      103.395767      529.540756
        13        14        43     1      110.442825      438.278692
        13        14        44     1      110.442825      438.278692
        13        17        18     1      122.774948      631.768933
        13        17        19     1      117.056908      438.583318
        14        13        17     1      123.362839      463.578211
        14        15        16     1      115.967918      490.766039
        14        15        45     1      110.495773      465.529246
        15        11        40     1      111.068642      475.836438
        15        14        43     1      112.216675      453.127085
        15        14        44     1      112.216675      453.127085
        15        16        46     1      112.134521      456.886371
        15        16        47     1      112.134521      456.886371
        16        15        45     1      110.411415      471.837167
        17        19        20     1      118.669312      549.913368
        17        19        25     1      122.264114      542.074561
        18        17        19     1      119.988548      507.192785
        19        20        21     1      120.570724      706.744035
        19        20        48     1      118.942177      380.262051
        19        25        23     1      118.841125      643.605000
        19        25        26     1      120.628616      466.653134
        20        19        25     1      119.199387      688.979464
        20        21        22     1      120.157082      722.811154
        20        21        49     1      120.138138      423.409072
        21        20        48     1      120.424522      417.219675
        21        22        23     1      118.547531      708.025040
        21        22        50     1      122.032104      424.354839
        22        21        49     1      119.745384      427.126733
        22        23        24     1      118.981873      544.385797
        22        23        25     1      122.000412      579.958863
        23        22        50     1      119.272995      437.992517
        23        25        26     1      119.811447      540.408264
        24        23        25     1      119.322876      432.613891
        25        26        27     1      121.961143      514.503963
        25        26        30     1      121.961143      514.503963
        26        27        28     1      103.649246      481.074004
        26        30        29     1      103.649246      481.074004
        27        26        30     1      115.450523      208.388479
        27        28        29     1      108.716530      296.924887
        27        28        51     1      120.785812      390.934424
        28        29        30     1      108.716530      296.924887
        28        29        52     1      130.286758      343.611766
        29        28        51     1      130.286758      343.611766
        30        29        52     1      120.785812      390.934424
        31         1        32     1      108.389893      359.969498
        31         1        33     1      108.389893      359.969498
        32         1        33     1      108.389893      359.969498
        35         5        36     1      108.389893      359.969498
        35         5        37     1      108.389893      359.969498
        36         5        37     1      108.389893      359.969498
        38        10        39     1      107.788414      347.454335
        41        12        42     1      107.816490      348.007916
        43        14        44     1      107.816490      348.007948
        46        16        47     1      107.788414      347.454335

[ dihedrals ] ; propers for gromacs 4.5 or higher, use funct 9
;       ai        aj        ak        al funct           phase               k        pn
         1         2         3         4     9        0.000000        0.256556         1
         1         2         3         4     9      180.000000       13.179428         2
         1         2         3         4     9        0.000000       -0.097633         3
         1         2         3         4     9      180.000000       -0.317869         4
         1         2         3        34     9        0.000000       -0.223957         1
         1         2         3        34     9      180.000000       11.375068         2
         1         2         3        34     9        0.000000       -0.534831         3
         1         2         3        34     9      180.000000        0.134009         4
         1         2         8         7     9        0.000000       -0.024262         1
         1         2         8         7     9      180.000000       17.595210         2
         1         2         8         7     9        0.000000        0.133711         3
         1         2         8         7     9      180.000000       -0.526295         4
         2         3         4         5     9        0.000000        0.256556         1
         2         3         4         5     9      180.000000       13.179428         2
         2         3         4         5     9        0.000000       -0.097633         3
         2         3         4         5     9      180.000000       -0.317869         4
         2         3         4         6     9        0.000000       -0.062248         1
         2         3         4         6     9      180.000000       14.568157         2
         2         3         4         6     9        0.000000       -0.276619         3
         2         3         4         6     9      180.000000       -0.509287         4
         2         8         7         6     9        0.000000        0.513201         1
         2         8         7         6     9      180.000000        9.191428         2
         2         8         7         6     9        0.000000        0.738957         3
         2         8         7         6     9      180.000000       -0.519149         4
         2         8         7         9     9        0.000000        1.229502         1
         2         8         7         9     9      180.000000       16.103329         2
         2         8         7         9     9        0.000000        0.664456         3
         2         8         7         9     9      180.000000       -1.018199         4
         3         2         1        31     9        0.000000       -0.025287         1
         3         2         1        31     9      180.000000       -0.035803         2
         3         2         1        31     9        0.000000       -0.089579         3
         3         2         1        31     9      180.000000        0.005712         4
         3         2         1        32     9        0.000000       -0.025287         1
         3         2         1        32     9      180.000000       -0.035803         2
         3         2         1        32     9        0.000000       -0.089579         3
         3         2         1        32     9      180.000000        0.005712         4
         3         2         1        33     9        0.000000       -0.025287         1
         3         2         1        33     9      180.000000       -0.035803         2
         3         2         1        33     9        0.000000       -0.089579         3
         3         2         1        33     9      180.000000        0.005712         4
         3         2         8         7     9        0.000000       -0.379284         1
         3         2         8         7     9      180.000000       19.341467         2
         3         2         8         7     9        0.000000       -1.106329         3
         3         2         8         7     9      180.000000       -0.500796         4
         3         4         5        35     9        0.000000       -0.025287         1
         3         4         5        35     9      180.000000       -0.035803         2
         3         4         5        35     9        0.000000       -0.089579         3
         3         4         5        35     9      180.000000        0.005712         4
         3         4         5        36     9        0.000000       -0.025287         1
         3         4         5        36     9      180.000000       -0.035803         2
         3         4         5        36     9        0.000000       -0.089579         3
         3         4         5        36     9      180.000000        0.005712         4
         3         4         5        37     9        0.000000       -0.025287         1
         3         4         5        37     9      180.000000       -0.035803         2
         3         4         5        37     9        0.000000       -0.089579         3
         3         4         5        37     9      180.000000        0.005712         4
         3         4         6         7     9        0.000000       -0.379284         1
         3         4         6         7     9      180.000000       19.341467         2
         3         4         6         7     9        0.000000       -1.106329         3
         3         4         6         7     9      180.000000       -0.500796         4
         4         3         2         8     9        0.000000       -0.062248         1
         4         3         2         8     9      180.000000       14.568157         2
         4         3         2         8     9        0.000000       -0.276619         3
         4         3         2         8     9      180.000000       -0.509287         4
         4         6         7         8     9        0.000000        0.513201         1
         4         6         7         8     9      180.000000        9.191428         2
         4         6         7         8     9        0.000000        0.738957         3
         4         6         7         8     9      180.000000       -0.519149         4
         4         6         7         9     9        0.000000        1.229502         1
         4         6         7         9     9      180.000000       16.103329         2
         4         6         7         9     9        0.000000        0.664456         3
         4         6         7         9     9      180.000000       -1.018199         4
         5         4         3        34     9        0.000000       -0.223957         1
         5         4         3        34     9      180.000000       11.375068         2
         5         4         3        34     9        0.000000       -0.534831         3
         5         4         3        34     9      180.000000        0.134009         4
         5         4         6         7     9        0.000000       -0.024262         1
         5         4         6         7     9      180.000000       17.595210         2
         5         4         6         7     9        0.000000        0.133711         3
         5         4         6         7     9      180.000000       -0.526295         4
         6         4         3        34     9        0.000000       -0.034010         1
         6         4         3        34     9      180.000000       12.223298         2
         6         4         3        34     9        0.000000       -0.267637         3
         6         4         3        34     9      180.000000       -0.072661         4
         6         4         5        35     9        0.000000        0.003881         1
         6         4         5        35     9      180.000000       -0.062736         2
         6         4         5        35     9        0.000000        0.023445         3
         6         4         5        35     9      180.000000       -0.007650         4
         6         4         5        36     9        0.000000        0.003881         1
         6         4         5        36     9      180.000000       -0.062736         2
         6         4         5        36     9        0.000000        0.023445         3
         6         4         5        36     9      180.000000       -0.007650         4
         6         4         5        37     9        0.000000        0.003881         1
         6         4         5        37     9      180.000000       -0.062736         2
         6         4         5        37     9        0.000000        0.023445         3
         6         4         5        37     9      180.000000       -0.007650         4
         6         7         9        10     9        0.000000        0.747629         1
         6         7         9        10     9      180.000000        9.366862         2
         6         7         9        10     9        0.000000       -0.095722         3
         6         7         9        10     9      180.000000       -1.018207         4
         6         7         9        16     9        0.000000        0.747628         1
         6         7         9        16     9      180.000000        9.366863         2
         6         7         9        16     9        0.000000       -0.095722         3
         6         7         9        16     9      180.000000       -1.018207         4
         7         9        10        11     9        0.000000       -3.777482         1
         7         9        10        11     9      180.000000       -0.445033         2
         7         9        10        11     9        0.000000        0.410579         3
         7         9        10        11     9      180.000000        0.178916         4
         7         9        10        38     9        0.000000       -0.010161         1
         7         9        10        38     9      180.000000       -0.080809         2
         7         9        10        38     9        0.000000        0.536714         3
         7         9        10        38     9      180.000000       -0.022063         4
         7         9        10        39     9        0.000000       -0.010161         1
         7         9        10        39     9      180.000000       -0.080809         2
         7         9        10        39     9        0.000000        0.536714         3
         7         9        10        39     9      180.000000       -0.022063         4
         7         9        16        15     9        0.000000       -3.777482         1
         7         9        16        15     9      180.000000       -0.445032         2
         7         9        16        15     9        0.000000        0.410579         3
         7         9        16        15     9      180.000000        0.178916         4
         7         9        16        46     9        0.000000       -0.010160         1
         7         9        16        46     9      180.000000       -0.080811         2
         7         9        16        46     9        0.000000        0.536714         3
         7         9        16        46     9      180.000000       -0.022063         4
         7         9        16        47     9        0.000000       -0.010160         1
         7         9        16        47     9      180.000000       -0.080811         2
         7         9        16        47     9        0.000000        0.536714         3
         7         9        16        47     9      180.000000       -0.022063         4
         8         2         1        31     9        0.000000        0.003881         1
         8         2         1        31     9      180.000000       -0.062736         2
         8         2         1        31     9        0.000000        0.023445         3
         8         2         1        31     9      180.000000       -0.007650         4
         8         2         1        32     9        0.000000        0.003881         1
         8         2         1        32     9      180.000000       -0.062736         2
         8         2         1        32     9        0.000000        0.023445         3
         8         2         1        32     9      180.000000       -0.007650         4
         8         2         1        33     9        0.000000        0.003881         1
         8         2         1        33     9      180.000000       -0.062736         2
         8         2         1        33     9        0.000000        0.023445         3
         8         2         1        33     9      180.000000       -0.007650         4
         8         2         3        34     9        0.000000       -0.034010         1
         8         2         3        34     9      180.000000       12.223298         2
         8         2         3        34     9        0.000000       -0.267637         3
         8         2         3        34     9      180.000000       -0.072661         4
         8         7         9        10     9        0.000000        0.747629         1
         8         7         9        10     9      180.000000        9.366862         2
         8         7         9        10     9        0.000000       -0.095722         3
         8         7         9        10     9      180.000000       -1.018207         4
         8         7         9        16     9        0.000000        0.747628         1
         8         7         9        16     9      180.000000        9.366863         2
         8         7         9        16     9        0.000000       -0.095722         3
         8         7         9        16     9      180.000000       -1.018207         4
         9        10        11        12     9        0.000000        0.141091         1
         9        10        11        12     9      180.000000       -1.554592         2
         9        10        11        12     9        0.000000        0.129275         3
         9        10        11        12     9      180.000000        0.187854         4
         9        10        11        15     9        0.000000       -3.183876         1
         9        10        11        15     9      180.000000       11.770762         2
         9        10        11        15     9        0.000000       -0.669596         3
         9        10        11        15     9      180.000000       -2.371235         4
         9        10        11        40     9        0.000000        3.046270         1
         9        10        11        40     9      180.000000       -0.789547         2
         9        10        11        40     9        0.000000       -0.188589         3
         9        10        11        40     9      180.000000        0.438256         4
         9        16        15        11     9        0.000000       -3.183875         1
         9        16        15        11     9      180.000000       11.770769         2
         9        16        15        11     9        0.000000       -0.669596         3
         9        16        15        11     9      180.000000       -2.371236         4
         9        16        15        14     9        0.000000        0.141092         1
         9        16        15        14     9      180.000000       -1.554592         2
         9        16        15        14     9        0.000000        0.129275         3
         9        16        15        14     9      180.000000        0.187854         4
         9        16        15        45     9        0.000000        3.046268         1
         9        16        15        45     9      180.000000       -0.789546         2
         9        16        15        45     9        0.000000       -0.188588         3
         9        16        15        45     9      180.000000        0.438255         4
        10         9        16        15     9        0.000000       -0.515520         1
        10         9        16        15     9      180.000000        0.695785         2
        10         9        16        15     9        0.000000        0.374724         3
        10         9        16        15     9      180.000000       -0.306280         4
        10         9        16        46     9        0.000000       -0.040238         1
        10         9        16        46     9      180.000000       -0.063463         2
        10         9        16        46     9        0.000000        0.343610         3
        10         9        16        46     9      180.000000        0.107466         4
        10         9        16        47     9        0.000000       -0.040238         1
        10         9        16        47     9      180.000000       -0.063463         2
        10         9        16        47     9        0.000000        0.343610         3
        10         9        16        47     9      180.000000        0.107466         4
        10        11        12        13     9        0.000000       -0.410988         1
        10        11        12        13     9      180.000000       -1.385797         2
        10        11        12        13     9        0.000000        0.136984         3
        10        11        12        13     9      180.000000        0.093039         4
        10        11        12        41     9        0.000000       -0.090271         1
        10        11        12        41     9      180.000000        0.043314         2
        10        11        12        41     9        0.000000        0.181102         3
        10        11        12        41     9      180.000000        0.056845         4
        10        11        12        42     9        0.000000       -0.090271         1
        10        11        12        42     9      180.000000        0.043314         2
        10        11        12        42     9        0.000000        0.181102         3
        10        11        12        42     9      180.000000        0.056845         4
        10        11        15        14     9        0.000000       -1.429697         1
        10        11        15        14     9      180.000000       -0.955407         2
        10        11        15        14     9        0.000000        0.546147         3
        10        11        15        14     9      180.000000       -0.724521         4
        10        11        15        16     9        0.000000       -1.723216         1
        10        11        15        16     9      180.000000       -1.104300         2
        10        11        15        16     9        0.000000        0.465854         3
        10        11        15        16     9      180.000000       -0.749204         4
        10        11        15        45     9        0.000000        0.196400         1
        10        11        15        45     9      180.000000        0.124290         2
        10        11        15        45     9        0.000000        0.308843         3
        10        11        15        45     9      180.000000        0.285300         4
        11        10         9        16     9        0.000000       -0.515520         1
        11        10         9        16     9      180.000000        0.695787         2
        11        10         9        16     9        0.000000        0.374724         3
        11        10         9        16     9      180.000000       -0.306281         4
        11        12        13        14     9        0.000000       -0.115320         1
        11        12        13        14     9      180.000000       -0.195851         2
        11        12        13        14     9        0.000000        0.225772         3
        11        12        13        14     9      180.000000       -0.049084         4
        11        12        13        17     9        0.000000       -0.937710         1
        11        12        13        17     9      180.000000       -0.735079         2
        11        12        13        17     9        0.000000        0.100107         3
        11        12        13        17     9      180.000000        0.167569         4
        11        15        14        13     9        0.000000       -2.854021         1
        11        15        14        13     9      180.000000        7.702166         2
        11        15        14        13     9        0.000000       -0.708712         3
        11        15        14        13     9      180.000000       -1.169470         4
        11        15        14        43     9        0.000000        0.022483         1
        11        15        14        43     9      180.000000       -0.185436         2
        11        15        14        43     9        0.000000       -0.302149         3
        11        15        14        43     9      180.000000        0.229395         4
        11        15        14        44     9        0.000000        0.022483         1
        11        15        14        44     9      180.000000       -0.185436         2
        11        15        14        44     9        0.000000       -0.302149         3
        11        15        14        44     9      180.000000        0.229395         4
        11        15        16        46     9        0.000000        0.005453         1
        11        15        16        46     9      180.000000       -0.187956         2
        11        15        16        46     9        0.000000       -0.253493         3
        11        15        16        46     9      180.000000        0.289446         4
        11        15        16        47     9        0.000000        0.005453         1
        11        15        16        47     9      180.000000       -0.187956         2
        11        15        16        47     9        0.000000       -0.253493         3
        11        15        16        47     9      180.000000        0.289446         4
        12        11        10        38     9        0.000000       -0.150868         1
        12        11        10        38     9      180.000000        0.072012         2
        12        11        10        38     9        0.000000        0.214875         3
        12        11        10        38     9      180.000000        0.045180         4
        12        11        10        39     9        0.000000       -0.150868         1
        12        11        10        39     9      180.000000        0.072012         2
        12        11        10        39     9        0.000000        0.214875         3
        12        11        10        39     9      180.000000        0.045180         4
        12        11        15        14     9        0.000000       -0.903494         1
        12        11        15        14     9      180.000000       -0.930898         2
        12        11        15        14     9        0.000000        0.568820         3
        12        11        15        14     9      180.000000       -0.686260         4
        12        11        15        16     9        0.000000       -1.429699         1
        12        11        15        16     9      180.000000       -0.955405         2
        12        11        15        16     9        0.000000        0.546147         3
        12        11        15        16     9      180.000000       -0.724522         4
        12        11        15        45     9        0.000000       -0.022164         1
        12        11        15        45     9      180.000000        0.142975         2
        12        11        15        45     9        0.000000        0.388150         3
        12        11        15        45     9      180.000000        0.197015         4
        12        13        14        15     9        0.000000       -0.115321         1
        12        13        14        15     9      180.000000       -0.195851         2
        12        13        14        15     9        0.000000        0.225772         3
        12        13        14        15     9      180.000000       -0.049084         4
        12        13        14        43     9        0.000000       -0.036132         1
        12        13        14        43     9      180.000000       -0.000356         2
        12        13        14        43     9        0.000000        0.119650         3
        12        13        14        43     9      180.000000        0.062908         4
        12        13        14        44     9        0.000000       -0.036132         1
        12        13        14        44     9      180.000000       -0.000356         2
        12        13        14        44     9        0.000000        0.119650         3
        12        13        14        44     9      180.000000        0.062908         4
        12        13        17        18     9        0.000000       -1.575977         1
        12        13        17        18     9      180.000000       13.638489         2
        12        13        17        18     9        0.000000       -1.109431         3
        12        13        17        18     9      180.000000       -0.224514         4
        12        13        17        19     9        0.000000        5.763292         1
        12        13        17        19     9      180.000000       11.842367         2
        12        13        17        19     9        0.000000        1.567574         3
        12        13        17        19     9      180.000000       -0.495068         4
        13        12        11        15     9        0.000000       -2.854020         1
        13        12        11        15     9      180.000000        7.702162         2
        13        12        11        15     9        0.000000       -0.708712         3
        13        12        11        15     9      180.000000       -1.169470         4
        13        12        11        40     9        0.000000        0.989397         1
        13        12        11        40     9      180.000000       -0.387239         2
        13        12        11        40     9        0.000000       -0.055241         3
        13        12        11        40     9      180.000000        0.255011         4
        13        14        15        16     9        0.000000       -0.410988         1
        13        14        15        16     9      180.000000       -1.385796         2
        13        14        15        16     9        0.000000        0.136984         3
        13        14        15        16     9      180.000000        0.093039         4
        13        14        15        45     9        0.000000        0.989397         1
        13        14        15        45     9      180.000000       -0.387239         2
        13        14        15        45     9        0.000000       -0.055240         3
        13        14        15        45     9      180.000000        0.255012         4
        13        17        19        20     9        0.000000        1.430499         1
        13        17        19        20     9      180.000000        3.657953         2
        13        17        19        20     9        0.000000        0.214870         3
        13        17        19        20     9      180.000000        0.042622         4
        13        17        19        25     9        0.000000       -0.674949         1
        13        17        19        25     9      180.000000        4.249190         2
        13        17        19        25     9        0.000000       -0.785511         3
        13        17        19        25     9      180.000000        0.230678         4
        14        13        12        41     9        0.000000       -0.036132         1
        14        13        12        41     9      180.000000       -0.000356         2
        14        13        12        41     9        0.000000        0.119649         3
        14        13        12        41     9      180.000000        0.062908         4
        14        13        12        42     9        0.000000       -0.036132         1
        14        13        12        42     9      180.000000       -0.000356         2
        14        13        12        42     9        0.000000        0.119649         3
        14        13        12        42     9      180.000000        0.062908         4
        14        13        17        18     9        0.000000       -1.575977         1
        14        13        17        18     9      180.000000       13.638489         2
        14        13        17        18     9        0.000000       -1.109430         3
        14        13        17        18     9      180.000000       -0.224514         4
        14        13        17        19     9        0.000000        5.763292         1
        14        13        17        19     9      180.000000       11.842368         2
        14        13        17        19     9        0.000000        1.567574         3
        14        13        17        19     9      180.000000       -0.495069         4
        14        15        11        40     9        0.000000       -0.022163         1
        14        15        11        40     9      180.000000        0.142975         2
        14        15        11        40     9        0.000000        0.388150         3
        14        15        11        40     9      180.000000        0.197014         4
        14        15        16        46     9        0.000000       -0.150868         1
        14        15        16        46     9      180.000000        0.072012         2
        14        15        16        46     9        0.000000        0.214875         3
        14        15        16        46     9      180.000000        0.045180         4
        14        15        16        47     9        0.000000       -0.150868         1
        14        15        16        47     9      180.000000        0.072012         2
        14        15        16        47     9        0.000000        0.214875         3
        14        15        16        47     9      180.000000        0.045180         4
        15        11        10        38     9        0.000000        0.005454         1
        15        11        10        38     9      180.000000       -0.187956         2
        15        11        10        38     9        0.000000       -0.253494         3
        15        11        10        38     9      180.000000        0.289446         4
        15        11        10        39     9        0.000000        0.005454         1
        15        11        10        39     9      180.000000       -0.187956         2
        15        11        10        39     9        0.000000       -0.253494         3
        15        11        10        39     9      180.000000        0.289446         4
        15        11        12        41     9        0.000000        0.022483         1
        15        11        12        41     9      180.000000       -0.185435         2
        15        11        12        41     9        0.000000       -0.302149         3
        15        11        12        41     9      180.000000        0.229395         4
        15        11        12        42     9        0.000000        0.022483         1
        15        11        12        42     9      180.000000       -0.185435         2
        15        11        12        42     9        0.000000       -0.302149         3
        15        11        12        42     9      180.000000        0.229395         4
        15        14        13        17     9        0.000000       -0.937710         1
        15        14        13        17     9      180.000000       -0.735078         2
        15        14        13        17     9        0.000000        0.100106         3
        15        14        13        17     9      180.000000        0.167569         4
        16         9        10        38     9        0.000000       -0.040238         1
        16         9        10        38     9      180.000000       -0.063462         2
        16         9        10        38     9        0.000000        0.343610         3
        16         9        10        38     9      180.000000        0.107466         4
        16         9        10        39     9        0.000000       -0.040238         1
        16         9        10        39     9      180.000000       -0.063462         2
        16         9        10        39     9        0.000000        0.343610         3
        16         9        10        39     9      180.000000        0.107466         4
        16        15        11        40     9        0.000000        0.196400         1
        16        15        11        40     9      180.000000        0.124289         2
        16        15        11        40     9        0.000000        0.308842         3
        16        15        11        40     9      180.000000        0.285300         4
        16        15        14        43     9        0.000000       -0.090272         1
        16        15        14        43     9      180.000000        0.043313         2
        16        15        14        43     9        0.000000        0.181102         3
        16        15        14        43     9      180.000000        0.056845         4
        16        15        14        44     9        0.000000       -0.090272         1
        16        15        14        44     9      180.000000        0.043313         2
        16        15        14        44     9        0.000000        0.181102         3
        16        15        14        44     9      180.000000        0.056845         4
        17        13        12        41     9        0.000000        0.032335         1
        17        13        12        41     9      180.000000        0.081838         2
        17        13        12        41     9        0.000000        0.090086         3
        17        13        12        41     9      180.000000       -0.011094         4
        17        13        12        42     9        0.000000        0.032335         1
        17        13        12        42     9      180.000000        0.081838         2
        17        13        12        42     9        0.000000        0.090086         3
        17        13        12        42     9      180.000000       -0.011094         4
        17        13        14        43     9        0.000000        0.032336         1
        17        13        14        43     9      180.000000        0.081837         2
        17        13        14        43     9        0.000000        0.090086         3
        17        13        14        43     9      180.000000       -0.011095         4
        17        13        14        44     9        0.000000        0.032336         1
        17        13        14        44     9      180.000000        0.081837         2
        17        13        14        44     9        0.000000        0.090086         3
        17        13        14        44     9      180.000000       -0.011095         4
        17        19        20        21     9        0.000000        0.090148         1
        17        19        20        21     9      180.000000       15.547059         2
        17        19        20        21     9        0.000000       -0.162031         3
        17        19        20        21     9      180.000000       -0.328849         4
        17        19        20        48     9        0.000000        0.062605         1
        17        19        20        48     9      180.000000       12.624864         2
        17        19        20        48     9        0.000000       -0.296868         3
        17        19        20        48     9      180.000000        0.154822         4
        17        19        25        23     9        0.000000       -0.139554         1
        17        19        25        23     9      180.000000       11.827081         2
        17        19        25        23     9        0.000000       -0.104425         3
        17        19        25        23     9      180.000000       -0.283731         4
        17        19        25        26     9        0.000000       -0.076874         1
        17        19        25        26     9      180.000000       16.182597         2
        17        19        25        26     9        0.000000        0.490262         3
        17        19        25        26     9      180.000000       -0.939211         4
        18        17        19        20     9        0.000000        0.980512         1
        18        17        19        20     9      180.000000        1.297963         2
        18        17        19        20     9        0.000000        0.459285         3
        18        17        19        20     9      180.000000       -0.000871         4
        18        17        19        25     9        0.000000       -7.046831         1
        18        17        19        25     9      180.000000        1.927230         2
        18        17        19        25     9        0.000000       -0.007397         3
        18        17        19        25     9      180.000000       -0.051218         4
        19        20        21        22     9        0.000000       -0.069400         1
        19        20        21        22     9      180.000000       19.106694         2
        19        20        21        22     9        0.000000       -1.548878         3
        19        20        21        22     9      180.000000       -0.525094         4
        19        20        21        49     9        0.000000       -0.021960         1
        19        20        21        49     9      180.000000       14.834804         2
        19        20        21        49     9        0.000000       -0.709257         3
        19        20        21        49     9      180.000000       -0.007302         4
        19        25        23        22     9        0.000000       -0.071266         1
        19        25        23        22     9      180.000000       14.182515         2
        19        25        23        22     9        0.000000       -1.065580         3
        19        25        23        22     9      180.000000       -0.208911         4
        19        25        23        24     9        0.000000        0.574944         1
        19        25        23        24     9      180.000000       19.049413         2
        19        25        23        24     9        0.000000        0.309196         3
        19        25        23        24     9      180.000000       -0.595349         4
        19        25        26        27     9        0.000000       -0.515797         1
        19        25        26        27     9      180.000000        3.572705         2
        19        25        26        27     9        0.000000       -0.021320         3
        19        25        26        27     9      180.000000       -0.092495         4
        19        25        26        30     9        0.000000       -0.515797         1
        19        25        26        30     9      180.000000        3.572705         2
        19        25        26        30     9        0.000000       -0.021320         3
        19        25        26        30     9      180.000000       -0.092495         4
        20        19        25        23     9        0.000000       -0.214831         1
        20        19        25        23     9      180.000000       16.362574         2
        20        19        25        23     9        0.000000       -1.496973         3
        20        19        25        23     9      180.000000       -0.314084         4
        20        19        25        26     9        0.000000        0.086905         1
        20        19        25        26     9      180.000000       17.672011         2
        20        19        25        26     9        0.000000       -0.103868         3
        20        19        25        26     9      180.000000       -0.509461         4
        20        21        22        23     9        0.000000       -0.035606         1
        20        21        22        23     9      180.000000       18.834799         2
        20        21        22        23     9        0.000000       -1.764859         3
        20        21        22        23     9      180.000000       -0.433703         4
        20        21        22        50     9        0.000000        0.153142         1
        20        21        22        50     9      180.000000       14.050417         2
        20        21        22        50     9        0.000000       -0.697687         3
        20        21        22        50     9      180.000000        0.137568         4
        21        20        19        25     9        0.000000        0.099338         1
        21        20        19        25     9      180.000000       18.271056         2
        21        20        19        25     9        0.000000       -1.478402         3
        21        20        19        25     9      180.000000       -0.399112         4
        21        22        23        24     9        0.000000        0.498656         1
        21        22        23        24     9      180.000000       23.515474         2
        21        22        23        24     9        0.000000        0.658220         3
        21        22        23        24     9      180.000000       -0.704618         4
        21        22        23        25     9        0.000000        0.149218         1
        21        22        23        25     9      180.000000       17.287837         2
        21        22        23        25     9        0.000000       -1.179970         3
        21        22        23        25     9      180.000000       -0.351371         4
        22        21        20        48     9        0.000000        0.112300         1
        22        21        20        48     9      180.000000       15.254800         2
        22        21        20        48     9        0.000000       -0.575429         3
        22        21        20        48     9      180.000000        0.025314         4
        22        23        25        26     9        0.000000        0.199232         1
        22        23        25        26     9      180.000000       15.817390         2
        22        23        25        26     9        0.000000       -0.082103         3
        22        23        25        26     9      180.000000       -0.266982         4
        23        22        21        49     9        0.000000        0.209347         1
        23        22        21        49     9      180.000000       14.971469         2
        23        22        21        49     9        0.000000       -0.650444         3
        23        22        21        49     9      180.000000        0.011058         4
        23        25        26        27     9        0.000000        0.707985         1
        23        25        26        27     9      180.000000        2.283476         2
        23        25        26        27     9        0.000000        0.073150         3
        23        25        26        27     9      180.000000       -0.093389         4
        23        25        26        30     9        0.000000        0.707985         1
        23        25        26        30     9      180.000000        2.283476         2
        23        25        26        30     9        0.000000        0.073150         3
        23        25        26        30     9      180.000000       -0.093389         4
        24        23        22        50     9        0.000000        0.164120         1
        24        23        22        50     9      180.000000       16.809758         2
        24        23        22        50     9        0.000000        0.331321         3
        24        23        22        50     9      180.000000        0.086830         4
        24        23        25        26     9        0.000000        0.088510         1
        24        23        25        26     9      180.000000       20.075238         2
        24        23        25        26     9        0.000000        0.437781         3
        24        23        25        26     9      180.000000       -0.972656         4
        25        19        20        48     9        0.000000        0.291056         1
        25        19        20        48     9      180.000000       14.065302         2
        25        19        20        48     9        0.000000       -0.289815         3
        25        19        20        48     9      180.000000        0.081147         4
        25        23        22        50     9        0.000000        0.132301         1
        25        23        22        50     9      180.000000       12.824636         2
        25        23        22        50     9        0.000000       -0.438391         3
        25        23        22        50     9      180.000000        0.093486         4
        25        26        27        28     9        0.000000        0.973346         1
        25        26        27        28     9      180.000000       14.994612         2
        25        26        27        28     9        0.000000        0.384336         3
        25        26        27        28     9      180.000000       -0.354985         4
        25        26        30        29     9        0.000000        0.973346         1
        25        26        30        29     9      180.000000       14.994612         2
        25        26        30        29     9        0.000000        0.384336         3
        25        26        30        29     9      180.000000       -0.354985         4
        26        27        28        29     9        0.000000       -0.061539         1
        26        27        28        29     9      180.000000       41.126525         2
        26        27        28        29     9        0.000000       -5.902358         3
        26        27        28        29     9      180.000000        0.028740         4
        26        27        28        51     9        0.000000        1.402310         1
        26        27        28        51     9      180.000000       26.481184         2
        26        27        28        51     9        0.000000       -0.227910         3
        26        27        28        51     9      180.000000       -0.184011         4
        26        30        29        28     9        0.000000       -0.061539         1
        26        30        29        28     9      180.000000       41.126525         2
        26        30        29        28     9        0.000000       -5.902358         3
        26        30        29        28     9      180.000000        0.028740         4
        26        30        29        52     9        0.000000        1.402310         1
        26        30        29        52     9      180.000000       26.481184         2
        26        30        29        52     9        0.000000       -0.227910         3
        26        30        29        52     9      180.000000       -0.184011         4
        27        26        30        29     9        0.000000       -0.197759         1
        27        26        30        29     9      180.000000       32.930234         2
        27        26        30        29     9        0.000000       -5.578678         3
        27        26        30        29     9      180.000000        0.133325         4
        27        28        29        30     9        0.000000       -0.580134         1
        27        28        29        30     9      180.000000       33.698638         2
        27        28        29        30     9        0.000000       -8.008971         3
        27        28        29        30     9      180.000000       -0.038364         4
        27        28        29        52     9        0.000000        0.411150         1
        27        28        29        52     9      180.000000       15.822173         2
        27        28        29        52     9        0.000000       -0.612585         3
        27        28        29        52     9      180.000000       -0.479790         4
        28        27        26        30     9        0.000000       -0.197759         1
        28        27        26        30     9      180.000000       32.930234         2
        28        27        26        30     9        0.000000       -5.578678         3
        28        27        26        30     9      180.000000        0.133325         4
        30        29        28        51     9        0.000000        0.411150         1
        30        29        28        51     9      180.000000       15.822173         2
        30        29        28        51     9        0.000000       -0.612585         3
        30        29        28        51     9      180.000000       -0.479790         4
        38        10        11        40     9        0.000000       -0.140740         1
        38        10        11        40     9      180.000000       -0.009946         2
        38        10        11        40     9        0.000000        0.295617         3
        38        10        11        40     9      180.000000       -0.018107         4
        39        10        11        40     9        0.000000       -0.140740         1
        39        10        11        40     9      180.000000       -0.009946         2
        39        10        11        40     9        0.000000        0.295617         3
        39        10        11        40     9      180.000000       -0.018107         4
        40        11        12        41     9        0.000000       -0.086595         1
        40        11        12        41     9      180.000000        0.026399         2
        40        11        12        41     9        0.000000        0.269152         3
        40        11        12        41     9      180.000000       -0.020189         4
        40        11        12        42     9        0.000000       -0.086595         1
        40        11        12        42     9      180.000000        0.026399         2
        40        11        12        42     9        0.000000        0.269152         3
        40        11        12        42     9      180.000000       -0.020189         4
        40        11        15        45     9        0.000000        0.223574         1
        40        11        15        45     9      180.000000       -0.077956         2
        40        11        15        45     9        0.000000        0.353694         3
        40        11        15        45     9      180.000000       -0.057173         4
        43        14        15        45     9        0.000000       -0.086595         1
        43        14        15        45     9      180.000000        0.026398         2
        43        14        15        45     9        0.000000        0.269152         3
        43        14        15        45     9      180.000000       -0.020189         4
        44        14        15        45     9        0.000000       -0.086595         1
        44        14        15        45     9      180.000000        0.026398         2
        44        14        15        45     9        0.000000        0.269152         3
        44        14        15        45     9      180.000000       -0.020189         4
        45        15        16        46     9        0.000000       -0.140741         1
        45        15        16        46     9      180.000000       -0.009947         2
        45        15        16        46     9        0.000000        0.295617         3
        45        15        16        46     9      180.000000       -0.018107         4
        45        15        16        47     9        0.000000       -0.140741         1
        45        15        16        47     9      180.000000       -0.009947         2
        45        15        16        47     9        0.000000        0.295617         3
        45        15        16        47     9      180.000000       -0.018107         4
        48        20        21        49     9        0.000000       -0.098722         1
        48        20        21        49     9      180.000000       12.185213         2
        48        20        21        49     9        0.000000       -0.680056         3
        48        20        21        49     9      180.000000        0.185707         4
        49        21        22        50     9        0.000000       -0.088347         1
        49        21        22        50     9      180.000000       11.405769         2
        49        21        22        50     9        0.000000       -0.544526         3
        49        21        22        50     9      180.000000        0.132071         4
        51        28        29        52     9        0.000000       -0.304766         1
        51        28        29        52     9      180.000000        8.321253         2
        51        28        29        52     9        0.000000       -0.141498         3
        51        28        29        52     9      180.000000        0.273252         4

[ dihedrals ] ; impropers
;       ai        aj        ak        al funct           phase               k        pn
         2         1         3         8     4      180.000000       21.793920         2
         2         3         8         1     4      180.000000       21.793920         2
         2         8         1         3     4      180.000000       21.793920         2
         4         3         5         6     4      180.000000       21.793920         2
         4         5         6         3     4      180.000000       21.793920         2
         4         6         3         5     4      180.000000       21.793920         2
         7         6         8         9     4      180.000000       27.893333         2
         7         8         9         6     4      180.000000       27.893333         2
         7         9         6         8     4      180.000000       27.893333         2
        21        20        22        49     4      180.000000        3.451274         2
        21        22        49        20     4      180.000000        3.451274         2
        21        49        20        22     4      180.000000        3.451274         2
        22        21        23        50     4      180.000000        0.369026         2
        22        23        50        21     4      180.000000        0.369026         2
        22        50        21        23     4      180.000000        0.369026         2

[ pairs ]
;       ai        aj funct
         1         4     1
         1         7     1
         1        34     1
         2         5     1
         2         6     1
         2         9     1
         3         7     1
         3        31     1
         3        32     1
         3        33     1
         3        35     1
         3        36     1
         3        37     1
         4         8     1
         4         9     1
         5         7     1
         5        34     1
         6        10     1
         6        16     1
         6        34     1
         6        35     1
         6        36     1
         6        37     1
         7        11     1
         7        15     1
         7        38     1
         7        39     1
         7        46     1
         7        47     1
         8        10     1
         8        16     1
         8        31     1
         8        32     1
         8        33     1
         8        34     1
         9        12     1
         9        14     1
         9        40     1
         9        45     1
        10        13     1
        10        14     1
        10        41     1
        10        42     1
        10        45     1
        10        46     1
        10        47     1
        11        17     1
        11        43     1
        11        44     1
        11        46     1
        11        47     1
        12        16     1
        12        18     1
        12        19     1
        12        38     1
        12        39     1
        12        43     1
        12        44     1
        12        45     1
        13        16     1
        13        20     1
        13        25     1
        13        40     1
        13        45     1
        14        18     1
        14        19     1
        14        40     1
        14        41     1
        14        42     1
        14        46     1
        14        47     1
        15        17     1
        15        38     1
        15        39     1
        15        41     1
        15        42     1
        16        38     1
        16        39     1
        16        40     1
        16        43     1
        16        44     1
        17        21     1
        17        23     1
        17        26     1
        17        41     1
        17        42     1
        17        43     1
        17        44     1
        17        48     1
        18        20     1
        18        25     1
        19        22     1
        19        24     1
        19        27     1
        19        30     1
        19        49     1
        20        23     1
        20        26     1
        20        50     1
        21        24     1
        21        25     1
        22        26     1
        22        48     1
        23        27     1
        23        30     1
        23        49     1
        24        26     1
        24        50     1
        25        28     1
        25        29     1
        25        48     1
        25        50     1
        26        51     1
        26        52     1
        27        52     1
        30        51     1
        38        40     1
        39        40     1
        40        41     1
        40        42     1
        40        45     1
        43        45     1
        44        45     1
        45        46     1
        45        47     1
        48        49     1
        49        50     1
        51        52     1
