; ITP file created by ByteFF-ML, 2025-12-06 04:39:37.346054

[ atomtypes ]
;name           bonded.type        at.num        mass        charge   ptype           sigma         epsilon
 c0bf                                   6      0.0000       0.00000       A     3.39787e-01     4.50802e-01
 c1bf                                   6      0.0000       0.00000       A     3.31464e-01     4.12104e-01
 c2bf                                   6      0.0000       0.00000       A     3.31669e-01     4.12341e-01
 c3bf                                   6      0.0000       0.00000       A     3.31363e-01     4.12989e-01
 o4bf                                   8      0.0000       0.00000       A     3.23979e-01     3.91993e-01
 n5bf                                   7      0.0000       0.00000       A     3.38512e-01     3.92984e-01
 c6bf                                   6      0.0000       0.00000       A     3.31545e-01     4.12006e-01
 n7bf                                   7      0.0000       0.00000       A     3.38218e-01     3.94216e-01
 n8bf                                   7      0.0000       0.00000       A     3.19496e-01     8.94591e-01
 c9bf                                   6      0.0000       0.00000       A     3.39585e-01     4.49212e-01
 c10bf                                  6      0.0000       0.00000       A     3.39712e-01     4.49806e-01
 c11bf                                  6      0.0000       0.00000       A     3.39727e-01     4.50797e-01
 n12bf                                  7      0.0000       0.00000       A     3.18172e-01     6.81534e-01
 c13bf                                  6      0.0000       0.00000       A     3.39727e-01     4.50797e-01
 c14bf                                  6      0.0000       0.00000       A     3.39712e-01     4.49806e-01
 c15bf                                  6      0.0000       0.00000       A     3.39585e-01     4.49212e-01
 c16bf                                  6      0.0000       0.00000       A     3.31327e-01     4.13248e-01
 o17bf                                  8      0.0000       0.00000       A     3.04514e-01     6.13792e-01
 c18bf                                  6      0.0000       0.00000       A     3.31273e-01     4.13283e-01
 c19bf                                  6      0.0000       0.00000       A     3.31521e-01     4.13918e-01
 f20bf                                  9      0.0000       0.00000       A     3.03540e-01     3.48621e-01
 c21bf                                  6      0.0000       0.00000       A     3.31463e-01     4.12493e-01
 c22bf                                  6      0.0000       0.00000       A     3.31469e-01     4.12700e-01
 c23bf                                  6      0.0000       0.00000       A     3.31436e-01     4.11484e-01
 c24bf                                  6      0.0000       0.00000       A     3.31571e-01     4.13495e-01
 n25bf                                  7      0.0000       0.00000       A     3.20910e-01     8.46558e-01
 n26bf                                  7      0.0000       0.00000       A     3.38251e-01     3.94826e-01
 c27bf                                  6      0.0000       0.00000       A     3.31301e-01     4.12308e-01
 c28bf                                  6      0.0000       0.00000       A     3.31301e-01     4.12308e-01
 n29bf                                  7      0.0000       0.00000       A     3.38251e-01     3.94826e-01
 h30bf                                  1      0.0000       0.00000       A     2.59989e-01     8.71151e-02
 h31bf                                  1      0.0000       0.00000       A     2.59989e-01     8.71151e-02
 h32bf                                  1      0.0000       0.00000       A     2.59989e-01     8.71151e-02
 h33bf                                  1      0.0000       0.00000       A     2.62410e-01     6.72057e-02
 h34bf                                  1      0.0000       0.00000       A     5.36967e-02     2.08750e-02
 h35bf                                  1      0.0000       0.00000       A     2.42127e-01     8.72842e-02
 h36bf                                  1      0.0000       0.00000       A     2.42127e-01     8.72842e-02
 h37bf                                  1      0.0000       0.00000       A     2.60149e-01     8.67575e-02
 h38bf                                  1      0.0000       0.00000       A     2.42171e-01     8.72571e-02
 h39bf                                  1      0.0000       0.00000       A     2.42171e-01     8.72571e-02
 h40bf                                  1      0.0000       0.00000       A     2.42171e-01     8.72571e-02
 h41bf                                  1      0.0000       0.00000       A     2.42171e-01     8.72571e-02
 h42bf                                  1      0.0000       0.00000       A     2.60149e-01     8.67575e-02
 h43bf                                  1      0.0000       0.00000       A     2.42127e-01     8.72842e-02
 h44bf                                  1      0.0000       0.00000       A     2.42127e-01     8.72842e-02
 h45bf                                  1      0.0000       0.00000       A     2.62509e-01     6.72536e-02
 h46bf                                  1      0.0000       0.00000       A     2.62495e-01     6.71945e-02
 h47bf                                  1      0.0000       0.00000       A     2.62555e-01     6.79734e-02
 h48bf                                  1      0.0000       0.00000       A     2.53896e-01     6.74946e-02
 h49bf                                  1      0.0000       0.00000       A     2.53896e-01     6.74946e-02

[ moleculetype ]
;name             nrexcl
 set_1_17              3

[ atoms ]
;       nr            type      resi   res      atom      cgnr      charge          mass ; qtot
         1            c0bf         1   UNL        c0         1    -0.15189       12.0110 ; qtot   -0.152
         2            c1bf         1   UNL        c1         2     0.18405       12.0110 ; qtot    0.032
         3            c2bf         1   UNL        c2         3    -0.29264       12.0110 ; qtot   -0.260
         4            c3bf         1   UNL        c3         4     0.36098       12.0110 ; qtot    0.100
         5            o4bf         1   UNL        o4         5    -0.64000       15.9990 ; qtot   -0.540
         6            n5bf         1   UNL        n5         6    -0.31619       14.0070 ; qtot   -0.856
         7            c6bf         1   UNL        c6         7     0.41468       12.0110 ; qtot   -0.441
         8            n7bf         1   UNL        n7         8    -0.26084       14.0070 ; qtot   -0.702
         9            n8bf         1   UNL        n8         9    -0.77933       14.0070 ; qtot   -1.481
        10            c9bf         1   UNL        c9        10     0.23715       12.0110 ; qtot   -1.244
        11           c10bf         1   UNL       c10        11    -0.10223       12.0110 ; qtot   -1.346
        12           c11bf         1   UNL       c11        12     0.11230       12.0110 ; qtot   -1.234
        13           n12bf         1   UNL       n12        13    -0.41240       14.0070 ; qtot   -1.646
        14           c13bf         1   UNL       c13        14     0.11230       12.0110 ; qtot   -1.534
        15           c14bf         1   UNL       c14        15    -0.10223       12.0110 ; qtot   -1.636
        16           c15bf         1   UNL       c15        16     0.23715       12.0110 ; qtot   -1.399
        17           c16bf         1   UNL       c16        17     0.64532       12.0110 ; qtot   -0.754
        18           o17bf         1   UNL       o17        18    -0.58742       15.9990 ; qtot   -1.341
        19           c18bf         1   UNL       c18        19    -0.15190       12.0110 ; qtot   -1.493
        20           c19bf         1   UNL       c19        20     0.19456       12.0110 ; qtot   -1.299
        21           f20bf         1   UNL       f20        21    -0.16798       18.9980 ; qtot   -1.467
        22           c21bf         1   UNL       c21        22    -0.14840       12.0110 ; qtot   -1.615
        23           c22bf         1   UNL       c22        23    -0.06562       12.0110 ; qtot   -1.681
        24           c23bf         1   UNL       c23        24    -0.10373       12.0110 ; qtot   -1.784
        25           c24bf         1   UNL       c24        25     0.06898       12.0110 ; qtot   -1.715
        26           n25bf         1   UNL       n25        26     0.31512       14.0070 ; qtot   -1.400
        27           n26bf         1   UNL       n26        27    -0.47882       14.0070 ; qtot   -1.879
        28           c27bf         1   UNL       c27        28     0.20629       12.0110 ; qtot   -1.673
        29           c28bf         1   UNL       c28        29     0.20629       12.0110 ; qtot   -1.466
        30           n29bf         1   UNL       n29        30    -0.47882       14.0070 ; qtot   -1.945
        31           h30bf         1   UNL       h30        31     0.05797        1.0080 ; qtot   -1.887
        32           h31bf         1   UNL       h31        32     0.05797        1.0080 ; qtot   -1.829
        33           h32bf         1   UNL       h32        33     0.05797        1.0080 ; qtot   -1.771
        34           h33bf         1   UNL       h33        34     0.14298        1.0080 ; qtot   -1.628
        35           h34bf         1   UNL       h34        35     0.48833        1.0080 ; qtot   -1.140
        36           h35bf         1   UNL       h35        36     0.05798        1.0080 ; qtot   -1.082
        37           h36bf         1   UNL       h36        37     0.05798        1.0080 ; qtot   -1.024
        38           h37bf         1   UNL       h37        38     0.07208        1.0080 ; qtot   -0.952
        39           h38bf         1   UNL       h38        39     0.06015        1.0080 ; qtot   -0.892
        40           h39bf         1   UNL       h39        40     0.06015        1.0080 ; qtot   -0.832
        41           h40bf         1   UNL       h40        41     0.06015        1.0080 ; qtot   -0.772
        42           h41bf         1   UNL       h41        42     0.06015        1.0080 ; qtot   -0.711
        43           h42bf         1   UNL       h42        43     0.07208        1.0080 ; qtot   -0.639
        44           h43bf         1   UNL       h43        44     0.05798        1.0080 ; qtot   -0.581
        45           h44bf         1   UNL       h44        45     0.05798        1.0080 ; qtot   -0.523
        46           h45bf         1   UNL       h45        46     0.14181        1.0080 ; qtot   -0.382
        47           h46bf         1   UNL       h46        47     0.12690        1.0080 ; qtot   -0.255
        48           h47bf         1   UNL       h47        48     0.14214        1.0080 ; qtot   -0.113
        49           h48bf         1   UNL       h48        49     0.05626        1.0080 ; qtot   -0.056
        50           h49bf         1   UNL       h49        50     0.05626        1.0080 ; qtot    0.000

[ bonds ]
;       ai        aj funct               r               k
         1         2     1        0.150615   208257.399756
         1        31     1        0.109346   305613.670996
         1        32     1        0.109346   305613.670996
         1        33     1        0.109346   305613.670996
         2         3     1        0.139441   303401.059229
         2         8     1        0.134073   325307.200244
         3         4     1        0.140131   279909.242480
         3        34     1        0.108386   326534.488184
         4         5     1        0.135472   296267.369873
         4         6     1        0.132441   339149.922363
         5        35     1        0.097402   456375.469238
         6         7     1        0.135381   259248.035547
         7         8     1        0.134890   259057.860693
         7         9     1        0.135914   328274.944336
         9        10     1        0.146890   180880.545947
         9        16     1        0.146890   180880.545947
        10        11     1        0.153334   175036.020947
        10        36     1        0.109481   294444.786377
        10        37     1        0.109481   294444.786377
        11        12     1        0.153427   175080.787500
        11        15     1        0.154277   149842.130322
        11        38     1        0.109325   303915.912891
        12        13     1        0.147261   177221.078174
        12        39     1        0.109385   298254.744336
        12        40     1        0.109385   298254.744336
        13        14     1        0.147261   177221.103711
        13        17     1        0.135519   319235.343896
        14        15     1        0.153427   175080.787500
        14        41     1        0.109385   298254.744336
        14        42     1        0.109385   298254.744336
        15        16     1        0.153334   175036.020947
        15        43     1        0.109325   303915.912891
        16        44     1        0.109481   294444.811914
        16        45     1        0.109481   294444.811914
        17        18     1        0.123360   594256.707031
        17        19     1        0.151390   177572.570947
        19        20     1        0.139458   293723.388574
        19        25     1        0.140413   276391.377979
        20        21     1        0.135748   284734.964502
        20        22     1        0.139016   308702.537598
        22        23     1        0.139696   310400.653223
        22        46     1        0.108455   325846.007715
        23        24     1        0.139473   319062.687500
        23        47     1        0.108533   323324.933203
        24        25     1        0.139859   295100.783643
        24        48     1        0.108380   327020.204004
        25        26     1        0.142246   231473.134814
        26        27     1        0.134040   244717.267090
        26        30     1        0.134040   244717.267090
        27        28     1        0.133423   350873.498535
        28        29     1        0.141148   279463.543311
        28        49     1        0.108128   339085.415625
        29        30     1        0.133423   350873.498535
        29        50     1        0.108128   339085.415625

[ angles ]
;       ai        aj        ak funct           theta             cth
         1         2         3     1      121.700302      489.911823
         1         2         8     1      116.156418      484.864924
         2         1        31     1      110.499184      502.656724
         2         1        32     1      110.499184      502.656724
         2         1        33     1      110.499184      502.656724
         2         3         4     1      115.999832      854.225821
         2         3        34     1      122.665588      415.649238
         2         8         7     1      116.702454      932.983799
         3         2         8     1      122.094650      721.155902
         3         4         5     1      120.313049      540.609050
         3         4         6     1      123.582619      652.990654
         4         3        34     1      121.217186      443.446733
         4         5        35     1      106.945618      596.860024
         4         6         7     1      115.907310      958.778131
         5         4         6     1      116.817917      621.333576
         6         7         8     1      125.955345      593.263313
         6         7         9     1      116.634262      539.201891
         7         9        10     1      122.951073      491.596091
         7         9        16     1      122.951073      491.596059
         8         7         9     1      117.107704      542.053173
         9        10        11     1      102.890381      518.344745
         9        10        36     1      110.654434      411.675409
         9        10        37     1      110.654434      411.675409
         9        16        15     1      102.890366      518.344776
         9        16        44     1      110.654434      411.675409
         9        16        45     1      110.654434      411.675409
        10         9        16     1      113.092651      339.259094
        10        11        12     1      115.967918      490.766039
        10        11        15     1      103.531944      553.400524
        10        11        38     1      110.411415      471.837231
        11        10        36     1      112.134521      456.886371
        11        10        37     1      112.134521      456.886371
        11        12        13     1      103.310646      531.297103
        11        12        39     1      112.216675      453.127085
        11        12        40     1      112.216675      453.127085
        11        15        14     1      103.849327      536.391532
        11        15        16     1      103.531944      553.400524
        11        15        43     1      111.068626      475.836438
        12        11        15     1      103.849327      536.391532
        12        11        38     1      110.495773      465.529246
        12        13        14     1      111.682663      397.236312
        12        13        17     1      123.751732      462.075033
        13        12        39     1      110.410095      437.420741
        13        12        40     1      110.410095      437.420741
        13        14        15     1      103.310646      531.297103
        13        14        41     1      110.410095      437.420741
        13        14        42     1      110.410095      437.420741
        13        17        18     1      123.358742      631.986382
        13        17        19     1      116.499901      442.236497
        14        13        17     1      123.751732      462.075033
        14        15        16     1      115.967918      490.766039
        14        15        43     1      110.495773      465.529246
        15        11        38     1      111.068642      475.836438
        15        14        41     1      112.216675      453.127085
        15        14        42     1      112.216675      453.127053
        15        16        44     1      112.134521      456.886371
        15        16        45     1      112.134521      456.886371
        16        15        43     1      110.411415      471.837167
        17        19        20     1      120.170364      658.951909
        17        19        25     1      123.059631      563.306688
        18        17        19     1      119.672501      497.066650
        19        20        21     1      118.381653      447.457304
        19        20        22     1      123.063400      625.661925
        19        25        24     1      121.246506      661.938219
        19        25        26     1      119.852539      464.186441
        20        19        25     1      116.733643      734.512130
        20        22        23     1      118.224327      691.816126
        20        22        46     1      119.628578      419.195289
        21        20        22     1      118.309547      519.263729
        22        23        24     1      120.316055      729.245229
        22        23        47     1      119.748962      430.367360
        23        22        46     1      122.164230      418.572822
        23        24        25     1      119.566689      681.094243
        23        24        48     1      121.180099      420.410728
        24        23        47     1      119.884033      429.820259
        24        25        26     1      118.315903      543.668715
        25        24        48     1      119.153160      420.650809
        25        26        27     1      121.993149      521.996040
        25        26        30     1      121.993149      521.996040
        26        27        28     1      103.760353      480.370712
        26        30        29     1      103.760353      480.370712
        27        26        30     1      115.047997      210.842930
        27        28        29     1      108.709305      295.765693
        27        28        49     1      120.742874      391.073952
        28        29        30     1      108.709305      295.765693
        28        29        50     1      130.286743      343.611766
        29        28        49     1      130.286743      343.611766
        30        29        50     1      120.742874      391.073952
        31         1        32     1      108.408493      359.717702
        31         1        33     1      108.408493      359.717702
        32         1        33     1      108.408493      359.717702
        36        10        37     1      107.788414      347.454335
        39        12        40     1      107.816490      348.007916
        41        14        42     1      107.816490      348.007948
        44        16        45     1      107.788414      347.454367

[ dihedrals ] ; propers for gromacs 4.5 or higher, use funct 9
;       ai        aj        ak        al funct           phase               k        pn
         1         2         3         4     9        0.000000        0.205898         1
         1         2         3         4     9      180.000000       14.434702         2
         1         2         3         4     9        0.000000       -0.055877         3
         1         2         3         4     9      180.000000       -0.313888         4
         1         2         3        34     9        0.000000       -0.061602         1
         1         2         3        34     9      180.000000       11.799101         2
         1         2         3        34     9        0.000000       -0.444615         3
         1         2         3        34     9      180.000000        0.202287         4
         1         2         8         7     9        0.000000        0.050731         1
         1         2         8         7     9      180.000000       16.843168         2
         1         2         8         7     9        0.000000        0.197683         3
         1         2         8         7     9      180.000000       -0.507358         4
         2         3         4         5     9        0.000000        0.288372         1
         2         3         4         5     9      180.000000       16.356389         2
         2         3         4         5     9        0.000000        0.418207         3
         2         3         4         5     9      180.000000       -0.689489         4
         2         3         4         6     9        0.000000       -0.027982         1
         2         3         4         6     9      180.000000       11.306861         2
         2         3         4         6     9        0.000000       -0.053884         3
         2         3         4         6     9      180.000000       -0.258460         4
         2         8         7         6     9        0.000000        0.655685         1
         2         8         7         6     9      180.000000       10.334504         2
         2         8         7         6     9        0.000000        0.796995         3
         2         8         7         6     9      180.000000       -0.540224         4
         2         8         7         9     9        0.000000        1.519864         1
         2         8         7         9     9      180.000000       16.696848         2
         2         8         7         9     9        0.000000        0.684406         3
         2         8         7         9     9      180.000000       -1.052269         4
         3         2         1        31     9        0.000000       -0.026075         1
         3         2         1        31     9      180.000000       -0.049968         2
         3         2         1        31     9        0.000000       -0.149431         3
         3         2         1        31     9      180.000000        0.009025         4
         3         2         1        32     9        0.000000       -0.026075         1
         3         2         1        32     9      180.000000       -0.049968         2
         3         2         1        32     9        0.000000       -0.149431         3
         3         2         1        32     9      180.000000        0.009025         4
         3         2         1        33     9        0.000000       -0.026075         1
         3         2         1        33     9      180.000000       -0.049968         2
         3         2         1        33     9        0.000000       -0.149431         3
         3         2         1        33     9      180.000000        0.009025         4
         3         2         8         7     9        0.000000       -0.214370         1
         3         2         8         7     9      180.000000       18.232417         2
         3         2         8         7     9        0.000000       -1.060366         3
         3         2         8         7     9      180.000000       -0.492403         4
         3         4         5        35     9        0.000000       -1.456094         1
         3         4         5        35     9      180.000000        7.015461         2
         3         4         5        35     9        0.000000        0.231659         3
         3         4         5        35     9      180.000000        0.076336         4
         3         4         6         7     9        0.000000       -0.432822         1
         3         4         6         7     9      180.000000       17.320127         2
         3         4         6         7     9        0.000000       -0.613730         3
         3         4         6         7     9      180.000000       -0.374985         4
         4         3         2         8     9        0.000000        0.014027         1
         4         3         2         8     9      180.000000       15.834827         2
         4         3         2         8     9        0.000000       -0.425994         3
         4         3         2         8     9      180.000000       -0.536556         4
         4         6         7         8     9        0.000000        0.917118         1
         4         6         7         8     9      180.000000        9.584589         2
         4         6         7         8     9        0.000000        0.743280         3
         4         6         7         8     9      180.000000       -0.475306         4
         4         6         7         9     9        0.000000        1.327239         1
         4         6         7         9     9      180.000000       15.772746         2
         4         6         7         9     9        0.000000        0.584468         3
         4         6         7         9     9      180.000000       -0.917682         4
         5         4         3        34     9        0.000000        0.287843         1
         5         4         3        34     9      180.000000       12.904112         2
         5         4         3        34     9        0.000000        0.074226         3
         5         4         3        34     9      180.000000        0.009702         4
         5         4         6         7     9        0.000000       -0.347634         1
         5         4         6         7     9      180.000000       21.442282         2
         5         4         6         7     9        0.000000        0.384323         3
         5         4         6         7     9      180.000000       -0.533607         4
         6         4         3        34     9        0.000000       -0.112981         1
         6         4         3        34     9      180.000000       10.576672         2
         6         4         3        34     9        0.000000       -0.426506         3
         6         4         3        34     9      180.000000       -0.010431         4
         6         4         5        35     9        0.000000        2.549644         1
         6         4         5        35     9      180.000000        7.813190         2
         6         4         5        35     9        0.000000       -0.424490         3
         6         4         5        35     9      180.000000        0.171756         4
         6         7         9        10     9        0.000000        0.802146         1
         6         7         9        10     9      180.000000        9.675382         2
         6         7         9        10     9        0.000000       -0.131759         3
         6         7         9        10     9      180.000000       -1.034767         4
         6         7         9        16     9        0.000000        0.802145         1
         6         7         9        16     9      180.000000        9.675382         2
         6         7         9        16     9        0.000000       -0.131760         3
         6         7         9        16     9      180.000000       -1.034766         4
         7         9        10        11     9        0.000000       -3.750345         1
         7         9        10        11     9      180.000000       -0.426712         2
         7         9        10        11     9        0.000000        0.393695         3
         7         9        10        11     9      180.000000        0.165731         4
         7         9        10        36     9        0.000000       -0.002171         1
         7         9        10        36     9      180.000000       -0.099754         2
         7         9        10        36     9        0.000000        0.524719         3
         7         9        10        36     9      180.000000       -0.022484         4
         7         9        10        37     9        0.000000       -0.002171         1
         7         9        10        37     9      180.000000       -0.099754         2
         7         9        10        37     9        0.000000        0.524719         3
         7         9        10        37     9      180.000000       -0.022484         4
         7         9        16        15     9        0.000000       -3.750344         1
         7         9        16        15     9      180.000000       -0.426711         2
         7         9        16        15     9        0.000000        0.393695         3
         7         9        16        15     9      180.000000        0.165731         4
         7         9        16        44     9        0.000000       -0.002171         1
         7         9        16        44     9      180.000000       -0.099753         2
         7         9        16        44     9        0.000000        0.524719         3
         7         9        16        44     9      180.000000       -0.022484         4
         7         9        16        45     9        0.000000       -0.002171         1
         7         9        16        45     9      180.000000       -0.099753         2
         7         9        16        45     9        0.000000        0.524719         3
         7         9        16        45     9      180.000000       -0.022484         4
         8         2         1        31     9        0.000000        0.007107         1
         8         2         1        31     9      180.000000       -0.061755         2
         8         2         1        31     9        0.000000        0.040245         3
         8         2         1        31     9      180.000000       -0.007861         4
         8         2         1        32     9        0.000000        0.007107         1
         8         2         1        32     9      180.000000       -0.061755         2
         8         2         1        32     9        0.000000        0.040245         3
         8         2         1        32     9      180.000000       -0.007861         4
         8         2         1        33     9        0.000000        0.007107         1
         8         2         1        33     9      180.000000       -0.061755         2
         8         2         1        33     9        0.000000        0.040245         3
         8         2         1        33     9      180.000000       -0.007861         4
         8         2         3        34     9        0.000000       -0.007786         1
         8         2         3        34     9      180.000000       12.983471         2
         8         2         3        34     9        0.000000       -0.334723         3
         8         2         3        34     9      180.000000       -0.113236         4
         8         7         9        10     9        0.000000        0.671330         1
         8         7         9        10     9      180.000000        9.552796         2
         8         7         9        10     9        0.000000       -0.130980         3
         8         7         9        10     9      180.000000       -1.010626         4
         8         7         9        16     9        0.000000        0.671331         1
         8         7         9        16     9      180.000000        9.552795         2
         8         7         9        16     9        0.000000       -0.130980         3
         8         7         9        16     9      180.000000       -1.010626         4
         9        10        11        12     9        0.000000        0.157606         1
         9        10        11        12     9      180.000000       -1.559824         2
         9        10        11        12     9        0.000000        0.130835         3
         9        10        11        12     9      180.000000        0.184720         4
         9        10        11        15     9        0.000000       -3.132944         1
         9        10        11        15     9      180.000000       11.767015         2
         9        10        11        15     9        0.000000       -0.668377         3
         9        10        11        15     9      180.000000       -2.368034         4
         9        10        11        38     9        0.000000        3.059555         1
         9        10        11        38     9      180.000000       -0.809043         2
         9        10        11        38     9        0.000000       -0.187753         3
         9        10        11        38     9      180.000000        0.441468         4
         9        16        15        11     9        0.000000       -3.132944         1
         9        16        15        11     9      180.000000       11.767019         2
         9        16        15        11     9        0.000000       -0.668377         3
         9        16        15        11     9      180.000000       -2.368035         4
         9        16        15        14     9        0.000000        0.157607         1
         9        16        15        14     9      180.000000       -1.559823         2
         9        16        15        14     9        0.000000        0.130835         3
         9        16        15        14     9      180.000000        0.184720         4
         9        16        15        43     9        0.000000        3.059556         1
         9        16        15        43     9      180.000000       -0.809042         2
         9        16        15        43     9        0.000000       -0.187752         3
         9        16        15        43     9      180.000000        0.441468         4
        10         9        16        15     9        0.000000       -0.498432         1
        10         9        16        15     9      180.000000        0.708684         2
        10         9        16        15     9        0.000000        0.370971         3
        10         9        16        15     9      180.000000       -0.308793         4
        10         9        16        44     9        0.000000       -0.035298         1
        10         9        16        44     9      180.000000       -0.064043         2
        10         9        16        44     9        0.000000        0.341781         3
        10         9        16        44     9      180.000000        0.108910         4
        10         9        16        45     9        0.000000       -0.035298         1
        10         9        16        45     9      180.000000       -0.064043         2
        10         9        16        45     9        0.000000        0.341781         3
        10         9        16        45     9      180.000000        0.108910         4
        10        11        12        13     9        0.000000       -0.177639         1
        10        11        12        13     9      180.000000       -1.441188         2
        10        11        12        13     9        0.000000        0.139510         3
        10        11        12        13     9      180.000000        0.103643         4
        10        11        12        39     9        0.000000       -0.090271         1
        10        11        12        39     9      180.000000        0.043314         2
        10        11        12        39     9        0.000000        0.181102         3
        10        11        12        39     9      180.000000        0.056845         4
        10        11        12        40     9        0.000000       -0.090271         1
        10        11        12        40     9      180.000000        0.043314         2
        10        11        12        40     9        0.000000        0.181102         3
        10        11        12        40     9      180.000000        0.056845         4
        10        11        15        14     9        0.000000       -1.429697         1
        10        11        15        14     9      180.000000       -0.955407         2
        10        11        15        14     9        0.000000        0.546147         3
        10        11        15        14     9      180.000000       -0.724521         4
        10        11        15        16     9        0.000000       -1.723216         1
        10        11        15        16     9      180.000000       -1.104300         2
        10        11        15        16     9        0.000000        0.465854         3
        10        11        15        16     9      180.000000       -0.749204         4
        10        11        15        43     9        0.000000        0.196400         1
        10        11        15        43     9      180.000000        0.124290         2
        10        11        15        43     9        0.000000        0.308843         3
        10        11        15        43     9      180.000000        0.285300         4
        11        10         9        16     9        0.000000       -0.498433         1
        11        10         9        16     9      180.000000        0.708685         2
        11        10         9        16     9        0.000000        0.370971         3
        11        10         9        16     9      180.000000       -0.308793         4
        11        12        13        14     9        0.000000       -0.098874         1
        11        12        13        14     9      180.000000       -0.275992         2
        11        12        13        14     9        0.000000        0.219330         3
        11        12        13        14     9      180.000000       -0.018668         4
        11        12        13        17     9        0.000000       -0.924898         1
        11        12        13        17     9      180.000000       -0.742800         2
        11        12        13        17     9        0.000000        0.102247         3
        11        12        13        17     9      180.000000        0.138445         4
        11        15        14        13     9        0.000000       -2.932575         1
        11        15        14        13     9      180.000000        7.822341         2
        11        15        14        13     9        0.000000       -0.704965         3
        11        15        14        13     9      180.000000       -1.187778         4
        11        15        14        41     9        0.000000        0.022483         1
        11        15        14        41     9      180.000000       -0.185436         2
        11        15        14        41     9        0.000000       -0.302149         3
        11        15        14        41     9      180.000000        0.229395         4
        11        15        14        42     9        0.000000        0.022483         1
        11        15        14        42     9      180.000000       -0.185436         2
        11        15        14        42     9        0.000000       -0.302149         3
        11        15        14        42     9      180.000000        0.229395         4
        11        15        16        44     9        0.000000        0.005453         1
        11        15        16        44     9      180.000000       -0.187956         2
        11        15        16        44     9        0.000000       -0.253493         3
        11        15        16        44     9      180.000000        0.289446         4
        11        15        16        45     9        0.000000        0.005453         1
        11        15        16        45     9      180.000000       -0.187956         2
        11        15        16        45     9        0.000000       -0.253493         3
        11        15        16        45     9      180.000000        0.289446         4
        12        11        10        36     9        0.000000       -0.150868         1
        12        11        10        36     9      180.000000        0.072012         2
        12        11        10        36     9        0.000000        0.214875         3
        12        11        10        36     9      180.000000        0.045180         4
        12        11        10        37     9        0.000000       -0.150868         1
        12        11        10        37     9      180.000000        0.072012         2
        12        11        10        37     9        0.000000        0.214875         3
        12        11        10        37     9      180.000000        0.045180         4
        12        11        15        14     9        0.000000       -0.903494         1
        12        11        15        14     9      180.000000       -0.930898         2
        12        11        15        14     9        0.000000        0.568820         3
        12        11        15        14     9      180.000000       -0.686260         4
        12        11        15        16     9        0.000000       -1.429699         1
        12        11        15        16     9      180.000000       -0.955405         2
        12        11        15        16     9        0.000000        0.546147         3
        12        11        15        16     9      180.000000       -0.724522         4
        12        11        15        43     9        0.000000       -0.022164         1
        12        11        15        43     9      180.000000        0.142975         2
        12        11        15        43     9        0.000000        0.388150         3
        12        11        15        43     9      180.000000        0.197015         4
        12        13        14        15     9        0.000000       -0.098875         1
        12        13        14        15     9      180.000000       -0.275991         2
        12        13        14        15     9        0.000000        0.219330         3
        12        13        14        15     9      180.000000       -0.018668         4
        12        13        14        41     9        0.000000       -0.018324         1
        12        13        14        41     9      180.000000       -0.010219         2
        12        13        14        41     9        0.000000        0.119733         3
        12        13        14        41     9      180.000000        0.059477         4
        12        13        14        42     9        0.000000       -0.018324         1
        12        13        14        42     9      180.000000       -0.010219         2
        12        13        14        42     9        0.000000        0.119733         3
        12        13        14        42     9      180.000000        0.059477         4
        12        13        17        18     9        0.000000       -0.772407         1
        12        13        17        18     9      180.000000       13.817704         2
        12        13        17        18     9        0.000000       -1.124658         3
        12        13        17        18     9      180.000000       -0.523087         4
        12        13        17        19     9        0.000000        3.807755         1
        12        13        17        19     9      180.000000       11.423134         2
        12        13        17        19     9        0.000000        0.950522         3
        12        13        17        19     9      180.000000       -0.728722         4
        13        12        11        15     9        0.000000       -2.932575         1
        13        12        11        15     9      180.000000        7.822339         2
        13        12        11        15     9        0.000000       -0.704966         3
        13        12        11        15     9      180.000000       -1.187778         4
        13        12        11        38     9        0.000000        0.949043         1
        13        12        11        38     9      180.000000       -0.377382         2
        13        12        11        38     9        0.000000       -0.056736         3
        13        12        11        38     9      180.000000        0.252566         4
        13        14        15        16     9        0.000000       -0.177640         1
        13        14        15        16     9      180.000000       -1.441189         2
        13        14        15        16     9        0.000000        0.139510         3
        13        14        15        16     9      180.000000        0.103643         4
        13        14        15        43     9        0.000000        0.949044         1
        13        14        15        43     9      180.000000       -0.377382         2
        13        14        15        43     9        0.000000       -0.056736         3
        13        14        15        43     9      180.000000        0.252566         4
        13        17        19        20     9        0.000000       -0.368550         1
        13        17        19        20     9      180.000000        3.799954         2
        13        17        19        20     9        0.000000       -0.343838         3
        13        17        19        20     9      180.000000        0.220400         4
        13        17        19        25     9        0.000000        1.305198         1
        13        17        19        25     9      180.000000        4.080130         2
        13        17        19        25     9        0.000000       -0.555958         3
        13        17        19        25     9      180.000000        0.231954         4
        14        13        12        39     9        0.000000       -0.018324         1
        14        13        12        39     9      180.000000       -0.010219         2
        14        13        12        39     9        0.000000        0.119733         3
        14        13        12        39     9      180.000000        0.059477         4
        14        13        12        40     9        0.000000       -0.018324         1
        14        13        12        40     9      180.000000       -0.010219         2
        14        13        12        40     9        0.000000        0.119733         3
        14        13        12        40     9      180.000000        0.059477         4
        14        13        17        18     9        0.000000       -0.772407         1
        14        13        17        18     9      180.000000       13.817704         2
        14        13        17        18     9        0.000000       -1.124658         3
        14        13        17        18     9      180.000000       -0.523087         4
        14        13        17        19     9        0.000000        3.807756         1
        14        13        17        19     9      180.000000       11.423134         2
        14        13        17        19     9        0.000000        0.950522         3
        14        13        17        19     9      180.000000       -0.728722         4
        14        15        11        38     9        0.000000       -0.022164         1
        14        15        11        38     9      180.000000        0.142976         2
        14        15        11        38     9        0.000000        0.388149         3
        14        15        11        38     9      180.000000        0.197014         4
        14        15        16        44     9        0.000000       -0.150868         1
        14        15        16        44     9      180.000000        0.072012         2
        14        15        16        44     9        0.000000        0.214875         3
        14        15        16        44     9      180.000000        0.045180         4
        14        15        16        45     9        0.000000       -0.150868         1
        14        15        16        45     9      180.000000        0.072012         2
        14        15        16        45     9        0.000000        0.214875         3
        14        15        16        45     9      180.000000        0.045180         4
        15        11        10        36     9        0.000000        0.005454         1
        15        11        10        36     9      180.000000       -0.187956         2
        15        11        10        36     9        0.000000       -0.253494         3
        15        11        10        36     9      180.000000        0.289446         4
        15        11        10        37     9        0.000000        0.005454         1
        15        11        10        37     9      180.000000       -0.187956         2
        15        11        10        37     9        0.000000       -0.253494         3
        15        11        10        37     9      180.000000        0.289446         4
        15        11        12        39     9        0.000000        0.022483         1
        15        11        12        39     9      180.000000       -0.185435         2
        15        11        12        39     9        0.000000       -0.302149         3
        15        11        12        39     9      180.000000        0.229395         4
        15        11        12        40     9        0.000000        0.022483         1
        15        11        12        40     9      180.000000       -0.185435         2
        15        11        12        40     9        0.000000       -0.302149         3
        15        11        12        40     9      180.000000        0.229395         4
        15        14        13        17     9        0.000000       -0.924897         1
        15        14        13        17     9      180.000000       -0.742800         2
        15        14        13        17     9        0.000000        0.102247         3
        15        14        13        17     9      180.000000        0.138445         4
        16         9        10        36     9        0.000000       -0.035298         1
        16         9        10        36     9      180.000000       -0.064043         2
        16         9        10        36     9        0.000000        0.341781         3
        16         9        10        36     9      180.000000        0.108910         4
        16         9        10        37     9        0.000000       -0.035298         1
        16         9        10        37     9      180.000000       -0.064043         2
        16         9        10        37     9        0.000000        0.341781         3
        16         9        10        37     9      180.000000        0.108910         4
        16        15        11        38     9        0.000000        0.196399         1
        16        15        11        38     9      180.000000        0.124289         2
        16        15        11        38     9        0.000000        0.308842         3
        16        15        11        38     9      180.000000        0.285300         4
        16        15        14        41     9        0.000000       -0.090272         1
        16        15        14        41     9      180.000000        0.043313         2
        16        15        14        41     9        0.000000        0.181102         3
        16        15        14        41     9      180.000000        0.056845         4
        16        15        14        42     9        0.000000       -0.090272         1
        16        15        14        42     9      180.000000        0.043313         2
        16        15        14        42     9        0.000000        0.181102         3
        16        15        14        42     9      180.000000        0.056845         4
        17        13        12        39     9        0.000000        0.071282         1
        17        13        12        39     9      180.000000        0.076325         2
        17        13        12        39     9        0.000000        0.084134         3
        17        13        12        39     9      180.000000       -0.022120         4
        17        13        12        40     9        0.000000        0.071282         1
        17        13        12        40     9      180.000000        0.076325         2
        17        13        12        40     9        0.000000        0.084134         3
        17        13        12        40     9      180.000000       -0.022120         4
        17        13        14        41     9        0.000000        0.071281         1
        17        13        14        41     9      180.000000        0.076325         2
        17        13        14        41     9        0.000000        0.084133         3
        17        13        14        41     9      180.000000       -0.022120         4
        17        13        14        42     9        0.000000        0.071281         1
        17        13        14        42     9      180.000000        0.076325         2
        17        13        14        42     9        0.000000        0.084133         3
        17        13        14        42     9      180.000000       -0.022120         4
        17        19        20        21     9        0.000000        0.323763         1
        17        19        20        21     9      180.000000       17.639032         2
        17        19        20        21     9        0.000000        0.671040         3
        17        19        20        21     9      180.000000       -0.965029         4
        17        19        20        22     9        0.000000       -0.042703         1
        17        19        20        22     9      180.000000       12.507043         2
        17        19        20        22     9        0.000000        0.025809         3
        17        19        20        22     9      180.000000       -0.298713         4
        17        19        25        24     9        0.000000       -0.159485         1
        17        19        25        24     9      180.000000       11.728617         2
        17        19        25        24     9        0.000000       -0.307066         3
        17        19        25        24     9      180.000000       -0.206715         4
        17        19        25        26     9        0.000000       -0.058327         1
        17        19        25        26     9      180.000000       16.156169         2
        17        19        25        26     9        0.000000        0.341551         3
        17        19        25        26     9      180.000000       -0.901250         4
        18        17        19        20     9        0.000000       -1.941661         1
        18        17        19        20     9      180.000000        1.094345         2
        18        17        19        20     9        0.000000        0.427875         3
        18        17        19        20     9      180.000000       -0.033087         4
        18        17        19        25     9        0.000000       -5.069446         1
        18        17        19        25     9      180.000000        1.308677         2
        18        17        19        25     9        0.000000        0.034082         3
        18        17        19        25     9      180.000000       -0.013060         4
        19        20        22        23     9        0.000000       -0.230779         1
        19        20        22        23     9      180.000000       17.563438         2
        19        20        22        23     9        0.000000       -1.369842         3
        19        20        22        23     9      180.000000       -0.339553         4
        19        20        22        46     9        0.000000       -0.133924         1
        19        20        22        46     9      180.000000       13.166471         2
        19        20        22        46     9        0.000000       -0.700048         3
        19        20        22        46     9      180.000000        0.076451         4
        19        25        24        23     9        0.000000       -0.224893         1
        19        25        24        23     9      180.000000       17.844406         2
        19        25        24        23     9        0.000000       -1.762319         3
        19        25        24        23     9      180.000000       -0.293758         4
        19        25        24        48     9        0.000000        0.075314         1
        19        25        24        48     9      180.000000       13.789726         2
        19        25        24        48     9        0.000000       -0.664391         3
        19        25        24        48     9      180.000000        0.152451         4
        19        25        26        27     9        0.000000       -0.928394         1
        19        25        26        27     9      180.000000        3.806786         2
        19        25        26        27     9        0.000000        0.016176         3
        19        25        26        27     9      180.000000       -0.052316         4
        19        25        26        30     9        0.000000       -0.928394         1
        19        25        26        30     9      180.000000        3.806786         2
        19        25        26        30     9        0.000000        0.016176         3
        19        25        26        30     9      180.000000       -0.052316         4
        20        19        25        24     9        0.000000       -0.141325         1
        20        19        25        24     9      180.000000       16.126330         2
        20        19        25        24     9        0.000000       -1.429498         3
        20        19        25        24     9      180.000000       -0.178699         4
        20        19        25        26     9        0.000000        0.375258         1
        20        19        25        26     9      180.000000       18.126685         2
        20        19        25        26     9        0.000000        0.186440         3
        20        19        25        26     9      180.000000       -0.681470         4
        20        22        23        24     9        0.000000       -0.152374         1
        20        22        23        24     9      180.000000       18.716159         2
        20        22        23        24     9        0.000000       -1.818927         3
        20        22        23        24     9      180.000000       -0.453550         4
        20        22        23        47     9        0.000000        0.180905         1
        20        22        23        47     9      180.000000       14.902493         2
        20        22        23        47     9        0.000000       -0.731347         3
        20        22        23        47     9      180.000000        0.027321         4
        21        20        19        25     9        0.000000        0.673215         1
        21        20        19        25     9      180.000000       23.238171         2
        21        20        19        25     9        0.000000        0.955629         3
        21        20        19        25     9      180.000000       -1.163490         4
        21        20        22        23     9        0.000000        0.552801         1
        21        20        22        23     9      180.000000       23.768154         2
        21        20        22        23     9        0.000000        0.607966         3
        21        20        22        23     9      180.000000       -0.689434         4
        21        20        22        46     9        0.000000        0.278729         1
        21        20        22        46     9      180.000000       16.994412         2
        21        20        22        46     9        0.000000        0.338076         3
        21        20        22        46     9      180.000000        0.093222         4
        22        20        19        25     9        0.000000        0.135116         1
        22        20        19        25     9      180.000000       15.814503         2
        22        20        19        25     9        0.000000       -0.812439         3
        22        20        19        25     9      180.000000       -0.422734         4
        22        23        24        25     9        0.000000       -0.192714         1
        22        23        24        25     9      180.000000       18.408477         2
        22        23        24        25     9        0.000000       -1.779917         3
        22        23        24        25     9      180.000000       -0.374514         4
        22        23        24        48     9        0.000000        0.142296         1
        22        23        24        48     9      180.000000       15.187280         2
        22        23        24        48     9        0.000000       -0.758856         3
        22        23        24        48     9      180.000000        0.063922         4
        23        24        25        26     9        0.000000        0.358636         1
        23        24        25        26     9      180.000000       18.702790         2
        23        24        25        26     9        0.000000        0.139137         3
        23        24        25        26     9      180.000000       -0.377297         4
        24        23        22        46     9        0.000000        0.246067         1
        24        23        22        46     9      180.000000       14.028888         2
        24        23        22        46     9        0.000000       -0.660950         3
        24        23        22        46     9      180.000000        0.116191         4
        24        25        26        27     9        0.000000        0.756737         1
        24        25        26        27     9      180.000000        3.189610         2
        24        25        26        27     9        0.000000       -0.349349         3
        24        25        26        27     9      180.000000        0.086097         4
        24        25        26        30     9        0.000000        0.756737         1
        24        25        26        30     9      180.000000        3.189610         2
        24        25        26        30     9        0.000000       -0.349349         3
        24        25        26        30     9      180.000000        0.086097         4
        25        24        23        47     9        0.000000        0.014670         1
        25        24        23        47     9      180.000000       14.765854         2
        25        24        23        47     9        0.000000       -0.786746         3
        25        24        23        47     9      180.000000        0.015738         4
        25        26        27        28     9        0.000000        0.775624         1
        25        26        27        28     9      180.000000       14.213466         2
        25        26        27        28     9        0.000000        0.460130         3
        25        26        27        28     9      180.000000       -0.178471         4
        25        26        30        29     9        0.000000        0.775624         1
        25        26        30        29     9      180.000000       14.213466         2
        25        26        30        29     9        0.000000        0.460130         3
        25        26        30        29     9      180.000000       -0.178471         4
        26        25        24        48     9        0.000000        0.319830         1
        26        25        24        48     9      180.000000       14.602055         2
        26        25        24        48     9        0.000000        0.000376         3
        26        25        24        48     9      180.000000        0.144391         4
        26        27        28        29     9        0.000000       -0.095083         1
        26        27        28        29     9      180.000000       41.109451         2
        26        27        28        29     9        0.000000       -5.890197         3
        26        27        28        29     9      180.000000       -0.007891         4
        26        27        28        49     9        0.000000        1.230246         1
        26        27        28        49     9      180.000000       26.477525         2
        26        27        28        49     9        0.000000       -0.131285         3
        26        27        28        49     9      180.000000       -0.123740         4
        26        30        29        28     9        0.000000       -0.095083         1
        26        30        29        28     9      180.000000       41.109451         2
        26        30        29        28     9        0.000000       -5.890197         3
        26        30        29        28     9      180.000000       -0.007891         4
        26        30        29        50     9        0.000000        1.230246         1
        26        30        29        50     9      180.000000       26.477525         2
        26        30        29        50     9        0.000000       -0.131285         3
        26        30        29        50     9      180.000000       -0.123740         4
        27        26        30        29     9        0.000000       -0.214504         1
        27        26        30        29     9      180.000000       33.461254         2
        27        26        30        29     9        0.000000       -5.627568         3
        27        26        30        29     9      180.000000        0.135267         4
        27        28        29        30     9        0.000000       -0.646396         1
        27        28        29        30     9      180.000000       33.879564         2
        27        28        29        30     9        0.000000       -7.997882         3
        27        28        29        30     9      180.000000       -0.068922         4
        27        28        29        50     9        0.000000        0.399471         1
        27        28        29        50     9      180.000000       15.777787         2
        27        28        29        50     9        0.000000       -0.622625         3
        27        28        29        50     9      180.000000       -0.473181         4
        28        27        26        30     9        0.000000       -0.214504         1
        28        27        26        30     9      180.000000       33.461254         2
        28        27        26        30     9        0.000000       -5.627568         3
        28        27        26        30     9      180.000000        0.135267         4
        30        29        28        49     9        0.000000        0.399471         1
        30        29        28        49     9      180.000000       15.777787         2
        30        29        28        49     9        0.000000       -0.622625         3
        30        29        28        49     9      180.000000       -0.473181         4
        36        10        11        38     9        0.000000       -0.140741         1
        36        10        11        38     9      180.000000       -0.009947         2
        36        10        11        38     9        0.000000        0.295617         3
        36        10        11        38     9      180.000000       -0.018107         4
        37        10        11        38     9        0.000000       -0.140741         1
        37        10        11        38     9      180.000000       -0.009947         2
        37        10        11        38     9        0.000000        0.295617         3
        37        10        11        38     9      180.000000       -0.018107         4
        38        11        12        39     9        0.000000       -0.086594         1
        38        11        12        39     9      180.000000        0.026398         2
        38        11        12        39     9        0.000000        0.269152         3
        38        11        12        39     9      180.000000       -0.020189         4
        38        11        12        40     9        0.000000       -0.086594         1
        38        11        12        40     9      180.000000        0.026398         2
        38        11        12        40     9        0.000000        0.269152         3
        38        11        12        40     9      180.000000       -0.020189         4
        38        11        15        43     9        0.000000        0.223574         1
        38        11        15        43     9      180.000000       -0.077956         2
        38        11        15        43     9        0.000000        0.353694         3
        38        11        15        43     9      180.000000       -0.057173         4
        41        14        15        43     9        0.000000       -0.086595         1
        41        14        15        43     9      180.000000        0.026398         2
        41        14        15        43     9        0.000000        0.269152         3
        41        14        15        43     9      180.000000       -0.020189         4
        42        14        15        43     9        0.000000       -0.086595         1
        42        14        15        43     9      180.000000        0.026398         2
        42        14        15        43     9        0.000000        0.269152         3
        42        14        15        43     9      180.000000       -0.020189         4
        43        15        16        44     9        0.000000       -0.140741         1
        43        15        16        44     9      180.000000       -0.009947         2
        43        15        16        44     9        0.000000        0.295617         3
        43        15        16        44     9      180.000000       -0.018107         4
        43        15        16        45     9        0.000000       -0.140741         1
        43        15        16        45     9      180.000000       -0.009947         2
        43        15        16        45     9        0.000000        0.295617         3
        43        15        16        45     9      180.000000       -0.018107         4
        46        22        23        47     9        0.000000       -0.176698         1
        46        22        23        47     9      180.000000       10.882745         2
        46        22        23        47     9        0.000000       -0.527182         3
        46        22        23        47     9      180.000000        0.131688         4
        47        23        24        48     9        0.000000       -0.152786         1
        47        23        24        48     9      180.000000       12.297012         2
        47        23        24        48     9        0.000000       -0.885313         3
        47        23        24        48     9      180.000000        0.289530         4
        49        28        29        50     9        0.000000       -0.304766         1
        49        28        29        50     9      180.000000        8.321253         2
        49        28        29        50     9        0.000000       -0.141498         3
        49        28        29        50     9      180.000000        0.273252         4

[ dihedrals ] ; impropers
;       ai        aj        ak        al funct           phase               k        pn
         2         1         3         8     4      180.000000       19.444551         2
         2         3         8         1     4      180.000000       19.444551         2
         2         8         1         3     4      180.000000       19.444551         2
         4         3         5         6     4      180.000000       22.924222         2
         4         5         6         3     4      180.000000       22.924222         2
         4         6         3         5     4      180.000000       22.924222         2
         7         6         8         9     4      180.000000       27.893333         2
         7         8         9         6     4      180.000000       27.893333         2
         7         9         6         8     4      180.000000       27.893333         2
        22        20        23        46     4      180.000000        0.307014         2
        22        23        46        20     4      180.000000        0.307014         2
        22        46        20        23     4      180.000000        0.307014         2
        23        22        24        47     4      180.000000        2.050246         2
        23        24        47        22     4      180.000000        2.050246         2
        23        47        22        24     4      180.000000        2.050246         2
        24        23        25        48     4      180.000000        0.161180         2
        24        25        48        23     4      180.000000        0.161180         2
        24        48        23        25     4      180.000000        0.161180         2

[ pairs ]
;       ai        aj funct
         1         4     1
         1         7     1
         1        34     1
         2         5     1
         2         6     1
         2         9     1
         3         7     1
         3        31     1
         3        32     1
         3        33     1
         3        35     1
         4         8     1
         4         9     1
         5         7     1
         5        34     1
         6        10     1
         6        16     1
         6        34     1
         6        35     1
         7        11     1
         7        15     1
         7        36     1
         7        37     1
         7        44     1
         7        45     1
         8        10     1
         8        16     1
         8        31     1
         8        32     1
         8        33     1
         8        34     1
         9        12     1
         9        14     1
         9        38     1
         9        43     1
        10        13     1
        10        14     1
        10        39     1
        10        40     1
        10        43     1
        10        44     1
        10        45     1
        11        17     1
        11        41     1
        11        42     1
        11        44     1
        11        45     1
        12        16     1
        12        18     1
        12        19     1
        12        36     1
        12        37     1
        12        41     1
        12        42     1
        12        43     1
        13        16     1
        13        20     1
        13        25     1
        13        38     1
        13        43     1
        14        18     1
        14        19     1
        14        38     1
        14        39     1
        14        40     1
        14        44     1
        14        45     1
        15        17     1
        15        36     1
        15        37     1
        15        39     1
        15        40     1
        16        36     1
        16        37     1
        16        38     1
        16        41     1
        16        42     1
        17        21     1
        17        22     1
        17        24     1
        17        26     1
        17        39     1
        17        40     1
        17        41     1
        17        42     1
        18        20     1
        18        25     1
        19        23     1
        19        27     1
        19        30     1
        19        46     1
        19        48     1
        20        24     1
        20        26     1
        20        47     1
        21        23     1
        21        25     1
        21        46     1
        22        25     1
        22        48     1
        23        26     1
        24        27     1
        24        30     1
        24        46     1
        25        28     1
        25        29     1
        25        47     1
        26        48     1
        26        49     1
        26        50     1
        27        50     1
        30        49     1
        36        38     1
        37        38     1
        38        39     1
        38        40     1
        38        43     1
        41        43     1
        42        43     1
        43        44     1
        43        45     1
        46        47     1
        47        48     1
        49        50     1
