; ITP file created by ByteFF-ML, 2025-12-06 04:45:40.547013

[ atomtypes ]
;name           bonded.type        at.num        mass        charge   ptype           sigma         epsilon
 c0bf                                   6      0.0000       0.00000       A     3.39813e-01     4.50976e-01
 c1bf                                   6      0.0000       0.00000       A     3.31356e-01     4.11183e-01
 c2bf                                   6      0.0000       0.00000       A     3.31508e-01     4.12834e-01
 c3bf                                   6      0.0000       0.00000       A     3.31356e-01     4.11183e-01
 c4bf                                   6      0.0000       0.00000       A     3.39813e-01     4.50976e-01
 n5bf                                   7      0.0000       0.00000       A     3.38255e-01     3.94373e-01
 c6bf                                   6      0.0000       0.00000       A     3.31548e-01     4.12659e-01
 n7bf                                   7      0.0000       0.00000       A     3.38255e-01     3.94373e-01
 n8bf                                   7      0.0000       0.00000       A     3.19428e-01     8.94136e-01
 c9bf                                   6      0.0000       0.00000       A     3.39585e-01     4.49212e-01
 c10bf                                  6      0.0000       0.00000       A     3.39712e-01     4.49806e-01
 h11bf                                  1      0.0000       0.00000       A     2.60149e-01     8.67575e-02
 c12bf                                  6      0.0000       0.00000       A     3.39727e-01     4.50795e-01
 n13bf                                  7      0.0000       0.00000       A     3.18172e-01     6.81534e-01
 c14bf                                  6      0.0000       0.00000       A     3.39727e-01     4.50797e-01
 c15bf                                  6      0.0000       0.00000       A     3.39712e-01     4.49806e-01
 h16bf                                  1      0.0000       0.00000       A     2.60149e-01     8.67575e-02
 c17bf                                  6      0.0000       0.00000       A     3.39585e-01     4.49212e-01
 c18bf                                  6      0.0000       0.00000       A     3.31327e-01     4.13248e-01
 o19bf                                  8      0.0000       0.00000       A     3.04514e-01     6.13792e-01
 c20bf                                  6      0.0000       0.00000       A     3.31273e-01     4.13283e-01
 c21bf                                  6      0.0000       0.00000       A     3.31521e-01     4.13918e-01
 f22bf                                  9      0.0000       0.00000       A     3.03540e-01     3.48621e-01
 c23bf                                  6      0.0000       0.00000       A     3.31463e-01     4.12493e-01
 c24bf                                  6      0.0000       0.00000       A     3.31469e-01     4.12700e-01
 c25bf                                  6      0.0000       0.00000       A     3.31436e-01     4.11484e-01
 c26bf                                  6      0.0000       0.00000       A     3.31571e-01     4.13495e-01
 n27bf                                  7      0.0000       0.00000       A     3.20910e-01     8.46558e-01
 n28bf                                  7      0.0000       0.00000       A     3.38251e-01     3.94826e-01
 c29bf                                  6      0.0000       0.00000       A     3.31301e-01     4.12308e-01
 c30bf                                  6      0.0000       0.00000       A     3.31301e-01     4.12308e-01
 n31bf                                  7      0.0000       0.00000       A     3.38251e-01     3.94826e-01
 h32bf                                  1      0.0000       0.00000       A     2.59989e-01     8.71151e-02
 h33bf                                  1      0.0000       0.00000       A     2.59989e-01     8.71151e-02
 h34bf                                  1      0.0000       0.00000       A     2.59989e-01     8.71151e-02
 h35bf                                  1      0.0000       0.00000       A     2.62556e-01     6.77132e-02
 h36bf                                  1      0.0000       0.00000       A     2.59989e-01     8.71151e-02
 h37bf                                  1      0.0000       0.00000       A     2.59989e-01     8.71151e-02
 h38bf                                  1      0.0000       0.00000       A     2.59989e-01     8.71151e-02
 h39bf                                  1      0.0000       0.00000       A     2.42127e-01     8.72842e-02
 h40bf                                  1      0.0000       0.00000       A     2.42127e-01     8.72842e-02
 h41bf                                  1      0.0000       0.00000       A     2.42171e-01     8.72571e-02
 h42bf                                  1      0.0000       0.00000       A     2.42171e-01     8.72571e-02
 h43bf                                  1      0.0000       0.00000       A     2.42171e-01     8.72571e-02
 h44bf                                  1      0.0000       0.00000       A     2.42171e-01     8.72571e-02
 h45bf                                  1      0.0000       0.00000       A     2.42127e-01     8.72842e-02
 h46bf                                  1      0.0000       0.00000       A     2.42127e-01     8.72842e-02
 h47bf                                  1      0.0000       0.00000       A     2.62509e-01     6.72536e-02
 h48bf                                  1      0.0000       0.00000       A     2.62495e-01     6.71945e-02
 h49bf                                  1      0.0000       0.00000       A     2.62555e-01     6.79734e-02
 h50bf                                  1      0.0000       0.00000       A     2.53897e-01     6.74946e-02
 h51bf                                  1      0.0000       0.00000       A     2.53897e-01     6.74946e-02

[ moleculetype ]
;name             nrexcl
 set_2_8               3

[ atoms ]
;       nr            type      resi   res      atom      cgnr      charge          mass ; qtot
         1            c0bf         1   UNL        c0         1    -0.15050       12.0110 ; qtot   -0.150
         2            c1bf         1   UNL        c1         2     0.16283       12.0110 ; qtot    0.012
         3            c2bf         1   UNL        c2         3    -0.27614       12.0110 ; qtot   -0.264
         4            c3bf         1   UNL        c3         4     0.16283       12.0110 ; qtot   -0.101
         5            c4bf         1   UNL        c4         5    -0.15050       12.0110 ; qtot   -0.251
         6            n5bf         1   UNL        n5         6    -0.25087       14.0070 ; qtot   -0.502
         7            c6bf         1   UNL        c6         7     0.38591       12.0110 ; qtot   -0.116
         8            n7bf         1   UNL        n7         8    -0.25087       14.0070 ; qtot   -0.367
         9            n8bf         1   UNL        n8         9    -0.78178       14.0070 ; qtot   -1.149
        10            c9bf         1   UNL        c9        10     0.23669       12.0110 ; qtot   -0.912
        11           c10bf         1   UNL       c10        11    -0.10223       12.0110 ; qtot   -1.015
        12           h11bf         1   UNL       h11        12     0.07208        1.0080 ; qtot   -0.943
        13           c12bf         1   UNL       c12        13     0.11230       12.0110 ; qtot   -0.830
        14           n13bf         1   UNL       n13        14    -0.41240       14.0070 ; qtot   -1.243
        15           c14bf         1   UNL       c14        15     0.11230       12.0110 ; qtot   -1.130
        16           c15bf         1   UNL       c15        16    -0.10223       12.0110 ; qtot   -1.233
        17           h16bf         1   UNL       h16        17     0.07208        1.0080 ; qtot   -1.160
        18           c17bf         1   UNL       c17        18     0.23669       12.0110 ; qtot   -0.924
        19           c18bf         1   UNL       c18        19     0.64532       12.0110 ; qtot   -0.278
        20           o19bf         1   UNL       o19        20    -0.58742       15.9990 ; qtot   -0.866
        21           c20bf         1   UNL       c20        21    -0.15190       12.0110 ; qtot   -1.018
        22           c21bf         1   UNL       c21        22     0.19456       12.0110 ; qtot   -0.823
        23           f22bf         1   UNL       f22        23    -0.16798       18.9980 ; qtot   -0.991
        24           c23bf         1   UNL       c23        24    -0.14840       12.0110 ; qtot   -1.140
        25           c24bf         1   UNL       c24        25    -0.06562       12.0110 ; qtot   -1.205
        26           c25bf         1   UNL       c25        26    -0.10373       12.0110 ; qtot   -1.309
        27           c26bf         1   UNL       c26        27     0.06898       12.0110 ; qtot   -1.240
        28           n27bf         1   UNL       n27        28     0.31512       14.0070 ; qtot   -0.925
        29           n28bf         1   UNL       n28        29    -0.47882       14.0070 ; qtot   -1.404
        30           c29bf         1   UNL       c29        30     0.20629       12.0110 ; qtot   -1.197
        31           c30bf         1   UNL       c30        31     0.20629       12.0110 ; qtot   -0.991
        32           n31bf         1   UNL       n31        32    -0.47882       14.0070 ; qtot   -1.470
        33           h32bf         1   UNL       h32        33     0.05717        1.0080 ; qtot   -1.413
        34           h33bf         1   UNL       h33        34     0.05717        1.0080 ; qtot   -1.356
        35           h34bf         1   UNL       h34        35     0.05717        1.0080 ; qtot   -1.298
        36           h35bf         1   UNL       h35        36     0.13105        1.0080 ; qtot   -1.167
        37           h36bf         1   UNL       h36        37     0.05717        1.0080 ; qtot   -1.110
        38           h37bf         1   UNL       h37        38     0.05717        1.0080 ; qtot   -1.053
        39           h38bf         1   UNL       h38        39     0.05717        1.0080 ; qtot   -0.996
        40           h39bf         1   UNL       h39        40     0.05798        1.0080 ; qtot   -0.938
        41           h40bf         1   UNL       h40        41     0.05798        1.0080 ; qtot   -0.880
        42           h41bf         1   UNL       h41        42     0.06015        1.0080 ; qtot   -0.820
        43           h42bf         1   UNL       h42        43     0.06015        1.0080 ; qtot   -0.760
        44           h43bf         1   UNL       h43        44     0.06015        1.0080 ; qtot   -0.699
        45           h44bf         1   UNL       h44        45     0.06015        1.0080 ; qtot   -0.639
        46           h45bf         1   UNL       h45        46     0.05798        1.0080 ; qtot   -0.581
        47           h46bf         1   UNL       h46        47     0.05798        1.0080 ; qtot   -0.523
        48           h47bf         1   UNL       h47        48     0.14181        1.0080 ; qtot   -0.382
        49           h48bf         1   UNL       h48        49     0.12690        1.0080 ; qtot   -0.255
        50           h49bf         1   UNL       h49        50     0.14214        1.0080 ; qtot   -0.112
        51           h50bf         1   UNL       h50        51     0.05626        1.0080 ; qtot   -0.056
        52           h51bf         1   UNL       h51        52     0.05624        1.0080 ; qtot    0.000

[ bonds ]
;       ai        aj funct               r               k
         1         2     1        0.150694   207469.745923
         1        33     1        0.109354   305309.983691
         1        34     1        0.109354   305309.983691
         1        35     1        0.109354   305309.983691
         2         3     1        0.140051   285005.555713
         2         8     1        0.133745   333057.585254
         3         4     1        0.140051   285005.555713
         3        36     1        0.108514   321723.577686
         4         5     1        0.150694   207469.745923
         4         6     1        0.133745   333057.585254
         5        37     1        0.109354   305309.983691
         5        38     1        0.109354   305309.983691
         5        39     1        0.109354   305309.983691
         6         7     1        0.135061   255154.794434
         7         8     1        0.135061   255154.794434
         7         9     1        0.136150   322423.090186
         9        10     1        0.146885   181060.582568
         9        18     1        0.146885   181060.582568
        10        11     1        0.153334   175036.020947
        10        40     1        0.109481   294444.786377
        10        41     1        0.109481   294444.786377
        11        12     1        0.109325   303915.912891
        11        13     1        0.153427   175080.787500
        11        16     1        0.154277   149842.117554
        13        14     1        0.147261   177221.103711
        13        42     1        0.109385   298254.744336
        13        43     1        0.109385   298254.744336
        14        15     1        0.147261   177221.078174
        14        19     1        0.135519   319235.318359
        15        16     1        0.153427   175080.787500
        15        44     1        0.109385   298254.744336
        15        45     1        0.109385   298254.744336
        16        17     1        0.109325   303915.912891
        16        18     1        0.153334   175036.020947
        18        46     1        0.109481   294444.811914
        18        47     1        0.109481   294444.811914
        19        20     1        0.123360   594256.707031
        19        21     1        0.151390   177572.570947
        21        22     1        0.139458   293723.388574
        21        27     1        0.140413   276391.377979
        22        23     1        0.135748   284734.964502
        22        24     1        0.139016   308702.537598
        24        25     1        0.139696   310400.653223
        24        48     1        0.108455   325846.007715
        25        26     1        0.139473   319062.687500
        25        49     1        0.108533   323324.933203
        26        27     1        0.139859   295100.783643
        26        50     1        0.108380   327020.204004
        27        28     1        0.142246   231473.134814
        28        29     1        0.134040   244717.267090
        28        32     1        0.134040   244717.267090
        29        30     1        0.133423   350873.498535
        30        31     1        0.141148   279463.543311
        30        51     1        0.108128   339085.415625
        31        32     1        0.133423   350873.498535
        31        52     1        0.108128   339085.415625

[ angles ]
;       ai        aj        ak funct           theta             cth
         1         2         3     1      122.040428      489.957279
         1         2         8     1      116.354942      475.838226
         2         1        33     1      110.547607      500.572608
         2         1        34     1      110.547607      500.572608
         2         1        35     1      110.547607      500.572608
         2         3         4     1      117.478683      761.775612
         2         3        36     1      121.294067      418.995525
         2         8         7     1      116.614647      960.079055
         3         2         8     1      121.655540      736.540159
         3         4         5     1      122.040428      489.957279
         3         4         6     1      121.655540      736.540159
         4         3        36     1      121.294067      418.995525
         4         5        37     1      110.547607      500.572608
         4         5        38     1      110.547607      500.572608
         4         5        39     1      110.547607      500.572608
         4         6         7     1      116.614647      960.079055
         5         4         6     1      116.354942      475.838226
         6         7         8     1      126.191666      604.351846
         6         7         9     1      116.861961      541.920827
         7         9        10     1      122.793289      492.092852
         7         9        18     1      122.793289      492.092852
         8         7         9     1      116.861961      541.920827
         9        10        11     1      102.892921      518.507959
         9        10        40     1      110.665466      411.334999
         9        10        41     1      110.665466      411.334999
         9        18        16     1      102.892921      518.507959
         9        18        46     1      110.665466      411.334967
         9        18        47     1      110.665466      411.334967
        10         9        18     1      113.053551      339.130610
        10        11        12     1      110.411415      471.837104
        10        11        13     1      115.967918      490.766039
        10        11        16     1      103.531944      553.400460
        11        10        40     1      112.134521      456.886371
        11        10        41     1      112.134521      456.886371
        11        13        14     1      103.310646      531.297103
        11        13        42     1      112.216675      453.127085
        11        13        43     1      112.216675      453.127085
        11        16        15     1      103.849319      536.391532
        11        16        17     1      111.068642      475.836438
        11        16        18     1      103.531944      553.400524
        12        11        13     1      110.495773      465.529182
        12        11        16     1      111.068642      475.836438
        13        11        16     1      103.849319      536.391469
        13        14        15     1      111.682663      397.236312
        13        14        19     1      123.751732      462.075033
        14        13        42     1      110.410095      437.420741
        14        13        43     1      110.410095      437.420741
        14        15        16     1      103.310646      531.297103
        14        15        44     1      110.410095      437.420805
        14        15        45     1      110.410095      437.420805
        14        19        20     1      123.358742      631.986382
        14        19        21     1      116.499901      442.236497
        15        14        19     1      123.751732      462.075033
        15        16        17     1      110.495773      465.529182
        15        16        18     1      115.967918      490.766039
        16        15        44     1      112.216675      453.127085
        16        15        45     1      112.216675      453.127085
        16        18        46     1      112.134521      456.886371
        16        18        47     1      112.134521      456.886371
        17        16        18     1      110.411415      471.837104
        19        21        22     1      120.170364      658.951909
        19        21        27     1      123.059631      563.306688
        20        19        21     1      119.672501      497.066619
        21        22        23     1      118.381653      447.457304
        21        22        24     1      123.063400      625.661925
        21        27        26     1      121.246506      661.938219
        21        27        28     1      119.852539      464.186441
        22        21        27     1      116.733643      734.512130
        22        24        25     1      118.224327      691.816126
        22        24        48     1      119.628578      419.195289
        23        22        24     1      118.309547      519.263729
        24        25        26     1      120.316055      729.245229
        24        25        49     1      119.748978      430.367360
        25        24        48     1      122.164230      418.572822
        25        26        27     1      119.566689      681.094307
        25        26        50     1      121.180099      420.410728
        26        25        49     1      119.884033      429.820291
        26        27        28     1      118.315903      543.668651
        27        26        50     1      119.153175      420.650777
        27        28        29     1      121.993149      521.996072
        27        28        32     1      121.993149      521.996072
        28        29        30     1      103.760353      480.370712
        28        32        31     1      103.760353      480.370712
        29        28        32     1      115.047997      210.842930
        29        30        31     1      108.709312      295.765661
        29        30        51     1      120.742882      391.074016
        30        31        32     1      108.709312      295.765661
        30        31        52     1      130.286758      343.611766
        31        30        51     1      130.286758      343.611766
        32        31        52     1      120.742882      391.074016
        33         1        34     1      108.389893      359.969498
        33         1        35     1      108.389893      359.969498
        34         1        35     1      108.389893      359.969498
        37         5        38     1      108.389893      359.969498
        37         5        39     1      108.389893      359.969498
        38         5        39     1      108.389893      359.969498
        40        10        41     1      107.788414      347.454303
        42        13        43     1      107.816490      348.007948
        44        15        45     1      107.816490      348.007948
        46        18        47     1      107.788414      347.454335

[ dihedrals ] ; propers for gromacs 4.5 or higher, use funct 9
;       ai        aj        ak        al funct           phase               k        pn
         1         2         3         4     9        0.000000        0.256556         1
         1         2         3         4     9      180.000000       13.179428         2
         1         2         3         4     9        0.000000       -0.097633         3
         1         2         3         4     9      180.000000       -0.317869         4
         1         2         3        36     9        0.000000       -0.223957         1
         1         2         3        36     9      180.000000       11.375068         2
         1         2         3        36     9        0.000000       -0.534831         3
         1         2         3        36     9      180.000000        0.134009         4
         1         2         8         7     9        0.000000       -0.024262         1
         1         2         8         7     9      180.000000       17.595206         2
         1         2         8         7     9        0.000000        0.133710         3
         1         2         8         7     9      180.000000       -0.526294         4
         2         3         4         5     9        0.000000        0.256556         1
         2         3         4         5     9      180.000000       13.179428         2
         2         3         4         5     9        0.000000       -0.097633         3
         2         3         4         5     9      180.000000       -0.317869         4
         2         3         4         6     9        0.000000       -0.062248         1
         2         3         4         6     9      180.000000       14.568157         2
         2         3         4         6     9        0.000000       -0.276619         3
         2         3         4         6     9      180.000000       -0.509287         4
         2         8         7         6     9        0.000000        0.513200         1
         2         8         7         6     9      180.000000        9.191428         2
         2         8         7         6     9        0.000000        0.738957         3
         2         8         7         6     9      180.000000       -0.519149         4
         2         8         7         9     9        0.000000        1.229503         1
         2         8         7         9     9      180.000000       16.103328         2
         2         8         7         9     9        0.000000        0.664456         3
         2         8         7         9     9      180.000000       -1.018199         4
         3         2         1        33     9        0.000000       -0.025287         1
         3         2         1        33     9      180.000000       -0.035803         2
         3         2         1        33     9        0.000000       -0.089579         3
         3         2         1        33     9      180.000000        0.005712         4
         3         2         1        34     9        0.000000       -0.025287         1
         3         2         1        34     9      180.000000       -0.035803         2
         3         2         1        34     9        0.000000       -0.089579         3
         3         2         1        34     9      180.000000        0.005712         4
         3         2         1        35     9        0.000000       -0.025287         1
         3         2         1        35     9      180.000000       -0.035803         2
         3         2         1        35     9        0.000000       -0.089579         3
         3         2         1        35     9      180.000000        0.005712         4
         3         2         8         7     9        0.000000       -0.379284         1
         3         2         8         7     9      180.000000       19.341465         2
         3         2         8         7     9        0.000000       -1.106329         3
         3         2         8         7     9      180.000000       -0.500796         4
         3         4         5        37     9        0.000000       -0.025287         1
         3         4         5        37     9      180.000000       -0.035803         2
         3         4         5        37     9        0.000000       -0.089579         3
         3         4         5        37     9      180.000000        0.005712         4
         3         4         5        38     9        0.000000       -0.025287         1
         3         4         5        38     9      180.000000       -0.035803         2
         3         4         5        38     9        0.000000       -0.089579         3
         3         4         5        38     9      180.000000        0.005712         4
         3         4         5        39     9        0.000000       -0.025287         1
         3         4         5        39     9      180.000000       -0.035803         2
         3         4         5        39     9        0.000000       -0.089579         3
         3         4         5        39     9      180.000000        0.005712         4
         3         4         6         7     9        0.000000       -0.379284         1
         3         4         6         7     9      180.000000       19.341465         2
         3         4         6         7     9        0.000000       -1.106329         3
         3         4         6         7     9      180.000000       -0.500796         4
         4         3         2         8     9        0.000000       -0.062248         1
         4         3         2         8     9      180.000000       14.568157         2
         4         3         2         8     9        0.000000       -0.276619         3
         4         3         2         8     9      180.000000       -0.509287         4
         4         6         7         8     9        0.000000        0.513200         1
         4         6         7         8     9      180.000000        9.191428         2
         4         6         7         8     9        0.000000        0.738957         3
         4         6         7         8     9      180.000000       -0.519149         4
         4         6         7         9     9        0.000000        1.229503         1
         4         6         7         9     9      180.000000       16.103328         2
         4         6         7         9     9        0.000000        0.664456         3
         4         6         7         9     9      180.000000       -1.018199         4
         5         4         3        36     9        0.000000       -0.223957         1
         5         4         3        36     9      180.000000       11.375068         2
         5         4         3        36     9        0.000000       -0.534831         3
         5         4         3        36     9      180.000000        0.134009         4
         5         4         6         7     9        0.000000       -0.024262         1
         5         4         6         7     9      180.000000       17.595206         2
         5         4         6         7     9        0.000000        0.133710         3
         5         4         6         7     9      180.000000       -0.526294         4
         6         4         3        36     9        0.000000       -0.034010         1
         6         4         3        36     9      180.000000       12.223298         2
         6         4         3        36     9        0.000000       -0.267637         3
         6         4         3        36     9      180.000000       -0.072661         4
         6         4         5        37     9        0.000000        0.003881         1
         6         4         5        37     9      180.000000       -0.062736         2
         6         4         5        37     9        0.000000        0.023445         3
         6         4         5        37     9      180.000000       -0.007650         4
         6         4         5        38     9        0.000000        0.003881         1
         6         4         5        38     9      180.000000       -0.062736         2
         6         4         5        38     9        0.000000        0.023445         3
         6         4         5        38     9      180.000000       -0.007650         4
         6         4         5        39     9        0.000000        0.003881         1
         6         4         5        39     9      180.000000       -0.062736         2
         6         4         5        39     9        0.000000        0.023445         3
         6         4         5        39     9      180.000000       -0.007650         4
         6         7         9        10     9        0.000000        0.747629         1
         6         7         9        10     9      180.000000        9.366863         2
         6         7         9        10     9        0.000000       -0.095722         3
         6         7         9        10     9      180.000000       -1.018206         4
         6         7         9        18     9        0.000000        0.747629         1
         6         7         9        18     9      180.000000        9.366863         2
         6         7         9        18     9        0.000000       -0.095722         3
         6         7         9        18     9      180.000000       -1.018207         4
         7         9        10        11     9        0.000000       -3.777484         1
         7         9        10        11     9      180.000000       -0.445032         2
         7         9        10        11     9        0.000000        0.410580         3
         7         9        10        11     9      180.000000        0.178916         4
         7         9        10        40     9        0.000000       -0.010161         1
         7         9        10        40     9      180.000000       -0.080811         2
         7         9        10        40     9        0.000000        0.536714         3
         7         9        10        40     9      180.000000       -0.022063         4
         7         9        10        41     9        0.000000       -0.010161         1
         7         9        10        41     9      180.000000       -0.080811         2
         7         9        10        41     9        0.000000        0.536714         3
         7         9        10        41     9      180.000000       -0.022063         4
         7         9        18        16     9        0.000000       -3.777483         1
         7         9        18        16     9      180.000000       -0.445032         2
         7         9        18        16     9        0.000000        0.410580         3
         7         9        18        16     9      180.000000        0.178916         4
         7         9        18        46     9        0.000000       -0.010160         1
         7         9        18        46     9      180.000000       -0.080811         2
         7         9        18        46     9        0.000000        0.536713         3
         7         9        18        46     9      180.000000       -0.022063         4
         7         9        18        47     9        0.000000       -0.010160         1
         7         9        18        47     9      180.000000       -0.080811         2
         7         9        18        47     9        0.000000        0.536713         3
         7         9        18        47     9      180.000000       -0.022063         4
         8         2         1        33     9        0.000000        0.003881         1
         8         2         1        33     9      180.000000       -0.062736         2
         8         2         1        33     9        0.000000        0.023445         3
         8         2         1        33     9      180.000000       -0.007650         4
         8         2         1        34     9        0.000000        0.003881         1
         8         2         1        34     9      180.000000       -0.062736         2
         8         2         1        34     9        0.000000        0.023445         3
         8         2         1        34     9      180.000000       -0.007650         4
         8         2         1        35     9        0.000000        0.003881         1
         8         2         1        35     9      180.000000       -0.062736         2
         8         2         1        35     9        0.000000        0.023445         3
         8         2         1        35     9      180.000000       -0.007650         4
         8         2         3        36     9        0.000000       -0.034010         1
         8         2         3        36     9      180.000000       12.223298         2
         8         2         3        36     9        0.000000       -0.267637         3
         8         2         3        36     9      180.000000       -0.072661         4
         8         7         9        10     9        0.000000        0.747629         1
         8         7         9        10     9      180.000000        9.366863         2
         8         7         9        10     9        0.000000       -0.095722         3
         8         7         9        10     9      180.000000       -1.018206         4
         8         7         9        18     9        0.000000        0.747629         1
         8         7         9        18     9      180.000000        9.366863         2
         8         7         9        18     9        0.000000       -0.095722         3
         8         7         9        18     9      180.000000       -1.018207         4
         9        10        11        12     9        0.000000        3.046268         1
         9        10        11        12     9      180.000000       -0.789547         2
         9        10        11        12     9        0.000000       -0.188588         3
         9        10        11        12     9      180.000000        0.438255         4
         9        10        11        13     9        0.000000        0.141092         1
         9        10        11        13     9      180.000000       -1.554591         2
         9        10        11        13     9        0.000000        0.129276         3
         9        10        11        13     9      180.000000        0.187853         4
         9        10        11        16     9        0.000000       -3.183874         1
         9        10        11        16     9      180.000000       11.770762         2
         9        10        11        16     9        0.000000       -0.669596         3
         9        10        11        16     9      180.000000       -2.371234         4
         9        18        16        11     9        0.000000       -3.183877         1
         9        18        16        11     9      180.000000       11.770765         2
         9        18        16        11     9        0.000000       -0.669595         3
         9        18        16        11     9      180.000000       -2.371235         4
         9        18        16        15     9        0.000000        0.141090         1
         9        18        16        15     9      180.000000       -1.554591         2
         9        18        16        15     9        0.000000        0.129275         3
         9        18        16        15     9      180.000000        0.187854         4
         9        18        16        17     9        0.000000        3.046269         1
         9        18        16        17     9      180.000000       -0.789546         2
         9        18        16        17     9        0.000000       -0.188589         3
         9        18        16        17     9      180.000000        0.438256         4
        10         9        18        16     9        0.000000       -0.515520         1
        10         9        18        16     9      180.000000        0.695787         2
        10         9        18        16     9        0.000000        0.374724         3
        10         9        18        16     9      180.000000       -0.306280         4
        10         9        18        46     9        0.000000       -0.040239         1
        10         9        18        46     9      180.000000       -0.063463         2
        10         9        18        46     9        0.000000        0.343611         3
        10         9        18        46     9      180.000000        0.107466         4
        10         9        18        47     9        0.000000       -0.040239         1
        10         9        18        47     9      180.000000       -0.063463         2
        10         9        18        47     9        0.000000        0.343611         3
        10         9        18        47     9      180.000000        0.107466         4
        10        11        13        14     9        0.000000       -0.177639         1
        10        11        13        14     9      180.000000       -1.441189         2
        10        11        13        14     9        0.000000        0.139510         3
        10        11        13        14     9      180.000000        0.103644         4
        10        11        13        42     9        0.000000       -0.090271         1
        10        11        13        42     9      180.000000        0.043314         2
        10        11        13        42     9        0.000000        0.181102         3
        10        11        13        42     9      180.000000        0.056845         4
        10        11        13        43     9        0.000000       -0.090271         1
        10        11        13        43     9      180.000000        0.043314         2
        10        11        13        43     9        0.000000        0.181102         3
        10        11        13        43     9      180.000000        0.056845         4
        10        11        16        15     9        0.000000       -1.429699         1
        10        11        16        15     9      180.000000       -0.955406         2
        10        11        16        15     9        0.000000        0.546147         3
        10        11        16        15     9      180.000000       -0.724522         4
        10        11        16        17     9        0.000000        0.196400         1
        10        11        16        17     9      180.000000        0.124290         2
        10        11        16        17     9        0.000000        0.308842         3
        10        11        16        17     9      180.000000        0.285299         4
        10        11        16        18     9        0.000000       -1.723216         1
        10        11        16        18     9      180.000000       -1.104300         2
        10        11        16        18     9        0.000000        0.465854         3
        10        11        16        18     9      180.000000       -0.749205         4
        11        10         9        18     9        0.000000       -0.515521         1
        11        10         9        18     9      180.000000        0.695785         2
        11        10         9        18     9        0.000000        0.374724         3
        11        10         9        18     9      180.000000       -0.306280         4
        11        13        14        15     9        0.000000       -0.098875         1
        11        13        14        15     9      180.000000       -0.275993         2
        11        13        14        15     9        0.000000        0.219330         3
        11        13        14        15     9      180.000000       -0.018668         4
        11        13        14        19     9        0.000000       -0.924897         1
        11        13        14        19     9      180.000000       -0.742800         2
        11        13        14        19     9        0.000000        0.102248         3
        11        13        14        19     9      180.000000        0.138445         4
        11        16        15        14     9        0.000000       -2.932576         1
        11        16        15        14     9      180.000000        7.822342         2
        11        16        15        14     9        0.000000       -0.704966         3
        11        16        15        14     9      180.000000       -1.187778         4
        11        16        15        44     9        0.000000        0.022483         1
        11        16        15        44     9      180.000000       -0.185436         2
        11        16        15        44     9        0.000000       -0.302149         3
        11        16        15        44     9      180.000000        0.229395         4
        11        16        15        45     9        0.000000        0.022483         1
        11        16        15        45     9      180.000000       -0.185436         2
        11        16        15        45     9        0.000000       -0.302149         3
        11        16        15        45     9      180.000000        0.229395         4
        11        16        18        46     9        0.000000        0.005454         1
        11        16        18        46     9      180.000000       -0.187956         2
        11        16        18        46     9        0.000000       -0.253494         3
        11        16        18        46     9      180.000000        0.289446         4
        11        16        18        47     9        0.000000        0.005454         1
        11        16        18        47     9      180.000000       -0.187956         2
        11        16        18        47     9        0.000000       -0.253494         3
        11        16        18        47     9      180.000000        0.289446         4
        12        11        10        40     9        0.000000       -0.140741         1
        12        11        10        40     9      180.000000       -0.009947         2
        12        11        10        40     9        0.000000        0.295617         3
        12        11        10        40     9      180.000000       -0.018107         4
        12        11        10        41     9        0.000000       -0.140741         1
        12        11        10        41     9      180.000000       -0.009947         2
        12        11        10        41     9        0.000000        0.295617         3
        12        11        10        41     9      180.000000       -0.018107         4
        12        11        13        14     9        0.000000        0.949045         1
        12        11        13        14     9      180.000000       -0.377382         2
        12        11        13        14     9        0.000000       -0.056736         3
        12        11        13        14     9      180.000000        0.252566         4
        12        11        13        42     9        0.000000       -0.086595         1
        12        11        13        42     9      180.000000        0.026399         2
        12        11        13        42     9        0.000000        0.269152         3
        12        11        13        42     9      180.000000       -0.020189         4
        12        11        13        43     9        0.000000       -0.086595         1
        12        11        13        43     9      180.000000        0.026399         2
        12        11        13        43     9        0.000000        0.269152         3
        12        11        13        43     9      180.000000       -0.020189         4
        12        11        16        15     9        0.000000       -0.022164         1
        12        11        16        15     9      180.000000        0.142977         2
        12        11        16        15     9        0.000000        0.388150         3
        12        11        16        15     9      180.000000        0.197015         4
        12        11        16        17     9        0.000000        0.223575         1
        12        11        16        17     9      180.000000       -0.077957         2
        12        11        16        17     9        0.000000        0.353694         3
        12        11        16        17     9      180.000000       -0.057173         4
        12        11        16        18     9        0.000000        0.196400         1
        12        11        16        18     9      180.000000        0.124290         2
        12        11        16        18     9        0.000000        0.308842         3
        12        11        16        18     9      180.000000        0.285300         4
        13        11        10        40     9        0.000000       -0.150868         1
        13        11        10        40     9      180.000000        0.072012         2
        13        11        10        40     9        0.000000        0.214875         3
        13        11        10        40     9      180.000000        0.045180         4
        13        11        10        41     9        0.000000       -0.150868         1
        13        11        10        41     9      180.000000        0.072012         2
        13        11        10        41     9        0.000000        0.214875         3
        13        11        10        41     9      180.000000        0.045180         4
        13        11        16        15     9        0.000000       -0.903493         1
        13        11        16        15     9      180.000000       -0.930898         2
        13        11        16        15     9        0.000000        0.568820         3
        13        11        16        15     9      180.000000       -0.686259         4
        13        11        16        17     9        0.000000       -0.022164         1
        13        11        16        17     9      180.000000        0.142975         2
        13        11        16        17     9        0.000000        0.388149         3
        13        11        16        17     9      180.000000        0.197014         4
        13        11        16        18     9        0.000000       -1.429697         1
        13        11        16        18     9      180.000000       -0.955407         2
        13        11        16        18     9        0.000000        0.546147         3
        13        11        16        18     9      180.000000       -0.724522         4
        13        14        15        16     9        0.000000       -0.098874         1
        13        14        15        16     9      180.000000       -0.275992         2
        13        14        15        16     9        0.000000        0.219330         3
        13        14        15        16     9      180.000000       -0.018667         4
        13        14        15        44     9        0.000000       -0.018324         1
        13        14        15        44     9      180.000000       -0.010219         2
        13        14        15        44     9        0.000000        0.119733         3
        13        14        15        44     9      180.000000        0.059477         4
        13        14        15        45     9        0.000000       -0.018324         1
        13        14        15        45     9      180.000000       -0.010219         2
        13        14        15        45     9        0.000000        0.119733         3
        13        14        15        45     9      180.000000        0.059477         4
        13        14        19        20     9        0.000000       -0.772408         1
        13        14        19        20     9      180.000000       13.817705         2
        13        14        19        20     9        0.000000       -1.124658         3
        13        14        19        20     9      180.000000       -0.523087         4
        13        14        19        21     9        0.000000        3.807757         1
        13        14        19        21     9      180.000000       11.423134         2
        13        14        19        21     9        0.000000        0.950522         3
        13        14        19        21     9      180.000000       -0.728722         4
        14        13        11        16     9        0.000000       -2.932574         1
        14        13        11        16     9      180.000000        7.822342         2
        14        13        11        16     9        0.000000       -0.704967         3
        14        13        11        16     9      180.000000       -1.187777         4
        14        15        16        17     9        0.000000        0.949044         1
        14        15        16        17     9      180.000000       -0.377381         2
        14        15        16        17     9        0.000000       -0.056736         3
        14        15        16        17     9      180.000000        0.252566         4
        14        15        16        18     9        0.000000       -0.177637         1
        14        15        16        18     9      180.000000       -1.441188         2
        14        15        16        18     9        0.000000        0.139510         3
        14        15        16        18     9      180.000000        0.103644         4
        14        19        21        22     9        0.000000       -0.368549         1
        14        19        21        22     9      180.000000        3.799955         2
        14        19        21        22     9        0.000000       -0.343838         3
        14        19        21        22     9      180.000000        0.220399         4
        14        19        21        27     9        0.000000        1.305199         1
        14        19        21        27     9      180.000000        4.080129         2
        14        19        21        27     9        0.000000       -0.555957         3
        14        19        21        27     9      180.000000        0.231954         4
        15        14        13        42     9        0.000000       -0.018323         1
        15        14        13        42     9      180.000000       -0.010220         2
        15        14        13        42     9        0.000000        0.119733         3
        15        14        13        42     9      180.000000        0.059477         4
        15        14        13        43     9        0.000000       -0.018323         1
        15        14        13        43     9      180.000000       -0.010220         2
        15        14        13        43     9        0.000000        0.119733         3
        15        14        13        43     9      180.000000        0.059477         4
        15        14        19        20     9        0.000000       -0.772408         1
        15        14        19        20     9      180.000000       13.817705         2
        15        14        19        20     9        0.000000       -1.124658         3
        15        14        19        20     9      180.000000       -0.523086         4
        15        14        19        21     9        0.000000        3.807755         1
        15        14        19        21     9      180.000000       11.423134         2
        15        14        19        21     9        0.000000        0.950522         3
        15        14        19        21     9      180.000000       -0.728722         4
        15        16        18        46     9        0.000000       -0.150867         1
        15        16        18        46     9      180.000000        0.072012         2
        15        16        18        46     9        0.000000        0.214875         3
        15        16        18        46     9      180.000000        0.045180         4
        15        16        18        47     9        0.000000       -0.150867         1
        15        16        18        47     9      180.000000        0.072012         2
        15        16        18        47     9        0.000000        0.214875         3
        15        16        18        47     9      180.000000        0.045180         4
        16        11        10        40     9        0.000000        0.005453         1
        16        11        10        40     9      180.000000       -0.187956         2
        16        11        10        40     9        0.000000       -0.253494         3
        16        11        10        40     9      180.000000        0.289446         4
        16        11        10        41     9        0.000000        0.005453         1
        16        11        10        41     9      180.000000       -0.187956         2
        16        11        10        41     9        0.000000       -0.253494         3
        16        11        10        41     9      180.000000        0.289446         4
        16        11        13        42     9        0.000000        0.022483         1
        16        11        13        42     9      180.000000       -0.185435         2
        16        11        13        42     9        0.000000       -0.302149         3
        16        11        13        42     9      180.000000        0.229395         4
        16        11        13        43     9        0.000000        0.022483         1
        16        11        13        43     9      180.000000       -0.185435         2
        16        11        13        43     9        0.000000       -0.302149         3
        16        11        13        43     9      180.000000        0.229395         4
        16        15        14        19     9        0.000000       -0.924897         1
        16        15        14        19     9      180.000000       -0.742800         2
        16        15        14        19     9        0.000000        0.102248         3
        16        15        14        19     9      180.000000        0.138446         4
        17        16        15        44     9        0.000000       -0.086595         1
        17        16        15        44     9      180.000000        0.026399         2
        17        16        15        44     9        0.000000        0.269152         3
        17        16        15        44     9      180.000000       -0.020189         4
        17        16        15        45     9        0.000000       -0.086595         1
        17        16        15        45     9      180.000000        0.026399         2
        17        16        15        45     9        0.000000        0.269152         3
        17        16        15        45     9      180.000000       -0.020189         4
        17        16        18        46     9        0.000000       -0.140741         1
        17        16        18        46     9      180.000000       -0.009947         2
        17        16        18        46     9        0.000000        0.295617         3
        17        16        18        46     9      180.000000       -0.018107         4
        17        16        18        47     9        0.000000       -0.140741         1
        17        16        18        47     9      180.000000       -0.009947         2
        17        16        18        47     9        0.000000        0.295617         3
        17        16        18        47     9      180.000000       -0.018107         4
        18         9        10        40     9        0.000000       -0.040238         1
        18         9        10        40     9      180.000000       -0.063463         2
        18         9        10        40     9        0.000000        0.343610         3
        18         9        10        40     9      180.000000        0.107466         4
        18         9        10        41     9        0.000000       -0.040238         1
        18         9        10        41     9      180.000000       -0.063463         2
        18         9        10        41     9        0.000000        0.343610         3
        18         9        10        41     9      180.000000        0.107466         4
        18        16        15        44     9        0.000000       -0.090271         1
        18        16        15        44     9      180.000000        0.043314         2
        18        16        15        44     9        0.000000        0.181102         3
        18        16        15        44     9      180.000000        0.056845         4
        18        16        15        45     9        0.000000       -0.090271         1
        18        16        15        45     9      180.000000        0.043314         2
        18        16        15        45     9        0.000000        0.181102         3
        18        16        15        45     9      180.000000        0.056845         4
        19        14        13        42     9        0.000000        0.071283         1
        19        14        13        42     9      180.000000        0.076326         2
        19        14        13        42     9        0.000000        0.084133         3
        19        14        13        42     9      180.000000       -0.022120         4
        19        14        13        43     9        0.000000        0.071283         1
        19        14        13        43     9      180.000000        0.076326         2
        19        14        13        43     9        0.000000        0.084133         3
        19        14        13        43     9      180.000000       -0.022120         4
        19        14        15        44     9        0.000000        0.071283         1
        19        14        15        44     9      180.000000        0.076325         2
        19        14        15        44     9        0.000000        0.084133         3
        19        14        15        44     9      180.000000       -0.022121         4
        19        14        15        45     9        0.000000        0.071283         1
        19        14        15        45     9      180.000000        0.076325         2
        19        14        15        45     9        0.000000        0.084133         3
        19        14        15        45     9      180.000000       -0.022121         4
        19        21        22        23     9        0.000000        0.323763         1
        19        21        22        23     9      180.000000       17.639030         2
        19        21        22        23     9        0.000000        0.671040         3
        19        21        22        23     9      180.000000       -0.965030         4
        19        21        22        24     9        0.000000       -0.042703         1
        19        21        22        24     9      180.000000       12.507043         2
        19        21        22        24     9        0.000000        0.025809         3
        19        21        22        24     9      180.000000       -0.298713         4
        19        21        27        26     9        0.000000       -0.159484         1
        19        21        27        26     9      180.000000       11.728615         2
        19        21        27        26     9        0.000000       -0.307065         3
        19        21        27        26     9      180.000000       -0.206715         4
        19        21        27        28     9        0.000000       -0.058327         1
        19        21        27        28     9      180.000000       16.156172         2
        19        21        27        28     9        0.000000        0.341550         3
        19        21        27        28     9      180.000000       -0.901251         4
        20        19        21        22     9        0.000000       -1.941662         1
        20        19        21        22     9      180.000000        1.094344         2
        20        19        21        22     9        0.000000        0.427875         3
        20        19        21        22     9      180.000000       -0.033087         4
        20        19        21        27     9        0.000000       -5.069446         1
        20        19        21        27     9      180.000000        1.308677         2
        20        19        21        27     9        0.000000        0.034082         3
        20        19        21        27     9      180.000000       -0.013059         4
        21        22        24        25     9        0.000000       -0.230779         1
        21        22        24        25     9      180.000000       17.563438         2
        21        22        24        25     9        0.000000       -1.369842         3
        21        22        24        25     9      180.000000       -0.339553         4
        21        22        24        48     9        0.000000       -0.133924         1
        21        22        24        48     9      180.000000       13.166471         2
        21        22        24        48     9        0.000000       -0.700048         3
        21        22        24        48     9      180.000000        0.076451         4
        21        27        26        25     9        0.000000       -0.224892         1
        21        27        26        25     9      180.000000       17.844402         2
        21        27        26        25     9        0.000000       -1.762319         3
        21        27        26        25     9      180.000000       -0.293758         4
        21        27        26        50     9        0.000000        0.075314         1
        21        27        26        50     9      180.000000       13.789726         2
        21        27        26        50     9        0.000000       -0.664390         3
        21        27        26        50     9      180.000000        0.152451         4
        21        27        28        29     9        0.000000       -0.928394         1
        21        27        28        29     9      180.000000        3.806786         2
        21        27        28        29     9        0.000000        0.016176         3
        21        27        28        29     9      180.000000       -0.052316         4
        21        27        28        32     9        0.000000       -0.928394         1
        21        27        28        32     9      180.000000        3.806786         2
        21        27        28        32     9        0.000000        0.016176         3
        21        27        28        32     9      180.000000       -0.052316         4
        22        21        27        26     9        0.000000       -0.141325         1
        22        21        27        26     9      180.000000       16.126333         2
        22        21        27        26     9        0.000000       -1.429498         3
        22        21        27        26     9      180.000000       -0.178700         4
        22        21        27        28     9        0.000000        0.375259         1
        22        21        27        28     9      180.000000       18.126685         2
        22        21        27        28     9        0.000000        0.186439         3
        22        21        27        28     9      180.000000       -0.681470         4
        22        24        25        26     9        0.000000       -0.152374         1
        22        24        25        26     9      180.000000       18.716159         2
        22        24        25        26     9        0.000000       -1.818927         3
        22        24        25        26     9      180.000000       -0.453550         4
        22        24        25        49     9        0.000000        0.180905         1
        22        24        25        49     9      180.000000       14.902493         2
        22        24        25        49     9        0.000000       -0.731347         3
        22        24        25        49     9      180.000000        0.027321         4
        23        22        21        27     9        0.000000        0.673215         1
        23        22        21        27     9      180.000000       23.238175         2
        23        22        21        27     9        0.000000        0.955630         3
        23        22        21        27     9      180.000000       -1.163490         4
        23        22        24        25     9        0.000000        0.552801         1
        23        22        24        25     9      180.000000       23.768154         2
        23        22        24        25     9        0.000000        0.607966         3
        23        22        24        25     9      180.000000       -0.689434         4
        23        22        24        48     9        0.000000        0.278729         1
        23        22        24        48     9      180.000000       16.994412         2
        23        22        24        48     9        0.000000        0.338076         3
        23        22        24        48     9      180.000000        0.093222         4
        24        22        21        27     9        0.000000        0.135115         1
        24        22        21        27     9      180.000000       15.814504         2
        24        22        21        27     9        0.000000       -0.812439         3
        24        22        21        27     9      180.000000       -0.422734         4
        24        25        26        27     9        0.000000       -0.192714         1
        24        25        26        27     9      180.000000       18.408475         2
        24        25        26        27     9        0.000000       -1.779917         3
        24        25        26        27     9      180.000000       -0.374513         4
        24        25        26        50     9        0.000000        0.142296         1
        24        25        26        50     9      180.000000       15.187280         2
        24        25        26        50     9        0.000000       -0.758856         3
        24        25        26        50     9      180.000000        0.063922         4
        25        26        27        28     9        0.000000        0.358635         1
        25        26        27        28     9      180.000000       18.702792         2
        25        26        27        28     9        0.000000        0.139137         3
        25        26        27        28     9      180.000000       -0.377296         4
        26        25        24        48     9        0.000000        0.246067         1
        26        25        24        48     9      180.000000       14.028888         2
        26        25        24        48     9        0.000000       -0.660950         3
        26        25        24        48     9      180.000000        0.116191         4
        26        27        28        29     9        0.000000        0.756738         1
        26        27        28        29     9      180.000000        3.189609         2
        26        27        28        29     9        0.000000       -0.349349         3
        26        27        28        29     9      180.000000        0.086097         4
        26        27        28        32     9        0.000000        0.756738         1
        26        27        28        32     9      180.000000        3.189609         2
        26        27        28        32     9        0.000000       -0.349349         3
        26        27        28        32     9      180.000000        0.086097         4
        27        26        25        49     9        0.000000        0.014671         1
        27        26        25        49     9      180.000000       14.765852         2
        27        26        25        49     9        0.000000       -0.786746         3
        27        26        25        49     9      180.000000        0.015738         4
        27        28        29        30     9        0.000000        0.775624         1
        27        28        29        30     9      180.000000       14.213466         2
        27        28        29        30     9        0.000000        0.460130         3
        27        28        29        30     9      180.000000       -0.178471         4
        27        28        32        31     9        0.000000        0.775624         1
        27        28        32        31     9      180.000000       14.213466         2
        27        28        32        31     9        0.000000        0.460130         3
        27        28        32        31     9      180.000000       -0.178471         4
        28        27        26        50     9        0.000000        0.319829         1
        28        27        26        50     9      180.000000       14.602055         2
        28        27        26        50     9        0.000000        0.000376         3
        28        27        26        50     9      180.000000        0.144392         4
        28        29        30        31     9        0.000000       -0.095084         1
        28        29        30        31     9      180.000000       41.109451         2
        28        29        30        31     9        0.000000       -5.890198         3
        28        29        30        31     9      180.000000       -0.007891         4
        28        29        30        51     9        0.000000        1.230247         1
        28        29        30        51     9      180.000000       26.477527         2
        28        29        30        51     9        0.000000       -0.131285         3
        28        29        30        51     9      180.000000       -0.123740         4
        28        32        31        30     9        0.000000       -0.095084         1
        28        32        31        30     9      180.000000       41.109451         2
        28        32        31        30     9        0.000000       -5.890198         3
        28        32        31        30     9      180.000000       -0.007891         4
        28        32        31        52     9        0.000000        1.230247         1
        28        32        31        52     9      180.000000       26.477527         2
        28        32        31        52     9        0.000000       -0.131285         3
        28        32        31        52     9      180.000000       -0.123740         4
        29        28        32        31     9        0.000000       -0.214505         1
        29        28        32        31     9      180.000000       33.461258         2
        29        28        32        31     9        0.000000       -5.627567         3
        29        28        32        31     9      180.000000        0.135267         4
        29        30        31        32     9        0.000000       -0.646396         1
        29        30        31        32     9      180.000000       33.879564         2
        29        30        31        32     9        0.000000       -7.997882         3
        29        30        31        32     9      180.000000       -0.068922         4
        29        30        31        52     9        0.000000        0.399471         1
        29        30        31        52     9      180.000000       15.777787         2
        29        30        31        52     9        0.000000       -0.622625         3
        29        30        31        52     9      180.000000       -0.473181         4
        30        29        28        32     9        0.000000       -0.214505         1
        30        29        28        32     9      180.000000       33.461254         2
        30        29        28        32     9        0.000000       -5.627567         3
        30        29        28        32     9      180.000000        0.135267         4
        32        31        30        51     9        0.000000        0.399471         1
        32        31        30        51     9      180.000000       15.777786         2
        32        31        30        51     9        0.000000       -0.622625         3
        32        31        30        51     9      180.000000       -0.473181         4
        48        24        25        49     9        0.000000       -0.176698         1
        48        24        25        49     9      180.000000       10.882745         2
        48        24        25        49     9        0.000000       -0.527182         3
        48        24        25        49     9      180.000000        0.131688         4
        49        25        26        50     9        0.000000       -0.152786         1
        49        25        26        50     9      180.000000       12.297011         2
        49        25        26        50     9        0.000000       -0.885313         3
        49        25        26        50     9      180.000000        0.289530         4
        51        30        31        52     9        0.000000       -0.304766         1
        51        30        31        52     9      180.000000        8.321253         2
        51        30        31        52     9        0.000000       -0.141498         3
        51        30        31        52     9      180.000000        0.273252         4

[ dihedrals ] ; impropers
;       ai        aj        ak        al funct           phase               k        pn
         2         1         3         8     4      180.000000       21.793920         2
         2         3         8         1     4      180.000000       21.793920         2
         2         8         1         3     4      180.000000       21.793920         2
         4         3         5         6     4      180.000000       21.793920         2
         4         5         6         3     4      180.000000       21.793920         2
         4         6         3         5     4      180.000000       21.793920         2
         7         6         8         9     4      180.000000       27.893333         2
         7         8         9         6     4      180.000000       27.893333         2
         7         9         6         8     4      180.000000       27.893333         2
        24        22        25        48     4      180.000000        0.307014         2
        24        25        48        22     4      180.000000        0.307014         2
        24        48        22        25     4      180.000000        0.307014         2
        25        24        26        49     4      180.000000        2.050246         2
        25        26        49        24     4      180.000000        2.050246         2
        25        49        24        26     4      180.000000        2.050246         2
        26        25        27        50     4      180.000000        0.161180         2
        26        27        50        25     4      180.000000        0.161180         2
        26        50        25        27     4      180.000000        0.161180         2

[ pairs ]
;       ai        aj funct
         1         4     1
         1         7     1
         1        36     1
         2         5     1
         2         6     1
         2         9     1
         3         7     1
         3        33     1
         3        34     1
         3        35     1
         3        37     1
         3        38     1
         3        39     1
         4         8     1
         4         9     1
         5         7     1
         5        36     1
         6        10     1
         6        18     1
         6        36     1
         6        37     1
         6        38     1
         6        39     1
         7        11     1
         7        16     1
         7        40     1
         7        41     1
         7        46     1
         7        47     1
         8        10     1
         8        18     1
         8        33     1
         8        34     1
         8        35     1
         8        36     1
         9        12     1
         9        13     1
         9        15     1
         9        17     1
        10        14     1
        10        15     1
        10        17     1
        10        42     1
        10        43     1
        10        46     1
        10        47     1
        11        19     1
        11        44     1
        11        45     1
        11        46     1
        11        47     1
        12        14     1
        12        15     1
        12        17     1
        12        18     1
        12        40     1
        12        41     1
        12        42     1
        12        43     1
        13        17     1
        13        18     1
        13        20     1
        13        21     1
        13        40     1
        13        41     1
        13        44     1
        13        45     1
        14        17     1
        14        18     1
        14        22     1
        14        27     1
        15        20     1
        15        21     1
        15        42     1
        15        43     1
        15        46     1
        15        47     1
        16        19     1
        16        40     1
        16        41     1
        16        42     1
        16        43     1
        17        44     1
        17        45     1
        17        46     1
        17        47     1
        18        40     1
        18        41     1
        18        44     1
        18        45     1
        19        23     1
        19        24     1
        19        26     1
        19        28     1
        19        42     1
        19        43     1
        19        44     1
        19        45     1
        20        22     1
        20        27     1
        21        25     1
        21        29     1
        21        32     1
        21        48     1
        21        50     1
        22        26     1
        22        28     1
        22        49     1
        23        25     1
        23        27     1
        23        48     1
        24        27     1
        24        50     1
        25        28     1
        26        29     1
        26        32     1
        26        48     1
        27        30     1
        27        31     1
        27        49     1
        28        50     1
        28        51     1
        28        52     1
        29        52     1
        32        51     1
        48        49     1
        49        50     1
        51        52     1
