; ITP file created by ByteFF-ML, 2025-12-06 04:41:31.449629

[ atomtypes ]
;name           bonded.type        at.num        mass        charge   ptype           sigma         epsilon
 c0bf                                   6      0.0000       0.00000       A     3.39815e-01     4.50770e-01
 n1bf                                   7      0.0000       0.00000       A     3.18380e-01     6.84053e-01
 c2bf                                   6      0.0000       0.00000       A     3.39815e-01     4.50770e-01
 c3bf                                   6      0.0000       0.00000       A     3.31534e-01     4.13468e-01
 o4bf                                   8      0.0000       0.00000       A     3.04597e-01     6.11057e-01
 c5bf                                   6      0.0000       0.00000       A     3.31292e-01     4.12324e-01
 c6bf                                   6      0.0000       0.00000       A     3.31668e-01     4.11336e-01
 n7bf                                   7      0.0000       0.00000       A     3.38434e-01     3.96081e-01
 c8bf                                   6      0.0000       0.00000       A     3.31313e-01     4.13846e-01
 n9bf                                   7      0.0000       0.00000       A     3.38414e-01     3.95736e-01
 c10bf                                  6      0.0000       0.00000       A     3.31461e-01     4.14242e-01
 c11bf                                  6      0.0000       0.00000       A     3.39514e-01     4.52366e-01
 f12bf                                  9      0.0000       0.00000       A     3.03594e-01     3.47807e-01
 f13bf                                  9      0.0000       0.00000       A     3.03594e-01     3.47807e-01
 f14bf                                  9      0.0000       0.00000       A     3.03594e-01     3.47807e-01
 n15bf                                  7      0.0000       0.00000       A     3.19420e-01     8.94129e-01
 c16bf                                  6      0.0000       0.00000       A     3.39585e-01     4.49212e-01
 c17bf                                  6      0.0000       0.00000       A     3.39712e-01     4.49806e-01
 c18bf                                  6      0.0000       0.00000       A     3.39727e-01     4.50797e-01
 n19bf                                  7      0.0000       0.00000       A     3.18172e-01     6.81534e-01
 c20bf                                  6      0.0000       0.00000       A     3.39727e-01     4.50797e-01
 c21bf                                  6      0.0000       0.00000       A     3.39712e-01     4.49806e-01
 c22bf                                  6      0.0000       0.00000       A     3.39585e-01     4.49212e-01
 c23bf                                  6      0.0000       0.00000       A     3.31327e-01     4.13248e-01
 o24bf                                  8      0.0000       0.00000       A     3.04514e-01     6.13792e-01
 c25bf                                  6      0.0000       0.00000       A     3.31273e-01     4.13283e-01
 c26bf                                  6      0.0000       0.00000       A     3.31521e-01     4.13918e-01
 f27bf                                  9      0.0000       0.00000       A     3.03540e-01     3.48621e-01
 c28bf                                  6      0.0000       0.00000       A     3.31463e-01     4.12493e-01
 c29bf                                  6      0.0000       0.00000       A     3.31469e-01     4.12700e-01
 c30bf                                  6      0.0000       0.00000       A     3.31436e-01     4.11484e-01
 c31bf                                  6      0.0000       0.00000       A     3.31571e-01     4.13495e-01
 n32bf                                  7      0.0000       0.00000       A     3.20910e-01     8.46558e-01
 n33bf                                  7      0.0000       0.00000       A     3.38251e-01     3.94826e-01
 c34bf                                  6      0.0000       0.00000       A     3.31301e-01     4.12308e-01
 c35bf                                  6      0.0000       0.00000       A     3.31301e-01     4.12308e-01
 n36bf                                  7      0.0000       0.00000       A     3.38251e-01     3.94826e-01
 h37bf                                  1      0.0000       0.00000       A     2.41996e-01     8.72811e-02
 h38bf                                  1      0.0000       0.00000       A     2.41996e-01     8.72811e-02
 h39bf                                  1      0.0000       0.00000       A     2.41996e-01     8.72811e-02
 h40bf                                  1      0.0000       0.00000       A     2.41996e-01     8.72811e-02
 h41bf                                  1      0.0000       0.00000       A     2.41996e-01     8.72811e-02
 h42bf                                  1      0.0000       0.00000       A     2.41996e-01     8.72811e-02
 h43bf                                  1      0.0000       0.00000       A     2.53736e-01     6.69535e-02
 h44bf                                  1      0.0000       0.00000       A     2.42127e-01     8.72842e-02
 h45bf                                  1      0.0000       0.00000       A     2.42127e-01     8.72842e-02
 h46bf                                  1      0.0000       0.00000       A     2.60149e-01     8.67575e-02
 h47bf                                  1      0.0000       0.00000       A     2.42171e-01     8.72571e-02
 h48bf                                  1      0.0000       0.00000       A     2.42171e-01     8.72571e-02
 h49bf                                  1      0.0000       0.00000       A     2.42171e-01     8.72571e-02
 h50bf                                  1      0.0000       0.00000       A     2.42171e-01     8.72571e-02
 h51bf                                  1      0.0000       0.00000       A     2.60149e-01     8.67575e-02
 h52bf                                  1      0.0000       0.00000       A     2.42127e-01     8.72842e-02
 h53bf                                  1      0.0000       0.00000       A     2.42127e-01     8.72842e-02
 h54bf                                  1      0.0000       0.00000       A     2.62509e-01     6.72536e-02
 h55bf                                  1      0.0000       0.00000       A     2.62495e-01     6.71945e-02
 h56bf                                  1      0.0000       0.00000       A     2.62555e-01     6.79734e-02
 h57bf                                  1      0.0000       0.00000       A     2.53896e-01     6.74946e-02
 h58bf                                  1      0.0000       0.00000       A     2.53896e-01     6.74946e-02

[ moleculetype ]
;name             nrexcl
 set_1_15              3

[ atoms ]
;       nr            type      resi   res      atom      cgnr      charge          mass ; qtot
         1            c0bf         1   UNL        c0         1     0.08389       12.0110 ; qtot    0.084
         2            n1bf         1   UNL        n1         2    -0.40326       14.0070 ; qtot   -0.319
         3            c2bf         1   UNL        c2         3     0.08389       12.0110 ; qtot   -0.235
         4            c3bf         1   UNL        c3         4     0.62814       12.0110 ; qtot    0.393
         5            o4bf         1   UNL        o4         5    -0.57561       15.9990 ; qtot   -0.183
         6            c5bf         1   UNL        c5         6    -0.24609       12.0110 ; qtot   -0.429
         7            c6bf         1   UNL        c6         7     0.17987       12.0110 ; qtot   -0.249
         8            n7bf         1   UNL        n7         8    -0.23573       14.0070 ; qtot   -0.485
         9            c8bf         1   UNL        c8         9     0.39745       12.0110 ; qtot   -0.087
        10            n9bf         1   UNL        n9        10    -0.20674       14.0070 ; qtot   -0.294
        11           c10bf         1   UNL       c10        11     0.08932       12.0110 ; qtot   -0.205
        12           c11bf         1   UNL       c11        12     0.25719       12.0110 ; qtot    0.052
        13           f12bf         1   UNL       f12        13    -0.09030       18.9980 ; qtot   -0.038
        14           f13bf         1   UNL       f13        14    -0.09030       18.9980 ; qtot   -0.128
        15           f14bf         1   UNL       f14        15    -0.09030       18.9980 ; qtot   -0.219
        16           n15bf         1   UNL       n15        16    -0.76865       14.0070 ; qtot   -0.987
        17           c16bf         1   UNL       c16        17     0.23699       12.0110 ; qtot   -0.750
        18           c17bf         1   UNL       c17        18    -0.10223       12.0110 ; qtot   -0.852
        19           c18bf         1   UNL       c18        19     0.11230       12.0110 ; qtot   -0.740
        20           n19bf         1   UNL       n19        20    -0.41240       14.0070 ; qtot   -1.153
        21           c20bf         1   UNL       c20        21     0.11230       12.0110 ; qtot   -1.040
        22           c21bf         1   UNL       c21        22    -0.10223       12.0110 ; qtot   -1.142
        23           c22bf         1   UNL       c22        23     0.23699       12.0110 ; qtot   -0.906
        24           c23bf         1   UNL       c23        24     0.64532       12.0110 ; qtot   -0.260
        25           o24bf         1   UNL       o24        25    -0.58742       15.9990 ; qtot   -0.848
        26           c25bf         1   UNL       c25        26    -0.15190       12.0110 ; qtot   -1.000
        27           c26bf         1   UNL       c26        27     0.19456       12.0110 ; qtot   -0.805
        28           f27bf         1   UNL       f27        28    -0.16798       18.9980 ; qtot   -0.973
        29           c28bf         1   UNL       c28        29    -0.14840       12.0110 ; qtot   -1.121
        30           c29bf         1   UNL       c29        30    -0.06562       12.0110 ; qtot   -1.187
        31           c30bf         1   UNL       c30        31    -0.10373       12.0110 ; qtot   -1.291
        32           c31bf         1   UNL       c31        32     0.06898       12.0110 ; qtot   -1.222
        33           n32bf         1   UNL       n32        33     0.31512       14.0070 ; qtot   -0.907
        34           n33bf         1   UNL       n33        34    -0.47882       14.0070 ; qtot   -1.385
        35           c34bf         1   UNL       c34        35     0.20629       12.0110 ; qtot   -1.179
        36           c35bf         1   UNL       c35        36     0.20629       12.0110 ; qtot   -0.973
        37           n36bf         1   UNL       n36        37    -0.47882       14.0070 ; qtot   -1.452
        38           h37bf         1   UNL       h37        38     0.04541        1.0080 ; qtot   -1.406
        39           h38bf         1   UNL       h38        39     0.04541        1.0080 ; qtot   -1.361
        40           h39bf         1   UNL       h39        40     0.04541        1.0080 ; qtot   -1.315
        41           h40bf         1   UNL       h40        41     0.04541        1.0080 ; qtot   -1.270
        42           h41bf         1   UNL       h41        42     0.04541        1.0080 ; qtot   -1.225
        43           h42bf         1   UNL       h42        43     0.04541        1.0080 ; qtot   -1.179
        44           h43bf         1   UNL       h43        44     0.03910        1.0080 ; qtot   -1.140
        45           h44bf         1   UNL       h44        45     0.05798        1.0080 ; qtot   -1.082
        46           h45bf         1   UNL       h45        46     0.05798        1.0080 ; qtot   -1.024
        47           h46bf         1   UNL       h46        47     0.07208        1.0080 ; qtot   -0.952
        48           h47bf         1   UNL       h47        48     0.06015        1.0080 ; qtot   -0.892
        49           h48bf         1   UNL       h48        49     0.06015        1.0080 ; qtot   -0.832
        50           h49bf         1   UNL       h49        50     0.06015        1.0080 ; qtot   -0.772
        51           h50bf         1   UNL       h50        51     0.06015        1.0080 ; qtot   -0.711
        52           h51bf         1   UNL       h51        52     0.07208        1.0080 ; qtot   -0.639
        53           h52bf         1   UNL       h52        53     0.05798        1.0080 ; qtot   -0.581
        54           h53bf         1   UNL       h53        54     0.05798        1.0080 ; qtot   -0.523
        55           h54bf         1   UNL       h54        55     0.14181        1.0080 ; qtot   -0.382
        56           h55bf         1   UNL       h55        56     0.12690        1.0080 ; qtot   -0.255
        57           h56bf         1   UNL       h56        57     0.14214        1.0080 ; qtot   -0.113
        58           h57bf         1   UNL       h57        58     0.05626        1.0080 ; qtot   -0.056
        59           h58bf         1   UNL       h58        59     0.05629        1.0080 ; qtot   -0.000

[ bonds ]
;       ai        aj funct               r               k
         1         2     1        0.145973   208461.977539
         1        38     1        0.109325   300883.687598
         1        39     1        0.109325   300883.687598
         1        40     1        0.109325   300883.687598
         2         3     1        0.145973   208461.977539
         2         4     1        0.136248   307732.076367
         3        41     1        0.109325   300883.687598
         3        42     1        0.109325   300883.687598
         3        43     1        0.109325   300883.687598
         4         5     1        0.123297   591308.600977
         4         6     1        0.151175   176895.109741
         6         7     1        0.140323   275668.703320
         6        11     1        0.140114   275666.507129
         7         8     1        0.132899   369871.167090
         7        44     1        0.108759   318278.672705
         8         9     1        0.135608   246163.331445
         9        10     1        0.135725   243429.609424
         9        16     1        0.135089   342931.023389
        10        11     1        0.132594   351250.605029
        11        12     1        0.152659   185617.577588
        12        13     1        0.135092   238888.421875
        12        14     1        0.135092   238888.421875
        12        15     1        0.135092   238888.421875
        16        17     1        0.146901   180858.737256
        16        23     1        0.146901   180858.737256
        17        18     1        0.153334   175036.020947
        17        45     1        0.109481   294444.786377
        17        46     1        0.109481   294444.786377
        18        19     1        0.153427   175080.787500
        18        22     1        0.154277   149842.130322
        18        47     1        0.109325   303915.887354
        19        20     1        0.147261   177221.078174
        19        48     1        0.109385   298254.744336
        19        49     1        0.109385   298254.744336
        20        21     1        0.147261   177221.103711
        20        24     1        0.135519   319235.343896
        21        22     1        0.153427   175080.787500
        21        50     1        0.109385   298254.744336
        21        51     1        0.109385   298254.744336
        22        23     1        0.153334   175036.020947
        22        52     1        0.109325   303915.912891
        23        53     1        0.109481   294444.811914
        23        54     1        0.109481   294444.811914
        24        25     1        0.123360   594256.707031
        24        26     1        0.151390   177572.570947
        26        27     1        0.139458   293723.388574
        26        32     1        0.140413   276391.377979
        27        28     1        0.135748   284734.964502
        27        29     1        0.139016   308702.537598
        29        30     1        0.139696   310400.653223
        29        55     1        0.108455   325846.007715
        30        31     1        0.139473   319062.661963
        30        56     1        0.108533   323324.933203
        31        32     1        0.139859   295100.783643
        31        57     1        0.108380   327020.204004
        32        33     1        0.142246   231473.134814
        33        34     1        0.134040   244717.267090
        33        37     1        0.134040   244717.267090
        34        35     1        0.133423   350873.498535
        35        36     1        0.141148   279463.543311
        35        58     1        0.108128   339085.415625
        36        37     1        0.133423   350873.498535
        36        59     1        0.108128   339085.415625

[ angles ]
;       ai        aj        ak funct           theta             cth
         1         2         3     1      115.422562      623.897438
         1         2         4     1      121.722755      485.298735
         2         1        38     1      110.169128      485.056005
         2         1        39     1      110.169128      485.056005
         2         1        40     1      110.169128      485.056005
         2         3        41     1      110.169128      485.056005
         2         3        42     1      110.169128      485.056005
         2         3        43     1      110.169128      485.056005
         2         4         5     1      124.204025      579.833858
         2         4         6     1      117.597473      404.269041
         3         2         4     1      121.722755      485.298735
         4         6         7     1      119.932655      571.359624
         4         6        11     1      125.797745      498.140486
         5         4         6     1      118.209023      523.606506
         6         7         8     1      123.824036      753.972046
         6         7        44     1      119.625938      370.266603
         6        11        10     1      123.551712      743.382126
         6        11        12     1      121.947021      439.450080
         7         6        11     1      114.341148      754.195112
         7         8         9     1      115.991455      972.779681
         8         7        44     1      116.338013      375.574427
         8         9        10     1      124.970863      632.674032
         8         9        16     1      117.442909      563.219351
         9        10        11     1      116.716957      903.231917
         9        16        17     1      123.189659      481.233962
         9        16        23     1      123.189659      481.233962
        10         9        16     1      117.335098      547.098285
        10        11        12     1      114.766273      418.410917
        11        12        13     1      111.398376      562.238918
        11        12        14     1      111.398376      562.238918
        11        12        15     1      111.398376      562.238918
        13        12        14     1      107.421082      695.300154
        13        12        15     1      107.421082      695.300154
        14        12        15     1      107.421082      695.300154
        16        17        18     1      102.896164      518.893122
        16        17        45     1      110.657394      411.591551
        16        17        46     1      110.657394      411.591551
        16        23        22     1      102.896164      518.893186
        16        23        53     1      110.657394      411.591551
        16        23        54     1      110.657394      411.591519
        17        16        23     1      113.044533      338.359293
        17        18        19     1      115.967918      490.766039
        17        18        22     1      103.531944      553.400524
        17        18        47     1      110.411415      471.837231
        18        17        45     1      112.134521      456.886371
        18        17        46     1      112.134521      456.886371
        18        19        20     1      103.310646      531.297103
        18        19        48     1      112.216675      453.127085
        18        19        49     1      112.216675      453.127085
        18        22        21     1      103.849327      536.391532
        18        22        23     1      103.531944      553.400524
        18        22        52     1      111.068626      475.836438
        19        18        22     1      103.849327      536.391532
        19        18        47     1      110.495773      465.529182
        19        20        21     1      111.682663      397.236312
        19        20        24     1      123.751732      462.075033
        20        19        48     1      110.410095      437.420741
        20        19        49     1      110.410095      437.420741
        20        21        22     1      103.310646      531.297103
        20        21        50     1      110.410095      437.420741
        20        21        51     1      110.410095      437.420741
        20        24        25     1      123.358742      631.986382
        20        24        26     1      116.499901      442.236497
        21        20        24     1      123.751732      462.075033
        21        22        23     1      115.967918      490.766039
        21        22        52     1      110.495773      465.529246
        22        18        47     1      111.068642      475.836438
        22        21        50     1      112.216675      453.127085
        22        21        51     1      112.216675      453.127085
        22        23        53     1      112.134521      456.886371
        22        23        54     1      112.134521      456.886371
        23        22        52     1      110.411415      471.837167
        24        26        27     1      120.170364      658.951909
        24        26        32     1      123.059631      563.306688
        25        24        26     1      119.672501      497.066650
        26        27        28     1      118.381653      447.457304
        26        27        29     1      123.063400      625.661925
        26        32        31     1      121.246506      661.938219
        26        32        33     1      119.852539      464.186441
        27        26        32     1      116.733643      734.512130
        27        29        30     1      118.224327      691.816126
        27        29        55     1      119.628578      419.195289
        28        27        29     1      118.309547      519.263729
        29        30        31     1      120.316055      729.245229
        29        30        56     1      119.748978      430.367360
        30        29        55     1      122.164230      418.572822
        30        31        32     1      119.566689      681.094307
        30        31        57     1      121.180099      420.410728
        31        30        56     1      119.884033      429.820291
        31        32        33     1      118.315903      543.668651
        32        31        57     1      119.153175      420.650841
        32        33        34     1      121.993149      521.996072
        32        33        37     1      121.993149      521.996072
        33        34        35     1      103.760353      480.370712
        33        37        36     1      103.760353      480.370712
        34        33        37     1      115.047997      210.842930
        34        35        36     1      108.709305      295.765693
        34        35        58     1      120.742874      391.073952
        35        36        37     1      108.709305      295.765693
        35        36        59     1      130.286743      343.611766
        36        35        58     1      130.286743      343.611766
        37        36        59     1      120.742874      391.073952
        38         1        39     1      108.828331      347.002520
        38         1        40     1      108.828331      347.002520
        39         1        40     1      108.828331      347.002520
        41         3        42     1      108.828331      347.002520
        41         3        43     1      108.828331      347.002520
        42         3        43     1      108.828331      347.002520
        45        17        46     1      107.788414      347.454335
        48        19        49     1      107.816490      348.007916
        50        21        51     1      107.816490      348.007948
        53        23        54     1      107.788414      347.454335

[ dihedrals ] ; propers for gromacs 4.5 or higher, use funct 9
;       ai        aj        ak        al funct           phase               k        pn
         1         2         3        41     9        0.000000       -0.068107         1
         1         2         3        41     9      180.000000        0.045755         2
         1         2         3        41     9        0.000000        1.250332         3
         1         2         3        41     9      180.000000        0.005018         4
         1         2         3        42     9        0.000000       -0.068107         1
         1         2         3        42     9      180.000000        0.045755         2
         1         2         3        42     9        0.000000        1.250332         3
         1         2         3        42     9      180.000000        0.005018         4
         1         2         3        43     9        0.000000       -0.068107         1
         1         2         3        43     9      180.000000        0.045755         2
         1         2         3        43     9        0.000000        1.250332         3
         1         2         3        43     9      180.000000        0.005018         4
         1         2         4         5     9        0.000000       -0.781849         1
         1         2         4         5     9      180.000000       11.800679         2
         1         2         4         5     9        0.000000       -1.337335         3
         1         2         4         5     9      180.000000       -0.200553         4
         1         2         4         6     9        0.000000       10.692241         1
         1         2         4         6     9      180.000000       15.751420         2
         1         2         4         6     9        0.000000        1.581546         3
         1         2         4         6     9      180.000000       -0.428774         4
         2         4         6         7     9        0.000000        0.874802         1
         2         4         6         7     9      180.000000        4.332019         2
         2         4         6         7     9        0.000000        0.281219         3
         2         4         6         7     9      180.000000       -0.073877         4
         2         4         6        11     9        0.000000        0.366304         1
         2         4         6        11     9      180.000000        4.536172         2
         2         4         6        11     9        0.000000       -0.494265         3
         2         4         6        11     9      180.000000        0.085211         4
         3         2         1        38     9        0.000000       -0.068107         1
         3         2         1        38     9      180.000000        0.045755         2
         3         2         1        38     9        0.000000        1.250332         3
         3         2         1        38     9      180.000000        0.005018         4
         3         2         1        39     9        0.000000       -0.068107         1
         3         2         1        39     9      180.000000        0.045755         2
         3         2         1        39     9        0.000000        1.250332         3
         3         2         1        39     9      180.000000        0.005018         4
         3         2         1        40     9        0.000000       -0.068107         1
         3         2         1        40     9      180.000000        0.045755         2
         3         2         1        40     9        0.000000        1.250332         3
         3         2         1        40     9      180.000000        0.005018         4
         3         2         4         5     9        0.000000       -0.781849         1
         3         2         4         5     9      180.000000       11.800679         2
         3         2         4         5     9        0.000000       -1.337335         3
         3         2         4         5     9      180.000000       -0.200553         4
         3         2         4         6     9        0.000000       10.692241         1
         3         2         4         6     9      180.000000       15.751420         2
         3         2         4         6     9        0.000000        1.581546         3
         3         2         4         6     9      180.000000       -0.428774         4
         4         2         1        38     9        0.000000       -0.005893         1
         4         2         1        38     9      180.000000        0.015589         2
         4         2         1        38     9        0.000000        0.072825         3
         4         2         1        38     9      180.000000        0.011921         4
         4         2         1        39     9        0.000000       -0.005893         1
         4         2         1        39     9      180.000000        0.015589         2
         4         2         1        39     9        0.000000        0.072825         3
         4         2         1        39     9      180.000000        0.011921         4
         4         2         1        40     9        0.000000       -0.005893         1
         4         2         1        40     9      180.000000        0.015589         2
         4         2         1        40     9        0.000000        0.072825         3
         4         2         1        40     9      180.000000        0.011921         4
         4         2         3        41     9        0.000000       -0.005893         1
         4         2         3        41     9      180.000000        0.015589         2
         4         2         3        41     9        0.000000        0.072825         3
         4         2         3        41     9      180.000000        0.011921         4
         4         2         3        42     9        0.000000       -0.005893         1
         4         2         3        42     9      180.000000        0.015589         2
         4         2         3        42     9        0.000000        0.072825         3
         4         2         3        42     9      180.000000        0.011921         4
         4         2         3        43     9        0.000000       -0.005893         1
         4         2         3        43     9      180.000000        0.015589         2
         4         2         3        43     9        0.000000        0.072825         3
         4         2         3        43     9      180.000000        0.011921         4
         4         6         7         8     9        0.000000        0.216079         1
         4         6         7         8     9      180.000000       13.810698         2
         4         6         7         8     9        0.000000        0.170125         3
         4         6         7         8     9      180.000000       -0.644112         4
         4         6         7        44     9        0.000000        0.162820         1
         4         6         7        44     9      180.000000       12.544552         2
         4         6         7        44     9        0.000000       -0.258406         3
         4         6         7        44     9      180.000000       -0.110357         4
         4         6        11        10     9        0.000000       -0.180728         1
         4         6        11        10     9      180.000000       11.703420         2
         4         6        11        10     9        0.000000       -0.049965         3
         4         6        11        10     9      180.000000       -0.620504         4
         4         6        11        12     9        0.000000        0.673861         1
         4         6        11        12     9      180.000000       12.453861         2
         4         6        11        12     9        0.000000        0.861354         3
         4         6        11        12     9      180.000000       -0.561654         4
         5         4         6         7     9        0.000000       -0.230947         1
         5         4         6         7     9      180.000000        0.528305         2
         5         4         6         7     9        0.000000        0.210740         3
         5         4         6         7     9      180.000000       -0.016199         4
         5         4         6        11     9        0.000000       -3.965327         1
         5         4         6        11     9      180.000000       -0.044367         2
         5         4         6        11     9        0.000000       -0.401846         3
         5         4         6        11     9      180.000000        0.055537         4
         6         7         8         9     9        0.000000       -0.476244         1
         6         7         8         9     9      180.000000       18.914555         2
         6         7         8         9     9        0.000000       -1.319595         3
         6         7         8         9     9      180.000000       -0.296886         4
         6        11        10         9     9        0.000000       -0.741765         1
         6        11        10         9     9      180.000000       18.221079         2
         6        11        10         9     9        0.000000       -1.781513         3
         6        11        10         9     9      180.000000       -0.588920         4
         6        11        12        13     9        0.000000       -0.231283         1
         6        11        12        13     9      180.000000        0.045322         2
         6        11        12        13     9        0.000000       -0.258787         3
         6        11        12        13     9      180.000000        0.050470         4
         6        11        12        14     9        0.000000       -0.231283         1
         6        11        12        14     9      180.000000        0.045322         2
         6        11        12        14     9        0.000000       -0.258787         3
         6        11        12        14     9      180.000000        0.050470         4
         6        11        12        15     9        0.000000       -0.231283         1
         6        11        12        15     9      180.000000        0.045322         2
         6        11        12        15     9        0.000000       -0.258787         3
         6        11        12        15     9      180.000000        0.050470         4
         7         6        11        10     9        0.000000       -0.012693         1
         7         6        11        10     9      180.000000       13.607069         2
         7         6        11        10     9        0.000000       -0.288080         3
         7         6        11        10     9      180.000000       -0.543548         4
         7         6        11        12     9        0.000000        0.994573         1
         7         6        11        12     9      180.000000       12.564925         2
         7         6        11        12     9        0.000000        0.525196         3
         7         6        11        12     9      180.000000       -0.444976         4
         7         8         9        10     9        0.000000        0.870031         1
         7         8         9        10     9      180.000000        8.984481         2
         7         8         9        10     9        0.000000        0.622870         3
         7         8         9        10     9      180.000000       -0.498209         4
         7         8         9        16     9        0.000000        0.244579         1
         7         8         9        16     9      180.000000       14.575130         2
         7         8         9        16     9        0.000000        0.661924         3
         7         8         9        16     9      180.000000       -0.910783         4
         8         7         6        11     9        0.000000        0.285988         1
         8         7         6        11     9      180.000000       15.710682         2
         8         7         6        11     9        0.000000       -0.401329         3
         8         7         6        11     9      180.000000       -0.728260         4
         8         9        10        11     9        0.000000        1.491614         1
         8         9        10        11     9      180.000000        7.948192         2
         8         9        10        11     9        0.000000        0.831743         3
         8         9        10        11     9      180.000000       -0.568875         4
         8         9        16        17     9        0.000000        0.670155         1
         8         9        16        17     9      180.000000       10.828500         2
         8         9        16        17     9        0.000000       -0.227542         3
         8         9        16        17     9      180.000000       -0.943406         4
         8         9        16        23     9        0.000000        0.670155         1
         8         9        16        23     9      180.000000       10.828502         2
         8         9        16        23     9        0.000000       -0.227543         3
         8         9        16        23     9      180.000000       -0.943407         4
         9         8         7        44     9        0.000000        0.252683         1
         9         8         7        44     9      180.000000       16.546181         2
         9         8         7        44     9        0.000000       -0.164530         3
         9         8         7        44     9      180.000000       -0.272393         4
         9        10        11        12     9        0.000000        0.957532         1
         9        10        11        12     9      180.000000       18.555218         2
         9        10        11        12     9        0.000000        0.656813         3
         9        10        11        12     9      180.000000       -0.712917         4
         9        16        17        18     9        0.000000       -3.165991         1
         9        16        17        18     9      180.000000       -0.559785         2
         9        16        17        18     9        0.000000        0.348002         3
         9        16        17        18     9      180.000000        0.231727         4
         9        16        17        45     9        0.000000        0.033496         1
         9        16        17        45     9      180.000000       -0.087992         2
         9        16        17        45     9        0.000000        0.474182         3
         9        16        17        45     9      180.000000       -0.005628         4
         9        16        17        46     9        0.000000        0.033495         1
         9        16        17        46     9      180.000000       -0.087993         2
         9        16        17        46     9        0.000000        0.474183         3
         9        16        17        46     9      180.000000       -0.005628         4
         9        16        23        22     9        0.000000       -3.165988         1
         9        16        23        22     9      180.000000       -0.559785         2
         9        16        23        22     9        0.000000        0.348002         3
         9        16        23        22     9      180.000000        0.231727         4
         9        16        23        53     9        0.000000        0.033496         1
         9        16        23        53     9      180.000000       -0.087991         2
         9        16        23        53     9        0.000000        0.474183         3
         9        16        23        53     9      180.000000       -0.005628         4
         9        16        23        54     9        0.000000        0.033496         1
         9        16        23        54     9      180.000000       -0.087991         2
         9        16        23        54     9        0.000000        0.474183         3
         9        16        23        54     9      180.000000       -0.005628         4
        10         9        16        17     9        0.000000        0.484445         1
        10         9        16        17     9      180.000000       11.101063         2
        10         9        16        17     9        0.000000       -0.246303         3
        10         9        16        17     9      180.000000       -0.884417         4
        10         9        16        23     9        0.000000        0.484444         1
        10         9        16        23     9      180.000000       11.101063         2
        10         9        16        23     9        0.000000       -0.246304         3
        10         9        16        23     9      180.000000       -0.884417         4
        10        11        12        13     9        0.000000        0.287748         1
        10        11        12        13     9      180.000000       -0.027662         2
        10        11        12        13     9        0.000000        0.151667         3
        10        11        12        13     9      180.000000        0.043400         4
        10        11        12        14     9        0.000000        0.287748         1
        10        11        12        14     9      180.000000       -0.027662         2
        10        11        12        14     9        0.000000        0.151667         3
        10        11        12        14     9      180.000000        0.043400         4
        10        11        12        15     9        0.000000        0.287748         1
        10        11        12        15     9      180.000000       -0.027662         2
        10        11        12        15     9        0.000000        0.151667         3
        10        11        12        15     9      180.000000        0.043400         4
        11         6         7        44     9        0.000000        0.440171         1
        11         6         7        44     9      180.000000       12.969023         2
        11         6         7        44     9        0.000000       -0.494413         3
        11         6         7        44     9      180.000000       -0.178195         4
        11        10         9        16     9        0.000000        1.198959         1
        11        10         9        16     9      180.000000       14.228037         2
        11        10         9        16     9        0.000000        0.720799         3
        11        10         9        16     9      180.000000       -1.135955         4
        16        17        18        19     9        0.000000        0.125825         1
        16        17        18        19     9      180.000000       -1.570473         2
        16        17        18        19     9        0.000000        0.127607         3
        16        17        18        19     9      180.000000        0.190323         4
        16        17        18        22     9        0.000000       -3.202014         1
        16        17        18        22     9      180.000000       11.750498         2
        16        17        18        22     9        0.000000       -0.669209         3
        16        17        18        22     9      180.000000       -2.372409         4
        16        17        18        47     9        0.000000        3.051093         1
        16        17        18        47     9      180.000000       -0.790161         2
        16        17        18        47     9        0.000000       -0.187614         3
        16        17        18        47     9      180.000000        0.436888         4
        16        23        22        18     9        0.000000       -3.202011         1
        16        23        22        18     9      180.000000       11.750500         2
        16        23        22        18     9        0.000000       -0.669209         3
        16        23        22        18     9      180.000000       -2.372410         4
        16        23        22        21     9        0.000000        0.125825         1
        16        23        22        21     9      180.000000       -1.570472         2
        16        23        22        21     9        0.000000        0.127607         3
        16        23        22        21     9      180.000000        0.190323         4
        16        23        22        52     9        0.000000        3.051090         1
        16        23        22        52     9      180.000000       -0.790161         2
        16        23        22        52     9        0.000000       -0.187614         3
        16        23        22        52     9      180.000000        0.436888         4
        17        16        23        22     9        0.000000       -0.505979         1
        17        16        23        22     9      180.000000        0.699198         2
        17        16        23        22     9        0.000000        0.376289         3
        17        16        23        22     9      180.000000       -0.310398         4
        17        16        23        53     9        0.000000       -0.039861         1
        17        16        23        53     9      180.000000       -0.062665         2
        17        16        23        53     9        0.000000        0.341065         3
        17        16        23        53     9      180.000000        0.107718         4
        17        16        23        54     9        0.000000       -0.039861         1
        17        16        23        54     9      180.000000       -0.062665         2
        17        16        23        54     9        0.000000        0.341065         3
        17        16        23        54     9      180.000000        0.107718         4
        17        18        19        20     9        0.000000       -0.177639         1
        17        18        19        20     9      180.000000       -1.441188         2
        17        18        19        20     9        0.000000        0.139510         3
        17        18        19        20     9      180.000000        0.103643         4
        17        18        19        48     9        0.000000       -0.090271         1
        17        18        19        48     9      180.000000        0.043314         2
        17        18        19        48     9        0.000000        0.181102         3
        17        18        19        48     9      180.000000        0.056845         4
        17        18        19        49     9        0.000000       -0.090271         1
        17        18        19        49     9      180.000000        0.043314         2
        17        18        19        49     9        0.000000        0.181102         3
        17        18        19        49     9      180.000000        0.056845         4
        17        18        22        21     9        0.000000       -1.429697         1
        17        18        22        21     9      180.000000       -0.955407         2
        17        18        22        21     9        0.000000        0.546147         3
        17        18        22        21     9      180.000000       -0.724521         4
        17        18        22        23     9        0.000000       -1.723216         1
        17        18        22        23     9      180.000000       -1.104300         2
        17        18        22        23     9        0.000000        0.465854         3
        17        18        22        23     9      180.000000       -0.749204         4
        17        18        22        52     9        0.000000        0.196400         1
        17        18        22        52     9      180.000000        0.124290         2
        17        18        22        52     9        0.000000        0.308843         3
        17        18        22        52     9      180.000000        0.285300         4
        18        17        16        23     9        0.000000       -0.505981         1
        18        17        16        23     9      180.000000        0.699200         2
        18        17        16        23     9        0.000000        0.376290         3
        18        17        16        23     9      180.000000       -0.310399         4
        18        19        20        21     9        0.000000       -0.098874         1
        18        19        20        21     9      180.000000       -0.275992         2
        18        19        20        21     9        0.000000        0.219330         3
        18        19        20        21     9      180.000000       -0.018668         4
        18        19        20        24     9        0.000000       -0.924898         1
        18        19        20        24     9      180.000000       -0.742800         2
        18        19        20        24     9        0.000000        0.102247         3
        18        19        20        24     9      180.000000        0.138445         4
        18        22        21        20     9        0.000000       -2.932575         1
        18        22        21        20     9      180.000000        7.822341         2
        18        22        21        20     9        0.000000       -0.704965         3
        18        22        21        20     9      180.000000       -1.187778         4
        18        22        21        50     9        0.000000        0.022483         1
        18        22        21        50     9      180.000000       -0.185436         2
        18        22        21        50     9        0.000000       -0.302149         3
        18        22        21        50     9      180.000000        0.229395         4
        18        22        21        51     9        0.000000        0.022483         1
        18        22        21        51     9      180.000000       -0.185436         2
        18        22        21        51     9        0.000000       -0.302149         3
        18        22        21        51     9      180.000000        0.229395         4
        18        22        23        53     9        0.000000        0.005453         1
        18        22        23        53     9      180.000000       -0.187956         2
        18        22        23        53     9        0.000000       -0.253493         3
        18        22        23        53     9      180.000000        0.289446         4
        18        22        23        54     9        0.000000        0.005453         1
        18        22        23        54     9      180.000000       -0.187956         2
        18        22        23        54     9        0.000000       -0.253493         3
        18        22        23        54     9      180.000000        0.289446         4
        19        18        17        45     9        0.000000       -0.150868         1
        19        18        17        45     9      180.000000        0.072012         2
        19        18        17        45     9        0.000000        0.214875         3
        19        18        17        45     9      180.000000        0.045180         4
        19        18        17        46     9        0.000000       -0.150868         1
        19        18        17        46     9      180.000000        0.072012         2
        19        18        17        46     9        0.000000        0.214875         3
        19        18        17        46     9      180.000000        0.045179         4
        19        18        22        21     9        0.000000       -0.903494         1
        19        18        22        21     9      180.000000       -0.930898         2
        19        18        22        21     9        0.000000        0.568820         3
        19        18        22        21     9      180.000000       -0.686260         4
        19        18        22        23     9        0.000000       -1.429699         1
        19        18        22        23     9      180.000000       -0.955405         2
        19        18        22        23     9        0.000000        0.546147         3
        19        18        22        23     9      180.000000       -0.724522         4
        19        18        22        52     9        0.000000       -0.022164         1
        19        18        22        52     9      180.000000        0.142975         2
        19        18        22        52     9        0.000000        0.388150         3
        19        18        22        52     9      180.000000        0.197015         4
        19        20        21        22     9        0.000000       -0.098875         1
        19        20        21        22     9      180.000000       -0.275991         2
        19        20        21        22     9        0.000000        0.219330         3
        19        20        21        22     9      180.000000       -0.018668         4
        19        20        21        50     9        0.000000       -0.018324         1
        19        20        21        50     9      180.000000       -0.010219         2
        19        20        21        50     9        0.000000        0.119733         3
        19        20        21        50     9      180.000000        0.059477         4
        19        20        21        51     9        0.000000       -0.018324         1
        19        20        21        51     9      180.000000       -0.010219         2
        19        20        21        51     9        0.000000        0.119733         3
        19        20        21        51     9      180.000000        0.059477         4
        19        20        24        25     9        0.000000       -0.772407         1
        19        20        24        25     9      180.000000       13.817704         2
        19        20        24        25     9        0.000000       -1.124658         3
        19        20        24        25     9      180.000000       -0.523087         4
        19        20        24        26     9        0.000000        3.807755         1
        19        20        24        26     9      180.000000       11.423134         2
        19        20        24        26     9        0.000000        0.950522         3
        19        20        24        26     9      180.000000       -0.728722         4
        20        19        18        22     9        0.000000       -2.932575         1
        20        19        18        22     9      180.000000        7.822339         2
        20        19        18        22     9        0.000000       -0.704966         3
        20        19        18        22     9      180.000000       -1.187778         4
        20        19        18        47     9        0.000000        0.949044         1
        20        19        18        47     9      180.000000       -0.377382         2
        20        19        18        47     9        0.000000       -0.056736         3
        20        19        18        47     9      180.000000        0.252566         4
        20        21        22        23     9        0.000000       -0.177640         1
        20        21        22        23     9      180.000000       -1.441189         2
        20        21        22        23     9        0.000000        0.139510         3
        20        21        22        23     9      180.000000        0.103643         4
        20        21        22        52     9        0.000000        0.949044         1
        20        21        22        52     9      180.000000       -0.377382         2
        20        21        22        52     9        0.000000       -0.056736         3
        20        21        22        52     9      180.000000        0.252566         4
        20        24        26        27     9        0.000000       -0.368550         1
        20        24        26        27     9      180.000000        3.799954         2
        20        24        26        27     9        0.000000       -0.343838         3
        20        24        26        27     9      180.000000        0.220400         4
        20        24        26        32     9        0.000000        1.305198         1
        20        24        26        32     9      180.000000        4.080130         2
        20        24        26        32     9        0.000000       -0.555958         3
        20        24        26        32     9      180.000000        0.231955         4
        21        20        19        48     9        0.000000       -0.018324         1
        21        20        19        48     9      180.000000       -0.010219         2
        21        20        19        48     9        0.000000        0.119733         3
        21        20        19        48     9      180.000000        0.059477         4
        21        20        19        49     9        0.000000       -0.018324         1
        21        20        19        49     9      180.000000       -0.010219         2
        21        20        19        49     9        0.000000        0.119733         3
        21        20        19        49     9      180.000000        0.059477         4
        21        20        24        25     9        0.000000       -0.772407         1
        21        20        24        25     9      180.000000       13.817704         2
        21        20        24        25     9        0.000000       -1.124658         3
        21        20        24        25     9      180.000000       -0.523087         4
        21        20        24        26     9        0.000000        3.807756         1
        21        20        24        26     9      180.000000       11.423134         2
        21        20        24        26     9        0.000000        0.950522         3
        21        20        24        26     9      180.000000       -0.728722         4
        21        22        18        47     9        0.000000       -0.022163         1
        21        22        18        47     9      180.000000        0.142975         2
        21        22        18        47     9        0.000000        0.388150         3
        21        22        18        47     9      180.000000        0.197014         4
        21        22        23        53     9        0.000000       -0.150868         1
        21        22        23        53     9      180.000000        0.072012         2
        21        22        23        53     9        0.000000        0.214875         3
        21        22        23        53     9      180.000000        0.045180         4
        21        22        23        54     9        0.000000       -0.150868         1
        21        22        23        54     9      180.000000        0.072012         2
        21        22        23        54     9        0.000000        0.214875         3
        21        22        23        54     9      180.000000        0.045180         4
        22        18        17        45     9        0.000000        0.005454         1
        22        18        17        45     9      180.000000       -0.187956         2
        22        18        17        45     9        0.000000       -0.253494         3
        22        18        17        45     9      180.000000        0.289446         4
        22        18        17        46     9        0.000000        0.005453         1
        22        18        17        46     9      180.000000       -0.187957         2
        22        18        17        46     9        0.000000       -0.253494         3
        22        18        17        46     9      180.000000        0.289446         4
        22        18        19        48     9        0.000000        0.022483         1
        22        18        19        48     9      180.000000       -0.185435         2
        22        18        19        48     9        0.000000       -0.302149         3
        22        18        19        48     9      180.000000        0.229395         4
        22        18        19        49     9        0.000000        0.022483         1
        22        18        19        49     9      180.000000       -0.185435         2
        22        18        19        49     9        0.000000       -0.302149         3
        22        18        19        49     9      180.000000        0.229395         4
        22        21        20        24     9        0.000000       -0.924897         1
        22        21        20        24     9      180.000000       -0.742800         2
        22        21        20        24     9        0.000000        0.102247         3
        22        21        20        24     9      180.000000        0.138445         4
        23        16        17        45     9        0.000000       -0.039860         1
        23        16        17        45     9      180.000000       -0.062664         2
        23        16        17        45     9        0.000000        0.341065         3
        23        16        17        45     9      180.000000        0.107718         4
        23        16        17        46     9        0.000000       -0.039861         1
        23        16        17        46     9      180.000000       -0.062664         2
        23        16        17        46     9        0.000000        0.341065         3
        23        16        17        46     9      180.000000        0.107718         4
        23        22        18        47     9        0.000000        0.196400         1
        23        22        18        47     9      180.000000        0.124289         2
        23        22        18        47     9        0.000000        0.308842         3
        23        22        18        47     9      180.000000        0.285300         4
        23        22        21        50     9        0.000000       -0.090272         1
        23        22        21        50     9      180.000000        0.043313         2
        23        22        21        50     9        0.000000        0.181102         3
        23        22        21        50     9      180.000000        0.056845         4
        23        22        21        51     9        0.000000       -0.090272         1
        23        22        21        51     9      180.000000        0.043313         2
        23        22        21        51     9        0.000000        0.181102         3
        23        22        21        51     9      180.000000        0.056845         4
        24        20        19        48     9        0.000000        0.071282         1
        24        20        19        48     9      180.000000        0.076325         2
        24        20        19        48     9        0.000000        0.084134         3
        24        20        19        48     9      180.000000       -0.022120         4
        24        20        19        49     9        0.000000        0.071282         1
        24        20        19        49     9      180.000000        0.076325         2
        24        20        19        49     9        0.000000        0.084134         3
        24        20        19        49     9      180.000000       -0.022120         4
        24        20        21        50     9        0.000000        0.071281         1
        24        20        21        50     9      180.000000        0.076325         2
        24        20        21        50     9        0.000000        0.084133         3
        24        20        21        50     9      180.000000       -0.022120         4
        24        20        21        51     9        0.000000        0.071281         1
        24        20        21        51     9      180.000000        0.076325         2
        24        20        21        51     9        0.000000        0.084133         3
        24        20        21        51     9      180.000000       -0.022120         4
        24        26        27        28     9        0.000000        0.323763         1
        24        26        27        28     9      180.000000       17.639032         2
        24        26        27        28     9        0.000000        0.671040         3
        24        26        27        28     9      180.000000       -0.965029         4
        24        26        27        29     9        0.000000       -0.042703         1
        24        26        27        29     9      180.000000       12.507043         2
        24        26        27        29     9        0.000000        0.025809         3
        24        26        27        29     9      180.000000       -0.298713         4
        24        26        32        31     9        0.000000       -0.159485         1
        24        26        32        31     9      180.000000       11.728617         2
        24        26        32        31     9        0.000000       -0.307065         3
        24        26        32        31     9      180.000000       -0.206715         4
        24        26        32        33     9        0.000000       -0.058327         1
        24        26        32        33     9      180.000000       16.156170         2
        24        26        32        33     9        0.000000        0.341551         3
        24        26        32        33     9      180.000000       -0.901251         4
        25        24        26        27     9        0.000000       -1.941661         1
        25        24        26        27     9      180.000000        1.094345         2
        25        24        26        27     9        0.000000        0.427875         3
        25        24        26        27     9      180.000000       -0.033087         4
        25        24        26        32     9        0.000000       -5.069445         1
        25        24        26        32     9      180.000000        1.308678         2
        25        24        26        32     9        0.000000        0.034082         3
        25        24        26        32     9      180.000000       -0.013060         4
        26        27        29        30     9        0.000000       -0.230779         1
        26        27        29        30     9      180.000000       17.563438         2
        26        27        29        30     9        0.000000       -1.369842         3
        26        27        29        30     9      180.000000       -0.339553         4
        26        27        29        55     9        0.000000       -0.133924         1
        26        27        29        55     9      180.000000       13.166471         2
        26        27        29        55     9        0.000000       -0.700048         3
        26        27        29        55     9      180.000000        0.076451         4
        26        32        31        30     9        0.000000       -0.224893         1
        26        32        31        30     9      180.000000       17.844402         2
        26        32        31        30     9        0.000000       -1.762319         3
        26        32        31        30     9      180.000000       -0.293758         4
        26        32        31        57     9        0.000000        0.075314         1
        26        32        31        57     9      180.000000       13.789728         2
        26        32        31        57     9        0.000000       -0.664391         3
        26        32        31        57     9      180.000000        0.152451         4
        26        32        33        34     9        0.000000       -0.928394         1
        26        32        33        34     9      180.000000        3.806786         2
        26        32        33        34     9        0.000000        0.016176         3
        26        32        33        34     9      180.000000       -0.052316         4
        26        32        33        37     9        0.000000       -0.928394         1
        26        32        33        37     9      180.000000        3.806786         2
        26        32        33        37     9        0.000000        0.016176         3
        26        32        33        37     9      180.000000       -0.052316         4
        27        26        32        31     9        0.000000       -0.141325         1
        27        26        32        31     9      180.000000       16.126330         2
        27        26        32        31     9        0.000000       -1.429498         3
        27        26        32        31     9      180.000000       -0.178700         4
        27        26        32        33     9        0.000000        0.375259         1
        27        26        32        33     9      180.000000       18.126685         2
        27        26        32        33     9        0.000000        0.186439         3
        27        26        32        33     9      180.000000       -0.681470         4
        27        29        30        31     9        0.000000       -0.152375         1
        27        29        30        31     9      180.000000       18.716157         2
        27        29        30        31     9        0.000000       -1.818926         3
        27        29        30        31     9      180.000000       -0.453549         4
        27        29        30        56     9        0.000000        0.180905         1
        27        29        30        56     9      180.000000       14.902493         2
        27        29        30        56     9        0.000000       -0.731347         3
        27        29        30        56     9      180.000000        0.027321         4
        28        27        26        32     9        0.000000        0.673215         1
        28        27        26        32     9      180.000000       23.238175         2
        28        27        26        32     9        0.000000        0.955630         3
        28        27        26        32     9      180.000000       -1.163490         4
        28        27        29        30     9        0.000000        0.552801         1
        28        27        29        30     9      180.000000       23.768154         2
        28        27        29        30     9        0.000000        0.607966         3
        28        27        29        30     9      180.000000       -0.689434         4
        28        27        29        55     9        0.000000        0.278729         1
        28        27        29        55     9      180.000000       16.994412         2
        28        27        29        55     9        0.000000        0.338076         3
        28        27        29        55     9      180.000000        0.093222         4
        29        27        26        32     9        0.000000        0.135115         1
        29        27        26        32     9      180.000000       15.814504         2
        29        27        26        32     9        0.000000       -0.812439         3
        29        27        26        32     9      180.000000       -0.422734         4
        29        30        31        32     9        0.000000       -0.192715         1
        29        30        31        32     9      180.000000       18.408477         2
        29        30        31        32     9        0.000000       -1.779917         3
        29        30        31        32     9      180.000000       -0.374514         4
        29        30        31        57     9        0.000000        0.142296         1
        29        30        31        57     9      180.000000       15.187281         2
        29        30        31        57     9        0.000000       -0.758856         3
        29        30        31        57     9      180.000000        0.063922         4
        30        31        32        33     9        0.000000        0.358636         1
        30        31        32        33     9      180.000000       18.702792         2
        30        31        32        33     9        0.000000        0.139137         3
        30        31        32        33     9      180.000000       -0.377297         4
        31        30        29        55     9        0.000000        0.246067         1
        31        30        29        55     9      180.000000       14.028888         2
        31        30        29        55     9        0.000000       -0.660950         3
        31        30        29        55     9      180.000000        0.116191         4
        31        32        33        34     9        0.000000        0.756737         1
        31        32        33        34     9      180.000000        3.189609         2
        31        32        33        34     9        0.000000       -0.349349         3
        31        32        33        34     9      180.000000        0.086097         4
        31        32        33        37     9        0.000000        0.756737         1
        31        32        33        37     9      180.000000        3.189609         2
        31        32        33        37     9        0.000000       -0.349349         3
        31        32        33        37     9      180.000000        0.086097         4
        32        31        30        56     9        0.000000        0.014671         1
        32        31        30        56     9      180.000000       14.765854         2
        32        31        30        56     9        0.000000       -0.786746         3
        32        31        30        56     9      180.000000        0.015738         4
        32        33        34        35     9        0.000000        0.775624         1
        32        33        34        35     9      180.000000       14.213466         2
        32        33        34        35     9        0.000000        0.460130         3
        32        33        34        35     9      180.000000       -0.178471         4
        32        33        37        36     9        0.000000        0.775624         1
        32        33        37        36     9      180.000000       14.213466         2
        32        33        37        36     9        0.000000        0.460130         3
        32        33        37        36     9      180.000000       -0.178471         4
        33        32        31        57     9        0.000000        0.319829         1
        33        32        31        57     9      180.000000       14.602053         2
        33        32        31        57     9        0.000000        0.000376         3
        33        32        31        57     9      180.000000        0.144391         4
        33        34        35        36     9        0.000000       -0.095084         1
        33        34        35        36     9      180.000000       41.109451         2
        33        34        35        36     9        0.000000       -5.890198         3
        33        34        35        36     9      180.000000       -0.007891         4
        33        34        35        58     9        0.000000        1.230247         1
        33        34        35        58     9      180.000000       26.477527         2
        33        34        35        58     9        0.000000       -0.131285         3
        33        34        35        58     9      180.000000       -0.123740         4
        33        37        36        35     9        0.000000       -0.095084         1
        33        37        36        35     9      180.000000       41.109451         2
        33        37        36        35     9        0.000000       -5.890198         3
        33        37        36        35     9      180.000000       -0.007891         4
        33        37        36        59     9        0.000000        1.230247         1
        33        37        36        59     9      180.000000       26.477527         2
        33        37        36        59     9        0.000000       -0.131285         3
        33        37        36        59     9      180.000000       -0.123740         4
        34        33        37        36     9        0.000000       -0.214505         1
        34        33        37        36     9      180.000000       33.461258         2
        34        33        37        36     9        0.000000       -5.627567         3
        34        33        37        36     9      180.000000        0.135267         4
        34        35        36        37     9        0.000000       -0.646396         1
        34        35        36        37     9      180.000000       33.879564         2
        34        35        36        37     9        0.000000       -7.997882         3
        34        35        36        37     9      180.000000       -0.068922         4
        34        35        36        59     9        0.000000        0.399471         1
        34        35        36        59     9      180.000000       15.777787         2
        34        35        36        59     9        0.000000       -0.622625         3
        34        35        36        59     9      180.000000       -0.473181         4
        35        34        33        37     9        0.000000       -0.214505         1
        35        34        33        37     9      180.000000       33.461258         2
        35        34        33        37     9        0.000000       -5.627567         3
        35        34        33        37     9      180.000000        0.135267         4
        37        36        35        58     9        0.000000        0.399471         1
        37        36        35        58     9      180.000000       15.777787         2
        37        36        35        58     9        0.000000       -0.622625         3
        37        36        35        58     9      180.000000       -0.473181         4
        45        17        18        47     9        0.000000       -0.140740         1
        45        17        18        47     9      180.000000       -0.009946         2
        45        17        18        47     9        0.000000        0.295617         3
        45        17        18        47     9      180.000000       -0.018107         4
        46        17        18        47     9        0.000000       -0.140741         1
        46        17        18        47     9      180.000000       -0.009948         2
        46        17        18        47     9        0.000000        0.295617         3
        46        17        18        47     9      180.000000       -0.018107         4
        47        18        19        48     9        0.000000       -0.086595         1
        47        18        19        48     9      180.000000        0.026399         2
        47        18        19        48     9        0.000000        0.269152         3
        47        18        19        48     9      180.000000       -0.020189         4
        47        18        19        49     9        0.000000       -0.086595         1
        47        18        19        49     9      180.000000        0.026399         2
        47        18        19        49     9        0.000000        0.269152         3
        47        18        19        49     9      180.000000       -0.020189         4
        47        18        22        52     9        0.000000        0.223574         1
        47        18        22        52     9      180.000000       -0.077956         2
        47        18        22        52     9        0.000000        0.353694         3
        47        18        22        52     9      180.000000       -0.057173         4
        50        21        22        52     9        0.000000       -0.086595         1
        50        21        22        52     9      180.000000        0.026398         2
        50        21        22        52     9        0.000000        0.269152         3
        50        21        22        52     9      180.000000       -0.020189         4
        51        21        22        52     9        0.000000       -0.086595         1
        51        21        22        52     9      180.000000        0.026398         2
        51        21        22        52     9        0.000000        0.269152         3
        51        21        22        52     9      180.000000       -0.020189         4
        52        22        23        53     9        0.000000       -0.140741         1
        52        22        23        53     9      180.000000       -0.009947         2
        52        22        23        53     9        0.000000        0.295617         3
        52        22        23        53     9      180.000000       -0.018107         4
        52        22        23        54     9        0.000000       -0.140741         1
        52        22        23        54     9      180.000000       -0.009947         2
        52        22        23        54     9        0.000000        0.295617         3
        52        22        23        54     9      180.000000       -0.018107         4
        55        29        30        56     9        0.000000       -0.176698         1
        55        29        30        56     9      180.000000       10.882745         2
        55        29        30        56     9        0.000000       -0.527182         3
        55        29        30        56     9      180.000000        0.131688         4
        56        30        31        57     9        0.000000       -0.152786         1
        56        30        31        57     9      180.000000       12.297012         2
        56        30        31        57     9        0.000000       -0.885313         3
        56        30        31        57     9      180.000000        0.289531         4
        58        35        36        59     9        0.000000       -0.304766         1
        58        35        36        59     9      180.000000        8.321253         2
        58        35        36        59     9        0.000000       -0.141498         3
        58        35        36        59     9      180.000000        0.273252         4

[ dihedrals ] ; impropers
;       ai        aj        ak        al funct           phase               k        pn
         7         6         8        44     4      180.000000       15.318841         2
         7         8        44         6     4      180.000000       15.318841         2
         7        44         6         8     4      180.000000       15.318841         2
         9         8        10        16     4      180.000000       27.893333         2
         9        10        16         8     4      180.000000       27.893333         2
         9        16         8        10     4      180.000000       27.893333         2
        11         6        10        12     4      180.000000        5.724277         2
        11        10        12         6     4      180.000000        5.724277         2
        11        12         6        10     4      180.000000        5.724277         2
        29        27        30        55     4      180.000000        0.307014         2
        29        30        55        27     4      180.000000        0.307014         2
        29        55        27        30     4      180.000000        0.307014         2
        30        29        31        56     4      180.000000        2.050246         2
        30        31        56        29     4      180.000000        2.050246         2
        30        56        29        31     4      180.000000        2.050246         2
        31        30        32        57     4      180.000000        0.161180         2
        31        32        57        30     4      180.000000        0.161180         2
        31        57        30        32     4      180.000000        0.161180         2

[ pairs ]
;       ai        aj funct
         1         5     1
         1         6     1
         1        41     1
         1        42     1
         1        43     1
         2         7     1
         2        11     1
         3         5     1
         3         6     1
         3        38     1
         3        39     1
         3        40     1
         4         8     1
         4        10     1
         4        12     1
         4        38     1
         4        39     1
         4        40     1
         4        41     1
         4        42     1
         4        43     1
         4        44     1
         5         7     1
         5        11     1
         6         9     1
         6        13     1
         6        14     1
         6        15     1
         7        10     1
         7        12     1
         7        16     1
         8        11     1
         8        17     1
         8        23     1
         9        12     1
         9        18     1
         9        22     1
         9        44     1
         9        45     1
         9        46     1
         9        53     1
         9        54     1
        10        13     1
        10        14     1
        10        15     1
        10        17     1
        10        23     1
        11        16     1
        11        44     1
        16        19     1
        16        21     1
        16        47     1
        16        52     1
        17        20     1
        17        21     1
        17        48     1
        17        49     1
        17        52     1
        17        53     1
        17        54     1
        18        24     1
        18        50     1
        18        51     1
        18        53     1
        18        54     1
        19        23     1
        19        25     1
        19        26     1
        19        45     1
        19        46     1
        19        50     1
        19        51     1
        19        52     1
        20        23     1
        20        27     1
        20        32     1
        20        47     1
        20        52     1
        21        25     1
        21        26     1
        21        47     1
        21        48     1
        21        49     1
        21        53     1
        21        54     1
        22        24     1
        22        45     1
        22        46     1
        22        48     1
        22        49     1
        23        45     1
        23        46     1
        23        47     1
        23        50     1
        23        51     1
        24        28     1
        24        29     1
        24        31     1
        24        33     1
        24        48     1
        24        49     1
        24        50     1
        24        51     1
        25        27     1
        25        32     1
        26        30     1
        26        34     1
        26        37     1
        26        55     1
        26        57     1
        27        31     1
        27        33     1
        27        56     1
        28        30     1
        28        32     1
        28        55     1
        29        32     1
        29        57     1
        30        33     1
        31        34     1
        31        37     1
        31        55     1
        32        35     1
        32        36     1
        32        56     1
        33        57     1
        33        58     1
        33        59     1
        34        59     1
        37        58     1
        45        47     1
        46        47     1
        47        48     1
        47        49     1
        47        52     1
        50        52     1
        51        52     1
        52        53     1
        52        54     1
        55        56     1
        56        57     1
        58        59     1
