; ITP file created by ByteFF-ML, 2025-12-06 04:46:03.338412

[ atomtypes ]
;name           bonded.type        at.num        mass        charge   ptype           sigma         epsilon
 c0bf                                   6      0.0000       0.00000       A     3.39729e-01     4.51732e-01
 c1bf                                   6      0.0000       0.00000       A     3.31581e-01     4.13099e-01
 o2bf                                   8      0.0000       0.00000       A     3.04726e-01     6.12551e-01
 n3bf                                   7      0.0000       0.00000       A     3.27213e-01     4.88991e-01
 c4bf                                   6      0.0000       0.00000       A     3.31392e-01     4.12193e-01
 c5bf                                   6      0.0000       0.00000       A     3.31516e-01     4.13103e-01
 c6bf                                   6      0.0000       0.00000       A     3.31445e-01     4.10490e-01
 c7bf                                   6      0.0000       0.00000       A     3.31471e-01     4.14242e-01
 c8bf                                   6      0.0000       0.00000       A     3.31438e-01     4.13155e-01
 c9bf                                   6      0.0000       0.00000       A     3.31726e-01     4.14459e-01
 c10bf                                  6      0.0000       0.00000       A     3.31382e-01     4.09510e-01
 o11bf                                  8      0.0000       0.00000       A     3.04770e-01     6.12733e-01
 n12bf                                  7      0.0000       0.00000       A     3.18141e-01     6.81151e-01
 c13bf                                  6      0.0000       0.00000       A     3.39727e-01     4.50797e-01
 c14bf                                  6      0.0000       0.00000       A     3.39712e-01     4.49806e-01
 c15bf                                  6      0.0000       0.00000       A     3.39585e-01     4.49212e-01
 n16bf                                  7      0.0000       0.00000       A     3.19428e-01     8.94136e-01
 c17bf                                  6      0.0000       0.00000       A     3.39585e-01     4.49212e-01
 c18bf                                  6      0.0000       0.00000       A     3.39712e-01     4.49806e-01
 c19bf                                  6      0.0000       0.00000       A     3.39727e-01     4.50797e-01
 c20bf                                  6      0.0000       0.00000       A     3.31548e-01     4.12659e-01
 n21bf                                  7      0.0000       0.00000       A     3.38255e-01     3.94373e-01
 c22bf                                  6      0.0000       0.00000       A     3.31356e-01     4.11183e-01
 c23bf                                  6      0.0000       0.00000       A     3.39813e-01     4.50976e-01
 c24bf                                  6      0.0000       0.00000       A     3.31508e-01     4.12834e-01
 c25bf                                  6      0.0000       0.00000       A     3.31356e-01     4.11183e-01
 c26bf                                  6      0.0000       0.00000       A     3.39813e-01     4.50976e-01
 n27bf                                  7      0.0000       0.00000       A     3.38255e-01     3.94373e-01
 n28bf                                  7      0.0000       0.00000       A     3.20800e-01     8.49240e-01
 n29bf                                  7      0.0000       0.00000       A     3.38251e-01     3.94826e-01
 c30bf                                  6      0.0000       0.00000       A     3.31301e-01     4.12308e-01
 c31bf                                  6      0.0000       0.00000       A     3.31301e-01     4.12308e-01
 n32bf                                  7      0.0000       0.00000       A     3.38251e-01     3.94826e-01
 h33bf                                  1      0.0000       0.00000       A     2.60039e-01     8.76944e-02
 h34bf                                  1      0.0000       0.00000       A     2.60039e-01     8.76944e-02
 h35bf                                  1      0.0000       0.00000       A     2.60039e-01     8.76944e-02
 h36bf                                  1      0.0000       0.00000       A     1.10395e-01     4.14659e-02
 h37bf                                  1      0.0000       0.00000       A     2.62569e-01     6.74946e-02
 h38bf                                  1      0.0000       0.00000       A     2.62482e-01     6.82240e-02
 h39bf                                  1      0.0000       0.00000       A     2.62481e-01     6.76414e-02
 h40bf                                  1      0.0000       0.00000       A     2.42171e-01     8.72571e-02
 h41bf                                  1      0.0000       0.00000       A     2.42171e-01     8.72571e-02
 h42bf                                  1      0.0000       0.00000       A     2.60149e-01     8.67575e-02
 h43bf                                  1      0.0000       0.00000       A     2.42127e-01     8.72842e-02
 h44bf                                  1      0.0000       0.00000       A     2.42127e-01     8.72842e-02
 h45bf                                  1      0.0000       0.00000       A     2.42127e-01     8.72842e-02
 h46bf                                  1      0.0000       0.00000       A     2.42127e-01     8.72842e-02
 h47bf                                  1      0.0000       0.00000       A     2.60149e-01     8.67575e-02
 h48bf                                  1      0.0000       0.00000       A     2.42171e-01     8.72571e-02
 h49bf                                  1      0.0000       0.00000       A     2.42171e-01     8.72571e-02
 h50bf                                  1      0.0000       0.00000       A     2.59989e-01     8.71151e-02
 h51bf                                  1      0.0000       0.00000       A     2.59989e-01     8.71151e-02
 h52bf                                  1      0.0000       0.00000       A     2.59989e-01     8.71151e-02
 h53bf                                  1      0.0000       0.00000       A     2.62556e-01     6.77132e-02
 h54bf                                  1      0.0000       0.00000       A     2.59989e-01     8.71151e-02
 h55bf                                  1      0.0000       0.00000       A     2.59989e-01     8.71151e-02
 h56bf                                  1      0.0000       0.00000       A     2.59989e-01     8.71151e-02
 h57bf                                  1      0.0000       0.00000       A     2.53896e-01     6.74946e-02
 h58bf                                  1      0.0000       0.00000       A     2.53896e-01     6.74946e-02

[ moleculetype ]
;name             nrexcl
 set_2_17              3

[ atoms ]
;       nr            type      resi   res      atom      cgnr      charge          mass ; qtot
         1            c0bf         1   UNL        c0         1    -0.18011       12.0110 ; qtot   -0.180
         2            c1bf         1   UNL        c1         2     0.60349       12.0110 ; qtot    0.423
         3            o2bf         1   UNL        o2         3    -0.58388       15.9990 ; qtot   -0.160
         4            n3bf         1   UNL        n3         4    -0.15720       14.0070 ; qtot   -0.318
         5            c4bf         1   UNL        c4         5    -0.01332       12.0110 ; qtot   -0.331
         6            c5bf         1   UNL        c5         6    -0.14653       12.0110 ; qtot   -0.478
         7            c6bf         1   UNL        c6         7    -0.06735       12.0110 ; qtot   -0.545
         8            c7bf         1   UNL        c7         8     0.04056       12.0110 ; qtot   -0.504
         9            c8bf         1   UNL        c8         9    -0.10715       12.0110 ; qtot   -0.611
        10            c9bf         1   UNL        c9        10    -0.10340       12.0110 ; qtot   -0.715
        11           c10bf         1   UNL       c10        11     0.62808       12.0110 ; qtot   -0.087
        12           o11bf         1   UNL       o11        12    -0.59100       15.9990 ; qtot   -0.678
        13           n12bf         1   UNL       n12        13    -0.41048       14.0070 ; qtot   -1.088
        14           c13bf         1   UNL       c13        14     0.10928       12.0110 ; qtot   -0.979
        15           c14bf         1   UNL       c14        15    -0.10223       12.0110 ; qtot   -1.081
        16           c15bf         1   UNL       c15        16     0.23669       12.0110 ; qtot   -0.845
        17           n16bf         1   UNL       n16        17    -0.78178       14.0070 ; qtot   -1.626
        18           c17bf         1   UNL       c17        18     0.23669       12.0110 ; qtot   -1.390
        19           c18bf         1   UNL       c18        19    -0.10223       12.0110 ; qtot   -1.492
        20           c19bf         1   UNL       c19        20     0.10928       12.0110 ; qtot   -1.383
        21           c20bf         1   UNL       c20        21     0.38591       12.0110 ; qtot   -0.997
        22           n21bf         1   UNL       n21        22    -0.25087       14.0070 ; qtot   -1.248
        23           c22bf         1   UNL       c22        23     0.16283       12.0110 ; qtot   -1.085
        24           c23bf         1   UNL       c23        24    -0.15050       12.0110 ; qtot   -1.235
        25           c24bf         1   UNL       c24        25    -0.27614       12.0110 ; qtot   -1.511
        26           c25bf         1   UNL       c25        26     0.16283       12.0110 ; qtot   -1.349
        27           c26bf         1   UNL       c26        27    -0.15050       12.0110 ; qtot   -1.499
        28           n27bf         1   UNL       n27        28    -0.25087       14.0070 ; qtot   -1.750
        29           n28bf         1   UNL       n28        29     0.31384       14.0070 ; qtot   -1.436
        30           n29bf         1   UNL       n29        30    -0.47997       14.0070 ; qtot   -1.916
        31           c30bf         1   UNL       c30        31     0.20629       12.0110 ; qtot   -1.710
        32           c31bf         1   UNL       c31        32     0.20629       12.0110 ; qtot   -1.503
        33           n32bf         1   UNL       n32        33    -0.47997       14.0070 ; qtot   -1.983
        34           h33bf         1   UNL       h33        34     0.06575        1.0080 ; qtot   -1.918
        35           h34bf         1   UNL       h34        35     0.06575        1.0080 ; qtot   -1.852
        36           h35bf         1   UNL       h35        36     0.06575        1.0080 ; qtot   -1.786
        37           h36bf         1   UNL       h36        37     0.15248        1.0080 ; qtot   -1.634
        38           h37bf         1   UNL       h37        38     0.14103        1.0080 ; qtot   -1.493
        39           h38bf         1   UNL       h38        39     0.14117        1.0080 ; qtot   -1.351
        40           h39bf         1   UNL       h39        40     0.14822        1.0080 ; qtot   -1.203
        41           h40bf         1   UNL       h40        41     0.06015        1.0080 ; qtot   -1.143
        42           h41bf         1   UNL       h41        42     0.06015        1.0080 ; qtot   -1.083
        43           h42bf         1   UNL       h42        43     0.07208        1.0080 ; qtot   -1.011
        44           h43bf         1   UNL       h43        44     0.05798        1.0080 ; qtot   -0.953
        45           h44bf         1   UNL       h44        45     0.05798        1.0080 ; qtot   -0.895
        46           h45bf         1   UNL       h45        46     0.05798        1.0080 ; qtot   -0.837
        47           h46bf         1   UNL       h46        47     0.05798        1.0080 ; qtot   -0.779
        48           h47bf         1   UNL       h47        48     0.07208        1.0080 ; qtot   -0.707
        49           h48bf         1   UNL       h48        49     0.06015        1.0080 ; qtot   -0.647
        50           h49bf         1   UNL       h49        50     0.06015        1.0080 ; qtot   -0.587
        51           h50bf         1   UNL       h50        51     0.05717        1.0080 ; qtot   -0.529
        52           h51bf         1   UNL       h51        52     0.05717        1.0080 ; qtot   -0.472
        53           h52bf         1   UNL       h52        53     0.05717        1.0080 ; qtot   -0.415
        54           h53bf         1   UNL       h53        54     0.13105        1.0080 ; qtot   -0.284
        55           h54bf         1   UNL       h54        55     0.05717        1.0080 ; qtot   -0.227
        56           h55bf         1   UNL       h55        56     0.05717        1.0080 ; qtot   -0.170
        57           h56bf         1   UNL       h56        57     0.05717        1.0080 ; qtot   -0.113
        58           h57bf         1   UNL       h57        58     0.05626        1.0080 ; qtot   -0.056
        59           h58bf         1   UNL       h58        59     0.05626        1.0080 ; qtot    0.000

[ bonds ]
;       ai        aj funct               r               k
         1         2     1        0.152108   177930.499072
         1        34     1        0.109282   307279.865234
         1        35     1        0.109282   307279.865234
         1        36     1        0.109282   307279.865234
         2         3     1        0.122744   617624.490039
         2         4     1        0.137902   259276.483887
         4         5     1        0.141155   245321.500635
         4        37     1        0.101091   420152.816113
         5         6     1        0.140485   284722.400244
         5        10     1        0.140214   286219.360059
         6         7     1        0.139047   332168.612939
         6        38     1        0.108352   326789.322998
         7         8     1        0.139879   294110.658838
         7        39     1        0.108409   326091.393799
         8         9     1        0.140340   276535.177441
         8        29     1        0.142508   228900.168896
         9        10     1        0.139823   303607.782129
         9        11     1        0.151170   179376.474048
        10        40     1        0.108370   325910.361230
        11        12     1        0.123432   589772.441699
        11        13     1        0.136018   308063.011768
        13        14     1        0.147342   175956.876343
        13        20     1        0.147342   175956.850806
        14        15     1        0.153427   175080.787500
        14        41     1        0.109385   298254.744336
        14        42     1        0.109385   298254.744336
        15        16     1        0.153334   175036.020947
        15        19     1        0.154277   149842.117554
        15        43     1        0.109325   303915.912891
        16        17     1        0.146885   181060.582568
        16        44     1        0.109481   294444.837451
        16        45     1        0.109481   294444.837451
        17        18     1        0.146885   181060.582568
        17        21     1        0.136150   322423.090186
        18        19     1        0.153334   175036.020947
        18        46     1        0.109481   294444.811914
        18        47     1        0.109481   294444.811914
        19        20     1        0.153427   175080.787500
        19        48     1        0.109325   303915.912891
        20        49     1        0.109385   298254.744336
        20        50     1        0.109385   298254.744336
        21        22     1        0.135061   255154.819971
        21        28     1        0.135061   255154.794434
        22        23     1        0.133745   333057.585254
        23        24     1        0.150694   207469.771460
        23        25     1        0.140051   285005.530176
        24        51     1        0.109354   305309.983691
        24        52     1        0.109354   305309.983691
        24        53     1        0.109354   305309.983691
        25        26     1        0.140051   285005.530176
        25        54     1        0.108514   321723.577686
        26        27     1        0.150694   207469.733154
        26        28     1        0.133745   333057.585254
        27        55     1        0.109354   305309.958154
        27        56     1        0.109354   305309.958154
        27        57     1        0.109354   305309.958154
        29        30     1        0.134008   245778.844727
        29        33     1        0.134008   245778.844727
        30        31     1        0.133423   350873.498535
        31        32     1        0.141148   279463.543311
        31        58     1        0.108128   339085.415625
        32        33     1        0.133423   350873.549609
        32        59     1        0.108128   339085.415625

[ angles ]
;       ai        aj        ak funct           theta             cth
         1         2         3     1      121.563477      539.121003
         1         2         4     1      114.571983      473.123376
         2         1        34     1      110.342163      514.839010
         2         1        35     1      110.342163      514.839010
         2         1        36     1      110.342163      514.839010
         2         4         5     1      129.229645      488.802331
         2         4        37     1      116.067871      454.693340
         3         2         4     1      123.936142      627.043291
         4         5         6     1      120.726234      632.235049
         4         5        10     1      119.390427      534.333976
         5         4        37     1      114.899025      454.534435
         5         6         7     1      119.519470      750.162164
         5         6        38     1      120.011780      449.630768
         5        10         9     1      120.899673      712.432554
         5        10        40     1      119.811378      421.078109
         6         5        10     1      119.135864      595.014457
         6         7         8     1      120.804184      650.339647
         6         7        39     1      120.256149      410.076754
         7         6        38     1      120.209167      400.115749
         7         8         9     1      120.177589      633.478579
         7         8        29     1      118.155930      540.935861
         8         7        39     1      118.926041      421.480861
         8         9        10     1      118.735596      682.566968
         8         9        11     1      123.677231      543.645412
         8        29        30     1      122.156029      520.929802
         8        29        33     1      122.156029      520.929802
         9         8        29     1      120.986893      464.919739
         9        10        40     1      118.580933      370.322178
         9        11        12     1      120.022987      509.105578
         9        11        13     1      117.004662      444.623451
        10         9        11     1      117.443680      527.491722
        11        13        14     1      123.327393      463.727539
        11        13        20     1      123.327393      463.727603
        12        11        13     1      122.646706      633.760317
        13        14        15     1      103.395767      529.540756
        13        14        41     1      110.442825      438.278692
        13        14        42     1      110.442825      438.278692
        13        20        19     1      103.395767      529.540756
        13        20        49     1      110.442825      438.278692
        13        20        50     1      110.442825      438.278692
        14        13        20     1      111.329147      405.322829
        14        15        16     1      115.967918      490.766039
        14        15        19     1      103.849319      536.391532
        14        15        43     1      110.495773      465.529246
        15        14        41     1      112.216675      453.127053
        15        14        42     1      112.216675      453.127053
        15        16        17     1      102.892921      518.507927
        15        16        44     1      112.134521      456.886371
        15        16        45     1      112.134521      456.886371
        15        19        18     1      103.531944      553.400524
        15        19        20     1      103.849319      536.391532
        15        19        48     1      111.068626      475.836438
        16        15        19     1      103.531944      553.400524
        16        15        43     1      110.411415      471.837167
        16        17        18     1      113.053551      339.130578
        16        17        21     1      122.793289      492.092788
        17        16        44     1      110.665466      411.334967
        17        16        45     1      110.665466      411.334967
        17        18        19     1      102.892921      518.507959
        17        18        46     1      110.665466      411.334967
        17        18        47     1      110.665466      411.334967
        17        21        22     1      116.861961      541.920827
        17        21        28     1      116.861961      541.920827
        18        17        21     1      122.793289      492.092788
        18        19        20     1      115.967918      490.766103
        18        19        48     1      110.411415      471.837167
        19        15        43     1      111.068642      475.836438
        19        18        46     1      112.134521      456.886371
        19        18        47     1      112.134521      456.886371
        19        20        49     1      112.216675      453.127053
        19        20        50     1      112.216675      453.127053
        20        19        48     1      110.495773      465.529246
        21        22        23     1      116.614647      960.079055
        21        28        26     1      116.614647      960.079055
        22        21        28     1      126.191666      604.351846
        22        23        24     1      116.354942      475.838162
        22        23        25     1      121.655540      736.540223
        23        24        51     1      110.547607      500.572608
        23        24        52     1      110.547607      500.572608
        23        24        53     1      110.547607      500.572608
        23        25        26     1      117.478683      761.775676
        23        25        54     1      121.294067      418.995525
        24        23        25     1      122.040428      489.957215
        25        26        27     1      122.040443      489.957215
        25        26        28     1      121.655540      736.540223
        26        25        54     1      121.294067      418.995525
        26        27        55     1      110.547607      500.572608
        26        27        56     1      110.547607      500.572608
        26        27        57     1      110.547607      500.572608
        27        26        28     1      116.354942      475.838226
        29        30        31     1      103.763977      481.378757
        29        33        32     1      103.763977      481.378693
        30        29        33     1      115.024330      214.892174
        30        31        32     1      108.709312      295.765725
        30        31        58     1      120.742874      391.073952
        31        32        33     1      108.709312      295.765693
        31        32        59     1      130.286743      343.611766
        32        31        58     1      130.286743      343.611766
        33        32        59     1      120.742874      391.074016
        34         1        35     1      108.617905      357.301955
        34         1        36     1      108.617905      357.301955
        35         1        36     1      108.617905      357.301955
        41        14        42     1      107.816490      348.007916
        44        16        45     1      107.788414      347.454303
        46        18        47     1      107.788414      347.454335
        49        20        50     1      107.816490      348.007916
        51        24        52     1      108.389893      359.969498
        51        24        53     1      108.389893      359.969498
        52        24        53     1      108.389893      359.969498
        55        27        56     1      108.389893      359.969466
        55        27        57     1      108.389893      359.969466
        56        27        57     1      108.389893      359.969466

[ dihedrals ] ; propers for gromacs 4.5 or higher, use funct 9
;       ai        aj        ak        al funct           phase               k        pn
         1         2         4         5     9        0.000000        3.708652         1
         1         2         4         5     9      180.000000        7.042858         2
         1         2         4         5     9        0.000000        0.518086         3
         1         2         4         5     9      180.000000       -0.327700         4
         1         2         4        37     9        0.000000        1.364263         1
         1         2         4        37     9      180.000000        8.446358         2
         1         2         4        37     9        0.000000       -0.471439         3
         1         2         4        37     9      180.000000        0.662913         4
         2         4         5         6     9        0.000000        0.128845         1
         2         4         5         6     9      180.000000        2.338664         2
         2         4         5         6     9        0.000000        0.007399         3
         2         4         5         6     9      180.000000        0.227723         4
         2         4         5        10     9        0.000000        0.093087         1
         2         4         5        10     9      180.000000        2.353461         2
         2         4         5        10     9        0.000000       -0.098363         3
         2         4         5        10     9      180.000000        0.245904         4
         3         2         1        34     9        0.000000        0.034329         1
         3         2         1        34     9      180.000000        0.015613         2
         3         2         1        34     9        0.000000        0.119917         3
         3         2         1        34     9      180.000000       -0.007450         4
         3         2         1        35     9        0.000000        0.034329         1
         3         2         1        35     9      180.000000        0.015613         2
         3         2         1        35     9        0.000000        0.119917         3
         3         2         1        35     9      180.000000       -0.007450         4
         3         2         1        36     9        0.000000        0.034329         1
         3         2         1        36     9      180.000000        0.015613         2
         3         2         1        36     9        0.000000        0.119917         3
         3         2         1        36     9      180.000000       -0.007450         4
         3         2         4         5     9        0.000000       -1.199527         1
         3         2         4         5     9      180.000000        9.202095         2
         3         2         4         5     9        0.000000       -0.110162         3
         3         2         4         5     9      180.000000       -0.834391         4
         3         2         4        37     9        0.000000       -0.321316         1
         3         2         4        37     9      180.000000       10.946443         2
         3         2         4        37     9        0.000000        0.186458         3
         3         2         4        37     9      180.000000        0.805478         4
         4         2         1        34     9        0.000000       -0.050155         1
         4         2         1        34     9      180.000000        0.007366         2
         4         2         1        34     9        0.000000       -0.094597         3
         4         2         1        34     9      180.000000        0.083376         4
         4         2         1        35     9        0.000000       -0.050155         1
         4         2         1        35     9      180.000000        0.007366         2
         4         2         1        35     9        0.000000       -0.094597         3
         4         2         1        35     9      180.000000        0.083376         4
         4         2         1        36     9        0.000000       -0.050155         1
         4         2         1        36     9      180.000000        0.007366         2
         4         2         1        36     9        0.000000       -0.094597         3
         4         2         1        36     9      180.000000        0.083376         4
         4         5         6         7     9        0.000000        0.316984         1
         4         5         6         7     9      180.000000       17.777479         2
         4         5         6         7     9        0.000000        0.017664         3
         4         5         6         7     9      180.000000       -0.317576         4
         4         5         6        38     9        0.000000       -0.056779         1
         4         5         6        38     9      180.000000       13.590640         2
         4         5         6        38     9        0.000000       -0.135543         3
         4         5         6        38     9      180.000000        0.228714         4
         4         5        10         9     9        0.000000        0.129823         1
         4         5        10         9     9      180.000000       16.334868         2
         4         5        10         9     9        0.000000        0.061659         3
         4         5        10         9     9      180.000000       -0.439736         4
         4         5        10        40     9        0.000000       -0.104632         1
         4         5        10        40     9      180.000000       13.640479         2
         4         5        10        40     9        0.000000       -0.250045         3
         4         5        10        40     9      180.000000        0.195226         4
         5         6         7         8     9        0.000000       -0.171717         1
         5         6         7         8     9      180.000000       18.525996         2
         5         6         7         8     9        0.000000       -1.888016         3
         5         6         7         8     9      180.000000       -0.424314         4
         5         6         7        39     9        0.000000       -0.000835         1
         5         6         7        39     9      180.000000       15.177955         2
         5         6         7        39     9        0.000000       -0.564016         3
         5         6         7        39     9      180.000000       -0.027620         4
         5        10         9         8     9        0.000000       -0.119952         1
         5        10         9         8     9      180.000000       18.037313         2
         5        10         9         8     9        0.000000       -1.658384         3
         5        10         9         8     9      180.000000       -0.468107         4
         5        10         9        11     9        0.000000        0.045644         1
         5        10         9        11     9      180.000000       15.744972         2
         5        10         9        11     9        0.000000       -0.221240         3
         5        10         9        11     9      180.000000       -0.542070         4
         6         5         4        37     9        0.000000       -0.085994         1
         6         5         4        37     9      180.000000        2.861301         2
         6         5         4        37     9        0.000000        0.060898         3
         6         5         4        37     9      180.000000        0.020408         4
         6         5        10         9     9        0.000000        0.073289         1
         6         5        10         9     9      180.000000       15.604333         2
         6         5        10         9     9        0.000000       -0.826232         3
         6         5        10         9     9      180.000000       -0.192963         4
         6         5        10        40     9        0.000000        0.253237         1
         6         5        10        40     9      180.000000       12.388110         2
         6         5        10        40     9        0.000000       -0.463685         3
         6         5        10        40     9      180.000000        0.121167         4
         6         7         8         9     9        0.000000       -0.115252         1
         6         7         8         9     9      180.000000       16.974704         2
         6         7         8         9     9        0.000000       -1.603982         3
         6         7         8         9     9      180.000000       -0.188619         4
         6         7         8        29     9        0.000000        0.283112         1
         6         7         8        29     9      180.000000       17.992055         2
         6         7         8        29     9        0.000000        0.024044         3
         6         7         8        29     9      180.000000       -0.358075         4
         7         6         5        10     9        0.000000       -0.032429         1
         7         6         5        10     9      180.000000       16.679486         2
         7         6         5        10     9        0.000000       -1.363560         3
         7         6         5        10     9      180.000000       -0.193313         4
         7         8         9        10     9        0.000000       -0.020295         1
         7         8         9        10     9      180.000000       15.729811         2
         7         8         9        10     9        0.000000       -1.239677         3
         7         8         9        10     9      180.000000       -0.215621         4
         7         8         9        11     9        0.000000       -0.263274         1
         7         8         9        11     9      180.000000       11.099607         2
         7         8         9        11     9        0.000000       -0.247486         3
         7         8         9        11     9      180.000000       -0.222192         4
         7         8        29        30     9        0.000000        0.742313         1
         7         8        29        30     9      180.000000        2.875983         2
         7         8        29        30     9        0.000000       -0.346621         3
         7         8        29        30     9      180.000000        0.016839         4
         7         8        29        33     9        0.000000        0.742312         1
         7         8        29        33     9      180.000000        2.875983         2
         7         8        29        33     9        0.000000       -0.346620         3
         7         8        29        33     9      180.000000        0.016839         4
         8         7         6        38     9        0.000000       -0.086853         1
         8         7         6        38     9      180.000000       15.477617         2
         8         7         6        38     9        0.000000       -0.628038         3
         8         7         6        38     9      180.000000       -0.060128         4
         8         9        10        40     9        0.000000        0.341013         1
         8         9        10        40     9      180.000000       13.803540         2
         8         9        10        40     9        0.000000       -0.235998         3
         8         9        10        40     9      180.000000        0.005013         4
         8         9        11        12     9        0.000000       -7.147120         1
         8         9        11        12     9      180.000000        1.594445         2
         8         9        11        12     9        0.000000        0.050453         3
         8         9        11        12     9      180.000000       -0.054760         4
         8         9        11        13     9        0.000000       -0.665942         1
         8         9        11        13     9      180.000000        3.900473         2
         8         9        11        13     9        0.000000       -0.695183         3
         8         9        11        13     9      180.000000        0.154083         4
         8        29        30        31     9        0.000000        0.582574         1
         8        29        30        31     9      180.000000       15.162837         2
         8        29        30        31     9        0.000000        0.319337         3
         8        29        30        31     9      180.000000       -0.230572         4
         8        29        33        32     9        0.000000        0.582574         1
         8        29        33        32     9      180.000000       15.162836         2
         8        29        33        32     9        0.000000        0.319337         3
         8        29        33        32     9      180.000000       -0.230572         4
         9         8         7        39     9        0.000000        0.142259         1
         9         8         7        39     9      180.000000       13.705602         2
         9         8         7        39     9        0.000000       -0.545019         3
         9         8         7        39     9      180.000000        0.143529         4
         9         8        29        30     9        0.000000       -0.774450         1
         9         8        29        30     9      180.000000        3.411696         2
         9         8        29        30     9        0.000000        0.176543         3
         9         8        29        30     9      180.000000       -0.115803         4
         9         8        29        33     9        0.000000       -0.774450         1
         9         8        29        33     9      180.000000        3.411696         2
         9         8        29        33     9        0.000000        0.176544         3
         9         8        29        33     9      180.000000       -0.115803         4
         9        11        13        14     9        0.000000        5.600712         1
         9        11        13        14     9      180.000000       11.661174         2
         9        11        13        14     9        0.000000        1.582279         3
         9        11        13        14     9      180.000000       -0.445785         4
         9        11        13        20     9        0.000000        5.600712         1
         9        11        13        20     9      180.000000       11.661172         2
         9        11        13        20     9        0.000000        1.582278         3
         9        11        13        20     9      180.000000       -0.445786         4
        10         5         4        37     9        0.000000        0.163529         1
        10         5         4        37     9      180.000000        2.816307         2
        10         5         4        37     9        0.000000        0.082932         3
        10         5         4        37     9      180.000000       -0.020495         4
        10         5         6        38     9        0.000000        0.188530         1
        10         5         6        38     9      180.000000       13.039889         2
        10         5         6        38     9        0.000000       -0.564044         3
        10         5         6        38     9      180.000000        0.146278         4
        10         9         8        29     9        0.000000        0.175918         1
        10         9         8        29     9      180.000000       17.127969         2
        10         9         8        29     9        0.000000       -0.106012         3
        10         9         8        29     9      180.000000       -0.508879         4
        10         9        11        12     9        0.000000        1.028098         1
        10         9        11        12     9      180.000000        1.196736         2
        10         9        11        12     9        0.000000        0.398043         3
        10         9        11        12     9      180.000000        0.047573         4
        10         9        11        13     9        0.000000        1.631400         1
        10         9        11        13     9      180.000000        3.545540         2
        10         9        11        13     9        0.000000        0.054913         3
        10         9        11        13     9      180.000000        0.192128         4
        11         9         8        29     9        0.000000       -0.135391         1
        11         9         8        29     9      180.000000       15.151508         2
        11         9         8        29     9        0.000000        0.422373         3
        11         9         8        29     9      180.000000       -0.850293         4
        11         9        10        40     9        0.000000       -0.059275         1
        11         9        10        40     9      180.000000       12.603121         2
        11         9        10        40     9        0.000000       -0.476842         3
        11         9        10        40     9      180.000000        0.011512         4
        11        13        14        15     9        0.000000       -1.003996         1
        11        13        14        15     9      180.000000       -0.760239         2
        11        13        14        15     9        0.000000        0.092506         3
        11        13        14        15     9      180.000000        0.162410         4
        11        13        14        41     9        0.000000        0.041060         1
        11        13        14        41     9      180.000000        0.089557         2
        11        13        14        41     9        0.000000        0.093670         3
        11        13        14        41     9      180.000000       -0.010454         4
        11        13        14        42     9        0.000000        0.041060         1
        11        13        14        42     9      180.000000        0.089557         2
        11        13        14        42     9        0.000000        0.093670         3
        11        13        14        42     9      180.000000       -0.010454         4
        11        13        20        19     9        0.000000       -1.003995         1
        11        13        20        19     9      180.000000       -0.760239         2
        11        13        20        19     9        0.000000        0.092506         3
        11        13        20        19     9      180.000000        0.162410         4
        11        13        20        49     9        0.000000        0.041060         1
        11        13        20        49     9      180.000000        0.089558         2
        11        13        20        49     9        0.000000        0.093670         3
        11        13        20        49     9      180.000000       -0.010454         4
        11        13        20        50     9        0.000000        0.041060         1
        11        13        20        50     9      180.000000        0.089558         2
        11        13        20        50     9        0.000000        0.093670         3
        11        13        20        50     9      180.000000       -0.010454         4
        12        11        13        14     9        0.000000       -1.634797         1
        12        11        13        14     9      180.000000       13.609407         2
        12        11        13        14     9        0.000000       -1.071207         3
        12        11        13        14     9      180.000000       -0.208427         4
        12        11        13        20     9        0.000000       -1.634797         1
        12        11        13        20     9      180.000000       13.609407         2
        12        11        13        20     9        0.000000       -1.071208         3
        12        11        13        20     9      180.000000       -0.208427         4
        13        14        15        16     9        0.000000       -0.410987         1
        13        14        15        16     9      180.000000       -1.385796         2
        13        14        15        16     9        0.000000        0.136984         3
        13        14        15        16     9      180.000000        0.093039         4
        13        14        15        19     9        0.000000       -2.854017         1
        13        14        15        19     9      180.000000        7.702165         2
        13        14        15        19     9        0.000000       -0.708711         3
        13        14        15        19     9      180.000000       -1.169470         4
        13        14        15        43     9        0.000000        0.989398         1
        13        14        15        43     9      180.000000       -0.387239         2
        13        14        15        43     9        0.000000       -0.055241         3
        13        14        15        43     9      180.000000        0.255012         4
        13        20        19        15     9        0.000000       -2.854018         1
        13        20        19        15     9      180.000000        7.702168         2
        13        20        19        15     9        0.000000       -0.708712         3
        13        20        19        15     9      180.000000       -1.169471         4
        13        20        19        18     9        0.000000       -0.410988         1
        13        20        19        18     9      180.000000       -1.385796         2
        13        20        19        18     9        0.000000        0.136984         3
        13        20        19        18     9      180.000000        0.093039         4
        13        20        19        48     9        0.000000        0.989396         1
        13        20        19        48     9      180.000000       -0.387238         2
        13        20        19        48     9        0.000000       -0.055241         3
        13        20        19        48     9      180.000000        0.255011         4
        14        13        20        19     9        0.000000       -0.115320         1
        14        13        20        19     9      180.000000       -0.195851         2
        14        13        20        19     9        0.000000        0.225772         3
        14        13        20        19     9      180.000000       -0.049084         4
        14        13        20        49     9        0.000000       -0.036132         1
        14        13        20        49     9      180.000000       -0.000356         2
        14        13        20        49     9        0.000000        0.119649         3
        14        13        20        49     9      180.000000        0.062908         4
        14        13        20        50     9        0.000000       -0.036132         1
        14        13        20        50     9      180.000000       -0.000356         2
        14        13        20        50     9        0.000000        0.119649         3
        14        13        20        50     9      180.000000        0.062908         4
        14        15        16        17     9        0.000000        0.141092         1
        14        15        16        17     9      180.000000       -1.554592         2
        14        15        16        17     9        0.000000        0.129275         3
        14        15        16        17     9      180.000000        0.187853         4
        14        15        16        44     9        0.000000       -0.150868         1
        14        15        16        44     9      180.000000        0.072012         2
        14        15        16        44     9        0.000000        0.214875         3
        14        15        16        44     9      180.000000        0.045179         4
        14        15        16        45     9        0.000000       -0.150868         1
        14        15        16        45     9      180.000000        0.072012         2
        14        15        16        45     9        0.000000        0.214875         3
        14        15        16        45     9      180.000000        0.045179         4
        14        15        19        18     9        0.000000       -1.429698         1
        14        15        19        18     9      180.000000       -0.955407         2
        14        15        19        18     9        0.000000        0.546147         3
        14        15        19        18     9      180.000000       -0.724521         4
        14        15        19        20     9        0.000000       -0.903491         1
        14        15        19        20     9      180.000000       -0.930898         2
        14        15        19        20     9        0.000000        0.568820         3
        14        15        19        20     9      180.000000       -0.686259         4
        14        15        19        48     9        0.000000       -0.022163         1
        14        15        19        48     9      180.000000        0.142975         2
        14        15        19        48     9        0.000000        0.388150         3
        14        15        19        48     9      180.000000        0.197014         4
        15        14        13        20     9        0.000000       -0.115320         1
        15        14        13        20     9      180.000000       -0.195851         2
        15        14        13        20     9        0.000000        0.225772         3
        15        14        13        20     9      180.000000       -0.049084         4
        15        16        17        18     9        0.000000       -0.515519         1
        15        16        17        18     9      180.000000        0.695786         2
        15        16        17        18     9        0.000000        0.374724         3
        15        16        17        18     9      180.000000       -0.306280         4
        15        16        17        21     9        0.000000       -3.777482         1
        15        16        17        21     9      180.000000       -0.445032         2
        15        16        17        21     9        0.000000        0.410580         3
        15        16        17        21     9      180.000000        0.178916         4
        15        19        18        17     9        0.000000       -3.183876         1
        15        19        18        17     9      180.000000       11.770774         2
        15        19        18        17     9        0.000000       -0.669596         3
        15        19        18        17     9      180.000000       -2.371237         4
        15        19        18        46     9        0.000000        0.005453         1
        15        19        18        46     9      180.000000       -0.187956         2
        15        19        18        46     9        0.000000       -0.253494         3
        15        19        18        46     9      180.000000        0.289446         4
        15        19        18        47     9        0.000000        0.005453         1
        15        19        18        47     9      180.000000       -0.187956         2
        15        19        18        47     9        0.000000       -0.253494         3
        15        19        18        47     9      180.000000        0.289446         4
        15        19        20        49     9        0.000000        0.022483         1
        15        19        20        49     9      180.000000       -0.185435         2
        15        19        20        49     9        0.000000       -0.302149         3
        15        19        20        49     9      180.000000        0.229395         4
        15        19        20        50     9        0.000000        0.022483         1
        15        19        20        50     9      180.000000       -0.185435         2
        15        19        20        50     9        0.000000       -0.302149         3
        15        19        20        50     9      180.000000        0.229395         4
        16        15        14        41     9        0.000000       -0.090272         1
        16        15        14        41     9      180.000000        0.043313         2
        16        15        14        41     9        0.000000        0.181102         3
        16        15        14        41     9      180.000000        0.056845         4
        16        15        14        42     9        0.000000       -0.090272         1
        16        15        14        42     9      180.000000        0.043313         2
        16        15        14        42     9        0.000000        0.181102         3
        16        15        14        42     9      180.000000        0.056845         4
        16        15        19        18     9        0.000000       -1.723215         1
        16        15        19        18     9      180.000000       -1.104300         2
        16        15        19        18     9        0.000000        0.465854         3
        16        15        19        18     9      180.000000       -0.749204         4
        16        15        19        20     9        0.000000       -1.429696         1
        16        15        19        20     9      180.000000       -0.955407         2
        16        15        19        20     9        0.000000        0.546147         3
        16        15        19        20     9      180.000000       -0.724521         4
        16        15        19        48     9        0.000000        0.196399         1
        16        15        19        48     9      180.000000        0.124290         2
        16        15        19        48     9        0.000000        0.308842         3
        16        15        19        48     9      180.000000        0.285300         4
        16        17        18        19     9        0.000000       -0.515520         1
        16        17        18        19     9      180.000000        0.695785         2
        16        17        18        19     9        0.000000        0.374724         3
        16        17        18        19     9      180.000000       -0.306280         4
        16        17        18        46     9        0.000000       -0.040239         1
        16        17        18        46     9      180.000000       -0.063463         2
        16        17        18        46     9        0.000000        0.343610         3
        16        17        18        46     9      180.000000        0.107466         4
        16        17        18        47     9        0.000000       -0.040239         1
        16        17        18        47     9      180.000000       -0.063463         2
        16        17        18        47     9        0.000000        0.343610         3
        16        17        18        47     9      180.000000        0.107466         4
        16        17        21        22     9        0.000000        0.747628         1
        16        17        21        22     9      180.000000        9.366863         2
        16        17        21        22     9        0.000000       -0.095722         3
        16        17        21        22     9      180.000000       -1.018207         4
        16        17        21        28     9        0.000000        0.747628         1
        16        17        21        28     9      180.000000        9.366864         2
        16        17        21        28     9        0.000000       -0.095723         3
        16        17        21        28     9      180.000000       -1.018206         4
        17        16        15        19     9        0.000000       -3.183874         1
        17        16        15        19     9      180.000000       11.770770         2
        17        16        15        19     9        0.000000       -0.669596         3
        17        16        15        19     9      180.000000       -2.371236         4
        17        16        15        43     9        0.000000        3.046268         1
        17        16        15        43     9      180.000000       -0.789547         2
        17        16        15        43     9        0.000000       -0.188589         3
        17        16        15        43     9      180.000000        0.438255         4
        17        18        19        20     9        0.000000        0.141092         1
        17        18        19        20     9      180.000000       -1.554592         2
        17        18        19        20     9        0.000000        0.129275         3
        17        18        19        20     9      180.000000        0.187854         4
        17        18        19        48     9        0.000000        3.046267         1
        17        18        19        48     9      180.000000       -0.789546         2
        17        18        19        48     9        0.000000       -0.188588         3
        17        18        19        48     9      180.000000        0.438255         4
        17        21        22        23     9        0.000000        1.229501         1
        17        21        22        23     9      180.000000       16.103331         2
        17        21        22        23     9        0.000000        0.664455         3
        17        21        22        23     9      180.000000       -1.018198         4
        17        21        28        26     9        0.000000        1.229502         1
        17        21        28        26     9      180.000000       16.103329         2
        17        21        28        26     9        0.000000        0.664456         3
        17        21        28        26     9      180.000000       -1.018198         4
        18        17        16        44     9        0.000000       -0.040239         1
        18        17        16        44     9      180.000000       -0.063462         2
        18        17        16        44     9        0.000000        0.343610         3
        18        17        16        44     9      180.000000        0.107466         4
        18        17        16        45     9        0.000000       -0.040239         1
        18        17        16        45     9      180.000000       -0.063462         2
        18        17        16        45     9        0.000000        0.343610         3
        18        17        16        45     9      180.000000        0.107466         4
        18        17        21        22     9        0.000000        0.747627         1
        18        17        21        22     9      180.000000        9.366865         2
        18        17        21        22     9        0.000000       -0.095722         3
        18        17        21        22     9      180.000000       -1.018207         4
        18        17        21        28     9        0.000000        0.747630         1
        18        17        21        28     9      180.000000        9.366864         2
        18        17        21        28     9        0.000000       -0.095722         3
        18        17        21        28     9      180.000000       -1.018207         4
        18        19        15        43     9        0.000000        0.196399         1
        18        19        15        43     9      180.000000        0.124291         2
        18        19        15        43     9        0.000000        0.308842         3
        18        19        15        43     9      180.000000        0.285299         4
        18        19        20        49     9        0.000000       -0.090272         1
        18        19        20        49     9      180.000000        0.043313         2
        18        19        20        49     9        0.000000        0.181102         3
        18        19        20        49     9      180.000000        0.056845         4
        18        19        20        50     9        0.000000       -0.090272         1
        18        19        20        50     9      180.000000        0.043313         2
        18        19        20        50     9        0.000000        0.181102         3
        18        19        20        50     9      180.000000        0.056845         4
        19        15        14        41     9        0.000000        0.022484         1
        19        15        14        41     9      180.000000       -0.185435         2
        19        15        14        41     9        0.000000       -0.302149         3
        19        15        14        41     9      180.000000        0.229395         4
        19        15        14        42     9        0.000000        0.022484         1
        19        15        14        42     9      180.000000       -0.185435         2
        19        15        14        42     9        0.000000       -0.302149         3
        19        15        14        42     9      180.000000        0.229395         4
        19        15        16        44     9        0.000000        0.005453         1
        19        15        16        44     9      180.000000       -0.187956         2
        19        15        16        44     9        0.000000       -0.253494         3
        19        15        16        44     9      180.000000        0.289446         4
        19        15        16        45     9        0.000000        0.005453         1
        19        15        16        45     9      180.000000       -0.187956         2
        19        15        16        45     9        0.000000       -0.253494         3
        19        15        16        45     9      180.000000        0.289446         4
        19        18        17        21     9        0.000000       -3.777480         1
        19        18        17        21     9      180.000000       -0.445033         2
        19        18        17        21     9        0.000000        0.410580         3
        19        18        17        21     9      180.000000        0.178916         4
        20        13        14        41     9        0.000000       -0.036131         1
        20        13        14        41     9      180.000000       -0.000356         2
        20        13        14        41     9        0.000000        0.119649         3
        20        13        14        41     9      180.000000        0.062908         4
        20        13        14        42     9        0.000000       -0.036131         1
        20        13        14        42     9      180.000000       -0.000356         2
        20        13        14        42     9        0.000000        0.119649         3
        20        13        14        42     9      180.000000        0.062908         4
        20        19        15        43     9        0.000000       -0.022163         1
        20        19        15        43     9      180.000000        0.142976         2
        20        19        15        43     9        0.000000        0.388150         3
        20        19        15        43     9      180.000000        0.197014         4
        20        19        18        46     9        0.000000       -0.150868         1
        20        19        18        46     9      180.000000        0.072013         2
        20        19        18        46     9        0.000000        0.214876         3
        20        19        18        46     9      180.000000        0.045179         4
        20        19        18        47     9        0.000000       -0.150868         1
        20        19        18        47     9      180.000000        0.072013         2
        20        19        18        47     9        0.000000        0.214876         3
        20        19        18        47     9      180.000000        0.045179         4
        21        17        16        44     9        0.000000       -0.010160         1
        21        17        16        44     9      180.000000       -0.080811         2
        21        17        16        44     9        0.000000        0.536714         3
        21        17        16        44     9      180.000000       -0.022062         4
        21        17        16        45     9        0.000000       -0.010160         1
        21        17        16        45     9      180.000000       -0.080811         2
        21        17        16        45     9        0.000000        0.536714         3
        21        17        16        45     9      180.000000       -0.022062         4
        21        17        18        46     9        0.000000       -0.010161         1
        21        17        18        46     9      180.000000       -0.080811         2
        21        17        18        46     9        0.000000        0.536714         3
        21        17        18        46     9      180.000000       -0.022062         4
        21        17        18        47     9        0.000000       -0.010161         1
        21        17        18        47     9      180.000000       -0.080811         2
        21        17        18        47     9        0.000000        0.536714         3
        21        17        18        47     9      180.000000       -0.022062         4
        21        22        23        24     9        0.000000       -0.024261         1
        21        22        23        24     9      180.000000       17.595206         2
        21        22        23        24     9        0.000000        0.133710         3
        21        22        23        24     9      180.000000       -0.526294         4
        21        22        23        25     9        0.000000       -0.379284         1
        21        22        23        25     9      180.000000       19.341467         2
        21        22        23        25     9        0.000000       -1.106329         3
        21        22        23        25     9      180.000000       -0.500796         4
        21        28        26        25     9        0.000000       -0.379284         1
        21        28        26        25     9      180.000000       19.341467         2
        21        28        26        25     9        0.000000       -1.106329         3
        21        28        26        25     9      180.000000       -0.500796         4
        21        28        26        27     9        0.000000       -0.024262         1
        21        28        26        27     9      180.000000       17.595210         2
        21        28        26        27     9        0.000000        0.133710         3
        21        28        26        27     9      180.000000       -0.526294         4
        22        21        28        26     9        0.000000        0.513199         1
        22        21        28        26     9      180.000000        9.191426         2
        22        21        28        26     9        0.000000        0.738957         3
        22        21        28        26     9      180.000000       -0.519149         4
        22        23        24        51     9        0.000000        0.003881         1
        22        23        24        51     9      180.000000       -0.062736         2
        22        23        24        51     9        0.000000        0.023444         3
        22        23        24        51     9      180.000000       -0.007650         4
        22        23        24        52     9        0.000000        0.003881         1
        22        23        24        52     9      180.000000       -0.062736         2
        22        23        24        52     9        0.000000        0.023444         3
        22        23        24        52     9      180.000000       -0.007650         4
        22        23        24        53     9        0.000000        0.003881         1
        22        23        24        53     9      180.000000       -0.062736         2
        22        23        24        53     9        0.000000        0.023444         3
        22        23        24        53     9      180.000000       -0.007650         4
        22        23        25        26     9        0.000000       -0.062247         1
        22        23        25        26     9      180.000000       14.568155         2
        22        23        25        26     9        0.000000       -0.276619         3
        22        23        25        26     9      180.000000       -0.509286         4
        22        23        25        54     9        0.000000       -0.034010         1
        22        23        25        54     9      180.000000       12.223299         2
        22        23        25        54     9        0.000000       -0.267637         3
        22        23        25        54     9      180.000000       -0.072661         4
        23        22        21        28     9        0.000000        0.513200         1
        23        22        21        28     9      180.000000        9.191426         2
        23        22        21        28     9        0.000000        0.738957         3
        23        22        21        28     9      180.000000       -0.519149         4
        23        25        26        27     9        0.000000        0.256556         1
        23        25        26        27     9      180.000000       13.179426         2
        23        25        26        27     9        0.000000       -0.097633         3
        23        25        26        27     9      180.000000       -0.317869         4
        23        25        26        28     9        0.000000       -0.062248         1
        23        25        26        28     9      180.000000       14.568153         2
        23        25        26        28     9        0.000000       -0.276618         3
        23        25        26        28     9      180.000000       -0.509287         4
        24        23        25        26     9        0.000000        0.256556         1
        24        23        25        26     9      180.000000       13.179428         2
        24        23        25        26     9        0.000000       -0.097633         3
        24        23        25        26     9      180.000000       -0.317869         4
        24        23        25        54     9        0.000000       -0.223957         1
        24        23        25        54     9      180.000000       11.375068         2
        24        23        25        54     9        0.000000       -0.534832         3
        24        23        25        54     9      180.000000        0.134009         4
        25        23        24        51     9        0.000000       -0.025287         1
        25        23        24        51     9      180.000000       -0.035803         2
        25        23        24        51     9        0.000000       -0.089579         3
        25        23        24        51     9      180.000000        0.005712         4
        25        23        24        52     9        0.000000       -0.025287         1
        25        23        24        52     9      180.000000       -0.035803         2
        25        23        24        52     9        0.000000       -0.089579         3
        25        23        24        52     9      180.000000        0.005712         4
        25        23        24        53     9        0.000000       -0.025287         1
        25        23        24        53     9      180.000000       -0.035803         2
        25        23        24        53     9        0.000000       -0.089579         3
        25        23        24        53     9      180.000000        0.005712         4
        25        26        27        55     9        0.000000       -0.025287         1
        25        26        27        55     9      180.000000       -0.035803         2
        25        26        27        55     9        0.000000       -0.089578         3
        25        26        27        55     9      180.000000        0.005712         4
        25        26        27        56     9        0.000000       -0.025287         1
        25        26        27        56     9      180.000000       -0.035803         2
        25        26        27        56     9        0.000000       -0.089578         3
        25        26        27        56     9      180.000000        0.005712         4
        25        26        27        57     9        0.000000       -0.025287         1
        25        26        27        57     9      180.000000       -0.035803         2
        25        26        27        57     9        0.000000       -0.089578         3
        25        26        27        57     9      180.000000        0.005712         4
        27        26        25        54     9        0.000000       -0.223957         1
        27        26        25        54     9      180.000000       11.375068         2
        27        26        25        54     9        0.000000       -0.534831         3
        27        26        25        54     9      180.000000        0.134009         4
        28        26        25        54     9        0.000000       -0.034010         1
        28        26        25        54     9      180.000000       12.223298         2
        28        26        25        54     9        0.000000       -0.267637         3
        28        26        25        54     9      180.000000       -0.072661         4
        28        26        27        55     9        0.000000        0.003880         1
        28        26        27        55     9      180.000000       -0.062734         2
        28        26        27        55     9        0.000000        0.023445         3
        28        26        27        55     9      180.000000       -0.007650         4
        28        26        27        56     9        0.000000        0.003880         1
        28        26        27        56     9      180.000000       -0.062734         2
        28        26        27        56     9        0.000000        0.023445         3
        28        26        27        56     9      180.000000       -0.007650         4
        28        26        27        57     9        0.000000        0.003880         1
        28        26        27        57     9      180.000000       -0.062734         2
        28        26        27        57     9        0.000000        0.023445         3
        28        26        27        57     9      180.000000       -0.007650         4
        29         8         7        39     9        0.000000        0.194649         1
        29         8         7        39     9      180.000000       14.340201         2
        29         8         7        39     9        0.000000       -0.003621         3
        29         8         7        39     9      180.000000        0.109532         4
        29        30        31        32     9        0.000000       -0.112461         1
        29        30        31        32     9      180.000000       41.052444         2
        29        30        31        32     9        0.000000       -5.890512         3
        29        30        31        32     9      180.000000       -0.008108         4
        29        30        31        58     9        0.000000        1.292619         1
        29        30        31        58     9      180.000000       26.526210         2
        29        30        31        58     9        0.000000       -0.133154         3
        29        30        31        58     9      180.000000       -0.139937         4
        29        33        32        31     9        0.000000       -0.112462         1
        29        33        32        31     9      180.000000       41.052448         2
        29        33        32        31     9        0.000000       -5.890513         3
        29        33        32        31     9      180.000000       -0.008108         4
        29        33        32        59     9        0.000000        1.292620         1
        29        33        32        59     9      180.000000       26.526210         2
        29        33        32        59     9        0.000000       -0.133154         3
        29        33        32        59     9      180.000000       -0.139938         4
        30        29        33        32     9        0.000000       -0.219545         1
        30        29        33        32     9      180.000000       33.423013         2
        30        29        33        32     9        0.000000       -5.623654         3
        30        29        33        32     9      180.000000        0.093807         4
        30        31        32        33     9        0.000000       -0.646394         1
        30        31        32        33     9      180.000000       33.879572         2
        30        31        32        33     9        0.000000       -7.997882         3
        30        31        32        33     9      180.000000       -0.068922         4
        30        31        32        59     9        0.000000        0.399471         1
        30        31        32        59     9      180.000000       15.777787         2
        30        31        32        59     9        0.000000       -0.622624         3
        30        31        32        59     9      180.000000       -0.473181         4
        31        30        29        33     9        0.000000       -0.219543         1
        31        30        29        33     9      180.000000       33.423013         2
        31        30        29        33     9        0.000000       -5.623654         3
        31        30        29        33     9      180.000000        0.093808         4
        33        32        31        58     9        0.000000        0.399472         1
        33        32        31        58     9      180.000000       15.777787         2
        33        32        31        58     9        0.000000       -0.622625         3
        33        32        31        58     9      180.000000       -0.473181         4
        38         6         7        39     9        0.000000       -0.038463         1
        38         6         7        39     9      180.000000       12.789986         2
        38         6         7        39     9        0.000000       -0.823251         3
        38         6         7        39     9      180.000000        0.251110         4
        41        14        15        43     9        0.000000       -0.086594         1
        41        14        15        43     9      180.000000        0.026398         2
        41        14        15        43     9        0.000000        0.269152         3
        41        14        15        43     9      180.000000       -0.020189         4
        42        14        15        43     9        0.000000       -0.086594         1
        42        14        15        43     9      180.000000        0.026398         2
        42        14        15        43     9        0.000000        0.269152         3
        42        14        15        43     9      180.000000       -0.020189         4
        43        15        16        44     9        0.000000       -0.140740         1
        43        15        16        44     9      180.000000       -0.009946         2
        43        15        16        44     9        0.000000        0.295617         3
        43        15        16        44     9      180.000000       -0.018107         4
        43        15        16        45     9        0.000000       -0.140740         1
        43        15        16        45     9      180.000000       -0.009946         2
        43        15        16        45     9        0.000000        0.295617         3
        43        15        16        45     9      180.000000       -0.018107         4
        43        15        19        48     9        0.000000        0.223574         1
        43        15        19        48     9      180.000000       -0.077959         2
        43        15        19        48     9        0.000000        0.353694         3
        43        15        19        48     9      180.000000       -0.057173         4
        46        18        19        48     9        0.000000       -0.140741         1
        46        18        19        48     9      180.000000       -0.009947         2
        46        18        19        48     9        0.000000        0.295617         3
        46        18        19        48     9      180.000000       -0.018107         4
        47        18        19        48     9        0.000000       -0.140741         1
        47        18        19        48     9      180.000000       -0.009947         2
        47        18        19        48     9        0.000000        0.295617         3
        47        18        19        48     9      180.000000       -0.018107         4
        48        19        20        49     9        0.000000       -0.086595         1
        48        19        20        49     9      180.000000        0.026399         2
        48        19        20        49     9        0.000000        0.269152         3
        48        19        20        49     9      180.000000       -0.020189         4
        48        19        20        50     9        0.000000       -0.086595         1
        48        19        20        50     9      180.000000        0.026399         2
        48        19        20        50     9        0.000000        0.269152         3
        48        19        20        50     9      180.000000       -0.020189         4
        58        31        32        59     9        0.000000       -0.304766         1
        58        31        32        59     9      180.000000        8.321253         2
        58        31        32        59     9        0.000000       -0.141498         3
        58        31        32        59     9      180.000000        0.273252         4

[ dihedrals ] ; impropers
;       ai        aj        ak        al funct           phase               k        pn
         2         1         3         4     4      180.000000       27.893333         2
         2         3         4         1     4      180.000000       27.893333         2
         2         4         1         3     4      180.000000       27.893333         2
        21        17        22        28     4      180.000000       27.893333         2
        21        22        28        17     4      180.000000       27.893333         2
        21        28        17        22     4      180.000000       27.893333         2
        23        22        24        25     4      180.000000       21.793922         2
        23        24        25        22     4      180.000000       21.793922         2
        23        25        22        24     4      180.000000       21.793922         2
        26        25        27        28     4      180.000000       21.793922         2
        26        27        28        25     4      180.000000       21.793922         2
        26        28        25        27     4      180.000000       21.793922         2

[ pairs ]
;       ai        aj funct
         1         5     1
         1        37     1
         2         6     1
         2        10     1
         3         5     1
         3        34     1
         3        35     1
         3        36     1
         3        37     1
         4         7     1
         4         9     1
         4        34     1
         4        35     1
         4        36     1
         4        38     1
         4        40     1
         5         8     1
         5        11     1
         5        39     1
         6         9     1
         6        29     1
         6        37     1
         6        40     1
         7        10     1
         7        11     1
         7        30     1
         7        33     1
         8        12     1
         8        13     1
         8        31     1
         8        32     1
         8        38     1
         8        40     1
         9        14     1
         9        20     1
         9        30     1
         9        33     1
         9        39     1
        10        12     1
        10        13     1
        10        29     1
        10        37     1
        10        38     1
        11        15     1
        11        19     1
        11        29     1
        11        40     1
        11        41     1
        11        42     1
        11        49     1
        11        50     1
        12        14     1
        12        20     1
        13        16     1
        13        18     1
        13        43     1
        13        48     1
        14        17     1
        14        18     1
        14        44     1
        14        45     1
        14        48     1
        14        49     1
        14        50     1
        15        21     1
        15        46     1
        15        47     1
        15        49     1
        15        50     1
        16        20     1
        16        22     1
        16        28     1
        16        41     1
        16        42     1
        16        46     1
        16        47     1
        16        48     1
        17        20     1
        17        23     1
        17        26     1
        17        43     1
        17        48     1
        18        22     1
        18        28     1
        18        43     1
        18        44     1
        18        45     1
        18        49     1
        18        50     1
        19        21     1
        19        41     1
        19        42     1
        19        44     1
        19        45     1
        20        41     1
        20        42     1
        20        43     1
        20        46     1
        20        47     1
        21        24     1
        21        25     1
        21        27     1
        21        44     1
        21        45     1
        21        46     1
        21        47     1
        22        26     1
        22        51     1
        22        52     1
        22        53     1
        22        54     1
        23        27     1
        23        28     1
        24        26     1
        24        54     1
        25        51     1
        25        52     1
        25        53     1
        25        55     1
        25        56     1
        25        57     1
        27        54     1
        28        54     1
        28        55     1
        28        56     1
        28        57     1
        29        39     1
        29        58     1
        29        59     1
        30        59     1
        33        58     1
        38        39     1
        41        43     1
        42        43     1
        43        44     1
        43        45     1
        43        48     1
        46        48     1
        47        48     1
        48        49     1
        48        50     1
        58        59     1
