; ITP file created by ByteFF-ML, 2025-12-06 04:39:45.144821

[ atomtypes ]
;name           bonded.type        at.num        mass        charge   ptype           sigma         epsilon
 c0bf                                   6      0.0000       0.00000       A     3.39813e-01     4.50976e-01
 c1bf                                   6      0.0000       0.00000       A     3.31356e-01     4.11183e-01
 c2bf                                   6      0.0000       0.00000       A     3.31508e-01     4.12834e-01
 c3bf                                   6      0.0000       0.00000       A     3.31356e-01     4.11183e-01
 c4bf                                   6      0.0000       0.00000       A     3.39813e-01     4.50976e-01
 n5bf                                   7      0.0000       0.00000       A     3.38255e-01     3.94373e-01
 c6bf                                   6      0.0000       0.00000       A     3.31548e-01     4.12659e-01
 n7bf                                   7      0.0000       0.00000       A     3.38255e-01     3.94373e-01
 n8bf                                   7      0.0000       0.00000       A     3.19428e-01     8.94136e-01
 c9bf                                   6      0.0000       0.00000       A     3.39585e-01     4.49212e-01
 c10bf                                  6      0.0000       0.00000       A     3.39712e-01     4.49806e-01
 c11bf                                  6      0.0000       0.00000       A     3.39727e-01     4.50797e-01
 n12bf                                  7      0.0000       0.00000       A     3.18141e-01     6.81151e-01
 c13bf                                  6      0.0000       0.00000       A     3.39727e-01     4.50797e-01
 c14bf                                  6      0.0000       0.00000       A     3.39712e-01     4.49806e-01
 c15bf                                  6      0.0000       0.00000       A     3.39585e-01     4.49212e-01
 c16bf                                  6      0.0000       0.00000       A     3.31352e-01     4.10820e-01
 o17bf                                  8      0.0000       0.00000       A     3.04770e-01     6.12733e-01
 c18bf                                  6      0.0000       0.00000       A     3.31485e-01     4.10634e-01
 c19bf                                  6      0.0000       0.00000       A     3.31490e-01     4.12661e-01
 c20bf                                  6      0.0000       0.00000       A     3.31553e-01     4.13194e-01
 f21bf                                  9      0.0000       0.00000       A     3.03446e-01     3.48618e-01
 c22bf                                  6      0.0000       0.00000       A     3.31500e-01     4.13317e-01
 f23bf                                  9      0.0000       0.00000       A     3.03451e-01     3.48315e-01
 c24bf                                  6      0.0000       0.00000       A     3.31578e-01     4.10709e-01
 c25bf                                  6      0.0000       0.00000       A     3.31567e-01     4.14506e-01
 n26bf                                  7      0.0000       0.00000       A     3.20859e-01     8.48799e-01
 n27bf                                  7      0.0000       0.00000       A     3.38251e-01     3.94826e-01
 c28bf                                  6      0.0000       0.00000       A     3.31301e-01     4.12308e-01
 c29bf                                  6      0.0000       0.00000       A     3.31301e-01     4.12308e-01
 n30bf                                  7      0.0000       0.00000       A     3.38251e-01     3.94826e-01
 h31bf                                  1      0.0000       0.00000       A     2.59989e-01     8.71151e-02
 h32bf                                  1      0.0000       0.00000       A     2.59989e-01     8.71151e-02
 h33bf                                  1      0.0000       0.00000       A     2.59989e-01     8.71151e-02
 h34bf                                  1      0.0000       0.00000       A     2.62556e-01     6.77132e-02
 h35bf                                  1      0.0000       0.00000       A     2.59989e-01     8.71151e-02
 h36bf                                  1      0.0000       0.00000       A     2.59989e-01     8.71151e-02
 h37bf                                  1      0.0000       0.00000       A     2.59989e-01     8.71151e-02
 h38bf                                  1      0.0000       0.00000       A     2.42127e-01     8.72842e-02
 h39bf                                  1      0.0000       0.00000       A     2.42127e-01     8.72842e-02
 h40bf                                  1      0.0000       0.00000       A     2.60149e-01     8.67575e-02
 h41bf                                  1      0.0000       0.00000       A     2.42171e-01     8.72571e-02
 h42bf                                  1      0.0000       0.00000       A     2.42171e-01     8.72571e-02
 h43bf                                  1      0.0000       0.00000       A     2.42171e-01     8.72571e-02
 h44bf                                  1      0.0000       0.00000       A     2.42171e-01     8.72571e-02
 h45bf                                  1      0.0000       0.00000       A     2.60149e-01     8.67575e-02
 h46bf                                  1      0.0000       0.00000       A     2.42127e-01     8.72842e-02
 h47bf                                  1      0.0000       0.00000       A     2.42127e-01     8.72842e-02
 h48bf                                  1      0.0000       0.00000       A     2.62422e-01     6.72057e-02
 h49bf                                  1      0.0000       0.00000       A     2.62340e-01     6.74435e-02
 h50bf                                  1      0.0000       0.00000       A     2.53897e-01     6.74946e-02
 h51bf                                  1      0.0000       0.00000       A     2.53897e-01     6.74946e-02

[ moleculetype ]
;name             nrexcl
 set_2_18              3

[ atoms ]
;       nr            type      resi   res      atom      cgnr      charge          mass ; qtot
         1            c0bf         1   UNL        c0         1    -0.15050       12.0110 ; qtot   -0.150
         2            c1bf         1   UNL        c1         2     0.16283       12.0110 ; qtot    0.012
         3            c2bf         1   UNL        c2         3    -0.27614       12.0110 ; qtot   -0.264
         4            c3bf         1   UNL        c3         4     0.16283       12.0110 ; qtot   -0.101
         5            c4bf         1   UNL        c4         5    -0.15050       12.0110 ; qtot   -0.251
         6            n5bf         1   UNL        n5         6    -0.25087       14.0070 ; qtot   -0.502
         7            c6bf         1   UNL        c6         7     0.38591       12.0110 ; qtot   -0.116
         8            n7bf         1   UNL        n7         8    -0.25087       14.0070 ; qtot   -0.367
         9            n8bf         1   UNL        n8         9    -0.78178       14.0070 ; qtot   -1.149
        10            c9bf         1   UNL        c9        10     0.23669       12.0110 ; qtot   -0.912
        11           c10bf         1   UNL       c10        11    -0.10223       12.0110 ; qtot   -1.015
        12           c11bf         1   UNL       c11        12     0.10928       12.0110 ; qtot   -0.905
        13           n12bf         1   UNL       n12        13    -0.41055       14.0070 ; qtot   -1.316
        14           c13bf         1   UNL       c13        14     0.10928       12.0110 ; qtot   -1.207
        15           c14bf         1   UNL       c14        15    -0.10223       12.0110 ; qtot   -1.309
        16           c15bf         1   UNL       c15        16     0.23669       12.0110 ; qtot   -1.072
        17           c16bf         1   UNL       c16        17     0.63225       12.0110 ; qtot   -0.440
        18           o17bf         1   UNL       o17        18    -0.58920       15.9990 ; qtot   -1.029
        19           c18bf         1   UNL       c18        19    -0.11273       12.0110 ; qtot   -1.142
        20           c19bf         1   UNL       c19        20    -0.08087       12.0110 ; qtot   -1.223
        21           c20bf         1   UNL       c20        21     0.13150       12.0110 ; qtot   -1.091
        22           f21bf         1   UNL       f21        22    -0.15653       18.9980 ; qtot   -1.248
        23           c22bf         1   UNL       c22        23     0.15596       12.0110 ; qtot   -1.092
        24           f23bf         1   UNL       f23        24    -0.15432       18.9980 ; qtot   -1.246
        25           c24bf         1   UNL       c24        25    -0.11633       12.0110 ; qtot   -1.362
        26           c25bf         1   UNL       c25        26     0.07680       12.0110 ; qtot   -1.286
        27           n26bf         1   UNL       n26        27     0.30999       14.0070 ; qtot   -0.976
        28           n27bf         1   UNL       n27        28    -0.47787       14.0070 ; qtot   -1.454
        29           c28bf         1   UNL       c28        29     0.20629       12.0110 ; qtot   -1.247
        30           c29bf         1   UNL       c29        30     0.20629       12.0110 ; qtot   -1.041
        31           n30bf         1   UNL       n30        31    -0.47787       14.0070 ; qtot   -1.519
        32           h31bf         1   UNL       h31        32     0.05717        1.0080 ; qtot   -1.462
        33           h32bf         1   UNL       h32        33     0.05717        1.0080 ; qtot   -1.404
        34           h33bf         1   UNL       h33        34     0.05717        1.0080 ; qtot   -1.347
        35           h34bf         1   UNL       h34        35     0.13105        1.0080 ; qtot   -1.216
        36           h35bf         1   UNL       h35        36     0.05717        1.0080 ; qtot   -1.159
        37           h36bf         1   UNL       h36        37     0.05717        1.0080 ; qtot   -1.102
        38           h37bf         1   UNL       h37        38     0.05717        1.0080 ; qtot   -1.045
        39           h38bf         1   UNL       h38        39     0.05798        1.0080 ; qtot   -0.987
        40           h39bf         1   UNL       h39        40     0.05798        1.0080 ; qtot   -0.929
        41           h40bf         1   UNL       h40        41     0.07208        1.0080 ; qtot   -0.857
        42           h41bf         1   UNL       h41        42     0.06015        1.0080 ; qtot   -0.797
        43           h42bf         1   UNL       h42        43     0.06015        1.0080 ; qtot   -0.736
        44           h43bf         1   UNL       h43        44     0.06015        1.0080 ; qtot   -0.676
        45           h44bf         1   UNL       h44        45     0.06015        1.0080 ; qtot   -0.616
        46           h45bf         1   UNL       h45        46     0.07208        1.0080 ; qtot   -0.544
        47           h46bf         1   UNL       h46        47     0.05798        1.0080 ; qtot   -0.486
        48           h47bf         1   UNL       h47        48     0.05798        1.0080 ; qtot   -0.428
        49           h48bf         1   UNL       h48        49     0.15058        1.0080 ; qtot   -0.277
        50           h49bf         1   UNL       h49        50     0.16496        1.0080 ; qtot   -0.113
        51           h50bf         1   UNL       h50        51     0.05626        1.0080 ; qtot   -0.056
        52           h51bf         1   UNL       h51        52     0.05625        1.0080 ; qtot    0.000

[ bonds ]
;       ai        aj funct               r               k
         1         2     1        0.150694   207469.745923
         1        32     1        0.109354   305309.983691
         1        33     1        0.109354   305309.983691
         1        34     1        0.109354   305309.983691
         2         3     1        0.140051   285005.555713
         2         8     1        0.133745   333057.585254
         3         4     1        0.140051   285005.555713
         3        35     1        0.108514   321723.577686
         4         5     1        0.150694   207469.745923
         4         6     1        0.133745   333057.585254
         5        36     1        0.109354   305309.983691
         5        37     1        0.109354   305309.983691
         5        38     1        0.109354   305309.983691
         6         7     1        0.135061   255154.794434
         7         8     1        0.135061   255154.794434
         7         9     1        0.136150   322423.090186
         9        10     1        0.146885   181060.582568
         9        16     1        0.146885   181060.557031
        10        11     1        0.153334   175036.020947
        10        39     1        0.109481   294444.786377
        10        40     1        0.109481   294444.786377
        11        12     1        0.153427   175080.787500
        11        15     1        0.154277   149842.130322
        11        41     1        0.109325   303915.887354
        12        13     1        0.147342   175956.850806
        12        42     1        0.109385   298254.744336
        12        43     1        0.109385   298254.744336
        13        14     1        0.147342   175956.876343
        13        17     1        0.135929   310433.749316
        14        15     1        0.153427   175080.787500
        14        44     1        0.109385   298254.744336
        14        45     1        0.109385   298254.744336
        15        16     1        0.153334   175036.020947
        15        46     1        0.109325   303915.912891
        16        47     1        0.109481   294444.811914
        16        48     1        0.109481   294444.811914
        17        18     1        0.123388   591343.433594
        17        19     1        0.151268   178031.383423
        19        20     1        0.140036   298394.738770
        19        26     1        0.140437   274719.488965
        20        21     1        0.138711   318186.968945
        20        49     1        0.108431   325956.787695
        21        22     1        0.134828   310310.762598
        21        23     1        0.139687   283301.413330
        23        24     1        0.134719   312113.248389
        23        25     1        0.138620   325117.076465
        25        26     1        0.139981   294536.796582
        25        50     1        0.108298   330311.911865
        26        27     1        0.142222   231983.238574
        27        28     1        0.134046   245102.724219
        27        31     1        0.134046   245102.724219
        28        29     1        0.133423   350873.498535
        29        30     1        0.141148   279463.543311
        29        51     1        0.108128   339085.415625
        30        31     1        0.133423   350873.498535
        30        52     1        0.108128   339085.415625

[ angles ]
;       ai        aj        ak funct           theta             cth
         1         2         3     1      122.040428      489.957279
         1         2         8     1      116.354942      475.838226
         2         1        32     1      110.547607      500.572608
         2         1        33     1      110.547607      500.572608
         2         1        34     1      110.547607      500.572608
         2         3         4     1      117.478683      761.775612
         2         3        35     1      121.294067      418.995525
         2         8         7     1      116.614647      960.079055
         3         2         8     1      121.655540      736.540159
         3         4         5     1      122.040428      489.957279
         3         4         6     1      121.655540      736.540159
         4         3        35     1      121.294067      418.995525
         4         5        36     1      110.547607      500.572608
         4         5        37     1      110.547607      500.572608
         4         5        38     1      110.547607      500.572608
         4         6         7     1      116.614647      960.079055
         5         4         6     1      116.354942      475.838226
         6         7         8     1      126.191666      604.351846
         6         7         9     1      116.861961      541.920764
         7         9        10     1      122.793289      492.092852
         7         9        16     1      122.793289      492.092852
         8         7         9     1      116.861961      541.920764
         9        10        11     1      102.892921      518.507927
         9        10        39     1      110.665466      411.334967
         9        10        40     1      110.665466      411.334967
         9        16        15     1      102.892921      518.507927
         9        16        47     1      110.665466      411.334967
         9        16        48     1      110.665466      411.334967
        10         9        16     1      113.053551      339.130642
        10        11        12     1      115.967918      490.766039
        10        11        15     1      103.531944      553.400524
        10        11        41     1      110.411415      471.837231
        11        10        39     1      112.134521      456.886371
        11        10        40     1      112.134521      456.886371
        11        12        13     1      103.395767      529.540724
        11        12        42     1      112.216675      453.127085
        11        12        43     1      112.216675      453.127085
        11        15        14     1      103.849327      536.391532
        11        15        16     1      103.531944      553.400524
        11        15        46     1      111.068626      475.836438
        12        11        15     1      103.849327      536.391532
        12        11        41     1      110.495773      465.529182
        12        13        14     1      111.329147      405.322861
        12        13        17     1      123.373070      462.922737
        13        12        42     1      110.442825      438.278756
        13        12        43     1      110.442825      438.278756
        13        14        15     1      103.395767      529.540756
        13        14        44     1      110.442825      438.278692
        13        14        45     1      110.442825      438.278692
        13        17        18     1      122.791580      631.889341
        13        17        19     1      117.023331      441.594590
        14        13        17     1      123.373070      462.922673
        14        15        16     1      115.967918      490.766039
        14        15        46     1      110.495773      465.529246
        15        11        41     1      111.068642      475.836438
        15        14        44     1      112.216675      453.127085
        15        14        45     1      112.216675      453.127085
        15        16        47     1      112.134521      456.886371
        15        16        48     1      112.134521      456.886371
        16        15        46     1      110.411415      471.837167
        17        19        20     1      117.909828      544.729909
        17        19        26     1      123.651840      545.424263
        18        17        19     1      119.804825      506.191570
        19        20        21     1      120.227684      689.281057
        19        20        49     1      120.196671      365.889159
        19        26        25     1      120.829567      645.901042
        19        26        27     1      120.847122      463.227331
        20        19        26     1      118.317406      694.441341
        20        21        22     1      120.434471      541.890949
        20        21        23     1      120.145493      617.329805
        21        20        49     1      119.407127      408.653858
        21        23        24     1      119.466675      431.303997
        21        23        25     1      120.216660      612.303910
        22        21        23     1      119.331009      428.092195
        23        25        26     1      119.285599      710.315080
        23        25        50     1      120.079567      413.295100
        24        23        25     1      120.233017      534.932980
        25        26        27     1      117.684402      536.788954
        26        25        50     1      120.615883      402.360142
        26        27        28     1      122.031433      518.386306
        26        27        31     1      122.031433      518.386306
        27        28        29     1      103.755836      480.303038
        27        31        30     1      103.755836      480.303038
        28        27        31     1      115.073631      212.160613
        28        29        30     1      108.709312      295.765661
        28        29        51     1      120.742882      391.074016
        29        30        31     1      108.709312      295.765661
        29        30        52     1      130.286758      343.611766
        30        29        51     1      130.286758      343.611766
        31        30        52     1      120.742882      391.074016
        32         1        33     1      108.389893      359.969498
        32         1        34     1      108.389893      359.969498
        33         1        34     1      108.389893      359.969498
        36         5        37     1      108.389893      359.969498
        36         5        38     1      108.389893      359.969498
        37         5        38     1      108.389893      359.969498
        39        10        40     1      107.788414      347.454335
        42        12        43     1      107.816490      348.007916
        44        14        45     1      107.816490      348.007948
        47        16        48     1      107.788414      347.454335

[ dihedrals ] ; propers for gromacs 4.5 or higher, use funct 9
;       ai        aj        ak        al funct           phase               k        pn
         1         2         3         4     9        0.000000        0.256556         1
         1         2         3         4     9      180.000000       13.179428         2
         1         2         3         4     9        0.000000       -0.097633         3
         1         2         3         4     9      180.000000       -0.317869         4
         1         2         3        35     9        0.000000       -0.223957         1
         1         2         3        35     9      180.000000       11.375068         2
         1         2         3        35     9        0.000000       -0.534831         3
         1         2         3        35     9      180.000000        0.134009         4
         1         2         8         7     9        0.000000       -0.024262         1
         1         2         8         7     9      180.000000       17.595210         2
         1         2         8         7     9        0.000000        0.133711         3
         1         2         8         7     9      180.000000       -0.526295         4
         2         3         4         5     9        0.000000        0.256556         1
         2         3         4         5     9      180.000000       13.179428         2
         2         3         4         5     9        0.000000       -0.097633         3
         2         3         4         5     9      180.000000       -0.317869         4
         2         3         4         6     9        0.000000       -0.062248         1
         2         3         4         6     9      180.000000       14.568157         2
         2         3         4         6     9        0.000000       -0.276619         3
         2         3         4         6     9      180.000000       -0.509287         4
         2         8         7         6     9        0.000000        0.513201         1
         2         8         7         6     9      180.000000        9.191428         2
         2         8         7         6     9        0.000000        0.738957         3
         2         8         7         6     9      180.000000       -0.519149         4
         2         8         7         9     9        0.000000        1.229502         1
         2         8         7         9     9      180.000000       16.103329         2
         2         8         7         9     9        0.000000        0.664456         3
         2         8         7         9     9      180.000000       -1.018199         4
         3         2         1        32     9        0.000000       -0.025287         1
         3         2         1        32     9      180.000000       -0.035803         2
         3         2         1        32     9        0.000000       -0.089579         3
         3         2         1        32     9      180.000000        0.005712         4
         3         2         1        33     9        0.000000       -0.025287         1
         3         2         1        33     9      180.000000       -0.035803         2
         3         2         1        33     9        0.000000       -0.089579         3
         3         2         1        33     9      180.000000        0.005712         4
         3         2         1        34     9        0.000000       -0.025287         1
         3         2         1        34     9      180.000000       -0.035803         2
         3         2         1        34     9        0.000000       -0.089579         3
         3         2         1        34     9      180.000000        0.005712         4
         3         2         8         7     9        0.000000       -0.379284         1
         3         2         8         7     9      180.000000       19.341467         2
         3         2         8         7     9        0.000000       -1.106329         3
         3         2         8         7     9      180.000000       -0.500796         4
         3         4         5        36     9        0.000000       -0.025287         1
         3         4         5        36     9      180.000000       -0.035803         2
         3         4         5        36     9        0.000000       -0.089579         3
         3         4         5        36     9      180.000000        0.005712         4
         3         4         5        37     9        0.000000       -0.025287         1
         3         4         5        37     9      180.000000       -0.035803         2
         3         4         5        37     9        0.000000       -0.089579         3
         3         4         5        37     9      180.000000        0.005712         4
         3         4         5        38     9        0.000000       -0.025287         1
         3         4         5        38     9      180.000000       -0.035803         2
         3         4         5        38     9        0.000000       -0.089579         3
         3         4         5        38     9      180.000000        0.005712         4
         3         4         6         7     9        0.000000       -0.379284         1
         3         4         6         7     9      180.000000       19.341467         2
         3         4         6         7     9        0.000000       -1.106329         3
         3         4         6         7     9      180.000000       -0.500796         4
         4         3         2         8     9        0.000000       -0.062248         1
         4         3         2         8     9      180.000000       14.568157         2
         4         3         2         8     9        0.000000       -0.276619         3
         4         3         2         8     9      180.000000       -0.509287         4
         4         6         7         8     9        0.000000        0.513201         1
         4         6         7         8     9      180.000000        9.191428         2
         4         6         7         8     9        0.000000        0.738957         3
         4         6         7         8     9      180.000000       -0.519149         4
         4         6         7         9     9        0.000000        1.229502         1
         4         6         7         9     9      180.000000       16.103329         2
         4         6         7         9     9        0.000000        0.664456         3
         4         6         7         9     9      180.000000       -1.018199         4
         5         4         3        35     9        0.000000       -0.223957         1
         5         4         3        35     9      180.000000       11.375068         2
         5         4         3        35     9        0.000000       -0.534831         3
         5         4         3        35     9      180.000000        0.134009         4
         5         4         6         7     9        0.000000       -0.024262         1
         5         4         6         7     9      180.000000       17.595210         2
         5         4         6         7     9        0.000000        0.133711         3
         5         4         6         7     9      180.000000       -0.526295         4
         6         4         3        35     9        0.000000       -0.034010         1
         6         4         3        35     9      180.000000       12.223298         2
         6         4         3        35     9        0.000000       -0.267637         3
         6         4         3        35     9      180.000000       -0.072661         4
         6         4         5        36     9        0.000000        0.003881         1
         6         4         5        36     9      180.000000       -0.062736         2
         6         4         5        36     9        0.000000        0.023445         3
         6         4         5        36     9      180.000000       -0.007650         4
         6         4         5        37     9        0.000000        0.003881         1
         6         4         5        37     9      180.000000       -0.062736         2
         6         4         5        37     9        0.000000        0.023445         3
         6         4         5        37     9      180.000000       -0.007650         4
         6         4         5        38     9        0.000000        0.003881         1
         6         4         5        38     9      180.000000       -0.062736         2
         6         4         5        38     9        0.000000        0.023445         3
         6         4         5        38     9      180.000000       -0.007650         4
         6         7         9        10     9        0.000000        0.747629         1
         6         7         9        10     9      180.000000        9.366862         2
         6         7         9        10     9        0.000000       -0.095722         3
         6         7         9        10     9      180.000000       -1.018207         4
         6         7         9        16     9        0.000000        0.747628         1
         6         7         9        16     9      180.000000        9.366863         2
         6         7         9        16     9        0.000000       -0.095722         3
         6         7         9        16     9      180.000000       -1.018207         4
         7         9        10        11     9        0.000000       -3.777482         1
         7         9        10        11     9      180.000000       -0.445033         2
         7         9        10        11     9        0.000000        0.410579         3
         7         9        10        11     9      180.000000        0.178916         4
         7         9        10        39     9        0.000000       -0.010161         1
         7         9        10        39     9      180.000000       -0.080809         2
         7         9        10        39     9        0.000000        0.536714         3
         7         9        10        39     9      180.000000       -0.022063         4
         7         9        10        40     9        0.000000       -0.010161         1
         7         9        10        40     9      180.000000       -0.080811         2
         7         9        10        40     9        0.000000        0.536714         3
         7         9        10        40     9      180.000000       -0.022063         4
         7         9        16        15     9        0.000000       -3.777482         1
         7         9        16        15     9      180.000000       -0.445032         2
         7         9        16        15     9        0.000000        0.410579         3
         7         9        16        15     9      180.000000        0.178916         4
         7         9        16        47     9        0.000000       -0.010160         1
         7         9        16        47     9      180.000000       -0.080811         2
         7         9        16        47     9        0.000000        0.536714         3
         7         9        16        47     9      180.000000       -0.022063         4
         7         9        16        48     9        0.000000       -0.010160         1
         7         9        16        48     9      180.000000       -0.080811         2
         7         9        16        48     9        0.000000        0.536714         3
         7         9        16        48     9      180.000000       -0.022063         4
         8         2         1        32     9        0.000000        0.003881         1
         8         2         1        32     9      180.000000       -0.062736         2
         8         2         1        32     9        0.000000        0.023445         3
         8         2         1        32     9      180.000000       -0.007650         4
         8         2         1        33     9        0.000000        0.003881         1
         8         2         1        33     9      180.000000       -0.062736         2
         8         2         1        33     9        0.000000        0.023445         3
         8         2         1        33     9      180.000000       -0.007650         4
         8         2         1        34     9        0.000000        0.003881         1
         8         2         1        34     9      180.000000       -0.062736         2
         8         2         1        34     9        0.000000        0.023445         3
         8         2         1        34     9      180.000000       -0.007650         4
         8         2         3        35     9        0.000000       -0.034010         1
         8         2         3        35     9      180.000000       12.223298         2
         8         2         3        35     9        0.000000       -0.267637         3
         8         2         3        35     9      180.000000       -0.072661         4
         8         7         9        10     9        0.000000        0.747629         1
         8         7         9        10     9      180.000000        9.366862         2
         8         7         9        10     9        0.000000       -0.095722         3
         8         7         9        10     9      180.000000       -1.018207         4
         8         7         9        16     9        0.000000        0.747628         1
         8         7         9        16     9      180.000000        9.366863         2
         8         7         9        16     9        0.000000       -0.095722         3
         8         7         9        16     9      180.000000       -1.018207         4
         9        10        11        12     9        0.000000        0.141091         1
         9        10        11        12     9      180.000000       -1.554592         2
         9        10        11        12     9        0.000000        0.129275         3
         9        10        11        12     9      180.000000        0.187854         4
         9        10        11        15     9        0.000000       -3.183876         1
         9        10        11        15     9      180.000000       11.770762         2
         9        10        11        15     9        0.000000       -0.669596         3
         9        10        11        15     9      180.000000       -2.371235         4
         9        10        11        41     9        0.000000        3.046270         1
         9        10        11        41     9      180.000000       -0.789547         2
         9        10        11        41     9        0.000000       -0.188589         3
         9        10        11        41     9      180.000000        0.438256         4
         9        16        15        11     9        0.000000       -3.183875         1
         9        16        15        11     9      180.000000       11.770769         2
         9        16        15        11     9        0.000000       -0.669596         3
         9        16        15        11     9      180.000000       -2.371236         4
         9        16        15        14     9        0.000000        0.141092         1
         9        16        15        14     9      180.000000       -1.554592         2
         9        16        15        14     9        0.000000        0.129275         3
         9        16        15        14     9      180.000000        0.187854         4
         9        16        15        46     9        0.000000        3.046268         1
         9        16        15        46     9      180.000000       -0.789546         2
         9        16        15        46     9        0.000000       -0.188588         3
         9        16        15        46     9      180.000000        0.438255         4
        10         9        16        15     9        0.000000       -0.515520         1
        10         9        16        15     9      180.000000        0.695785         2
        10         9        16        15     9        0.000000        0.374724         3
        10         9        16        15     9      180.000000       -0.306280         4
        10         9        16        47     9        0.000000       -0.040238         1
        10         9        16        47     9      180.000000       -0.063463         2
        10         9        16        47     9        0.000000        0.343610         3
        10         9        16        47     9      180.000000        0.107466         4
        10         9        16        48     9        0.000000       -0.040238         1
        10         9        16        48     9      180.000000       -0.063463         2
        10         9        16        48     9        0.000000        0.343610         3
        10         9        16        48     9      180.000000        0.107466         4
        10        11        12        13     9        0.000000       -0.410988         1
        10        11        12        13     9      180.000000       -1.385797         2
        10        11        12        13     9        0.000000        0.136984         3
        10        11        12        13     9      180.000000        0.093039         4
        10        11        12        42     9        0.000000       -0.090271         1
        10        11        12        42     9      180.000000        0.043314         2
        10        11        12        42     9        0.000000        0.181102         3
        10        11        12        42     9      180.000000        0.056845         4
        10        11        12        43     9        0.000000       -0.090271         1
        10        11        12        43     9      180.000000        0.043314         2
        10        11        12        43     9        0.000000        0.181102         3
        10        11        12        43     9      180.000000        0.056845         4
        10        11        15        14     9        0.000000       -1.429697         1
        10        11        15        14     9      180.000000       -0.955407         2
        10        11        15        14     9        0.000000        0.546147         3
        10        11        15        14     9      180.000000       -0.724521         4
        10        11        15        16     9        0.000000       -1.723216         1
        10        11        15        16     9      180.000000       -1.104300         2
        10        11        15        16     9        0.000000        0.465854         3
        10        11        15        16     9      180.000000       -0.749204         4
        10        11        15        46     9        0.000000        0.196400         1
        10        11        15        46     9      180.000000        0.124290         2
        10        11        15        46     9        0.000000        0.308843         3
        10        11        15        46     9      180.000000        0.285300         4
        11        10         9        16     9        0.000000       -0.515520         1
        11        10         9        16     9      180.000000        0.695787         2
        11        10         9        16     9        0.000000        0.374724         3
        11        10         9        16     9      180.000000       -0.306281         4
        11        12        13        14     9        0.000000       -0.115320         1
        11        12        13        14     9      180.000000       -0.195851         2
        11        12        13        14     9        0.000000        0.225772         3
        11        12        13        14     9      180.000000       -0.049084         4
        11        12        13        17     9        0.000000       -0.981121         1
        11        12        13        17     9      180.000000       -0.733668         2
        11        12        13        17     9        0.000000        0.086064         3
        11        12        13        17     9      180.000000        0.172914         4
        11        15        14        13     9        0.000000       -2.854021         1
        11        15        14        13     9      180.000000        7.702166         2
        11        15        14        13     9        0.000000       -0.708712         3
        11        15        14        13     9      180.000000       -1.169470         4
        11        15        14        44     9        0.000000        0.022483         1
        11        15        14        44     9      180.000000       -0.185436         2
        11        15        14        44     9        0.000000       -0.302149         3
        11        15        14        44     9      180.000000        0.229395         4
        11        15        14        45     9        0.000000        0.022483         1
        11        15        14        45     9      180.000000       -0.185436         2
        11        15        14        45     9        0.000000       -0.302149         3
        11        15        14        45     9      180.000000        0.229395         4
        11        15        16        47     9        0.000000        0.005453         1
        11        15        16        47     9      180.000000       -0.187956         2
        11        15        16        47     9        0.000000       -0.253493         3
        11        15        16        47     9      180.000000        0.289446         4
        11        15        16        48     9        0.000000        0.005453         1
        11        15        16        48     9      180.000000       -0.187956         2
        11        15        16        48     9        0.000000       -0.253493         3
        11        15        16        48     9      180.000000        0.289446         4
        12        11        10        39     9        0.000000       -0.150868         1
        12        11        10        39     9      180.000000        0.072012         2
        12        11        10        39     9        0.000000        0.214875         3
        12        11        10        39     9      180.000000        0.045180         4
        12        11        10        40     9        0.000000       -0.150868         1
        12        11        10        40     9      180.000000        0.072012         2
        12        11        10        40     9        0.000000        0.214875         3
        12        11        10        40     9      180.000000        0.045179         4
        12        11        15        14     9        0.000000       -0.903494         1
        12        11        15        14     9      180.000000       -0.930898         2
        12        11        15        14     9        0.000000        0.568820         3
        12        11        15        14     9      180.000000       -0.686260         4
        12        11        15        16     9        0.000000       -1.429699         1
        12        11        15        16     9      180.000000       -0.955405         2
        12        11        15        16     9        0.000000        0.546147         3
        12        11        15        16     9      180.000000       -0.724522         4
        12        11        15        46     9        0.000000       -0.022164         1
        12        11        15        46     9      180.000000        0.142975         2
        12        11        15        46     9        0.000000        0.388150         3
        12        11        15        46     9      180.000000        0.197015         4
        12        13        14        15     9        0.000000       -0.115321         1
        12        13        14        15     9      180.000000       -0.195851         2
        12        13        14        15     9        0.000000        0.225772         3
        12        13        14        15     9      180.000000       -0.049084         4
        12        13        14        44     9        0.000000       -0.036132         1
        12        13        14        44     9      180.000000       -0.000356         2
        12        13        14        44     9        0.000000        0.119650         3
        12        13        14        44     9      180.000000        0.062908         4
        12        13        14        45     9        0.000000       -0.036132         1
        12        13        14        45     9      180.000000       -0.000356         2
        12        13        14        45     9        0.000000        0.119650         3
        12        13        14        45     9      180.000000        0.062908         4
        12        13        17        18     9        0.000000       -1.677592         1
        12        13        17        18     9      180.000000       13.645640         2
        12        13        17        18     9        0.000000       -1.074296         3
        12        13        17        18     9      180.000000       -0.229426         4
        12        13        17        19     9        0.000000        5.638853         1
        12        13        17        19     9      180.000000       11.910420         2
        12        13        17        19     9        0.000000        1.676948         3
        12        13        17        19     9      180.000000       -0.476650         4
        13        12        11        15     9        0.000000       -2.854020         1
        13        12        11        15     9      180.000000        7.702162         2
        13        12        11        15     9        0.000000       -0.708712         3
        13        12        11        15     9      180.000000       -1.169470         4
        13        12        11        41     9        0.000000        0.989397         1
        13        12        11        41     9      180.000000       -0.387239         2
        13        12        11        41     9        0.000000       -0.055241         3
        13        12        11        41     9      180.000000        0.255011         4
        13        14        15        16     9        0.000000       -0.410988         1
        13        14        15        16     9      180.000000       -1.385796         2
        13        14        15        16     9        0.000000        0.136984         3
        13        14        15        16     9      180.000000        0.093039         4
        13        14        15        46     9        0.000000        0.989397         1
        13        14        15        46     9      180.000000       -0.387239         2
        13        14        15        46     9        0.000000       -0.055240         3
        13        14        15        46     9      180.000000        0.255012         4
        13        17        19        20     9        0.000000        2.134399         1
        13        17        19        20     9      180.000000        3.621054         2
        13        17        19        20     9        0.000000        0.194744         3
        13        17        19        20     9      180.000000        0.084858         4
        13        17        19        26     9        0.000000       -0.541980         1
        13        17        19        26     9      180.000000        3.926942         2
        13        17        19        26     9        0.000000       -0.786281         3
        13        17        19        26     9      180.000000        0.142552         4
        14        13        12        42     9        0.000000       -0.036132         1
        14        13        12        42     9      180.000000       -0.000356         2
        14        13        12        42     9        0.000000        0.119649         3
        14        13        12        42     9      180.000000        0.062908         4
        14        13        12        43     9        0.000000       -0.036132         1
        14        13        12        43     9      180.000000       -0.000356         2
        14        13        12        43     9        0.000000        0.119649         3
        14        13        12        43     9      180.000000        0.062908         4
        14        13        17        18     9        0.000000       -1.677592         1
        14        13        17        18     9      180.000000       13.645638         2
        14        13        17        18     9        0.000000       -1.074296         3
        14        13        17        18     9      180.000000       -0.229426         4
        14        13        17        19     9        0.000000        5.638852         1
        14        13        17        19     9      180.000000       11.910420         2
        14        13        17        19     9        0.000000        1.676948         3
        14        13        17        19     9      180.000000       -0.476650         4
        14        15        11        41     9        0.000000       -0.022163         1
        14        15        11        41     9      180.000000        0.142975         2
        14        15        11        41     9        0.000000        0.388150         3
        14        15        11        41     9      180.000000        0.197014         4
        14        15        16        47     9        0.000000       -0.150868         1
        14        15        16        47     9      180.000000        0.072012         2
        14        15        16        47     9        0.000000        0.214875         3
        14        15        16        47     9      180.000000        0.045180         4
        14        15        16        48     9        0.000000       -0.150868         1
        14        15        16        48     9      180.000000        0.072012         2
        14        15        16        48     9        0.000000        0.214875         3
        14        15        16        48     9      180.000000        0.045180         4
        15        11        10        39     9        0.000000        0.005454         1
        15        11        10        39     9      180.000000       -0.187956         2
        15        11        10        39     9        0.000000       -0.253494         3
        15        11        10        39     9      180.000000        0.289446         4
        15        11        10        40     9        0.000000        0.005453         1
        15        11        10        40     9      180.000000       -0.187957         2
        15        11        10        40     9        0.000000       -0.253494         3
        15        11        10        40     9      180.000000        0.289446         4
        15        11        12        42     9        0.000000        0.022483         1
        15        11        12        42     9      180.000000       -0.185435         2
        15        11        12        42     9        0.000000       -0.302149         3
        15        11        12        42     9      180.000000        0.229395         4
        15        11        12        43     9        0.000000        0.022483         1
        15        11        12        43     9      180.000000       -0.185435         2
        15        11        12        43     9        0.000000       -0.302149         3
        15        11        12        43     9      180.000000        0.229395         4
        15        14        13        17     9        0.000000       -0.981120         1
        15        14        13        17     9      180.000000       -0.733669         2
        15        14        13        17     9        0.000000        0.086064         3
        15        14        13        17     9      180.000000        0.172914         4
        16         9        10        39     9        0.000000       -0.040238         1
        16         9        10        39     9      180.000000       -0.063462         2
        16         9        10        39     9        0.000000        0.343610         3
        16         9        10        39     9      180.000000        0.107466         4
        16         9        10        40     9        0.000000       -0.040238         1
        16         9        10        40     9      180.000000       -0.063463         2
        16         9        10        40     9        0.000000        0.343610         3
        16         9        10        40     9      180.000000        0.107465         4
        16        15        11        41     9        0.000000        0.196400         1
        16        15        11        41     9      180.000000        0.124289         2
        16        15        11        41     9        0.000000        0.308842         3
        16        15        11        41     9      180.000000        0.285300         4
        16        15        14        44     9        0.000000       -0.090272         1
        16        15        14        44     9      180.000000        0.043313         2
        16        15        14        44     9        0.000000        0.181102         3
        16        15        14        44     9      180.000000        0.056845         4
        16        15        14        45     9        0.000000       -0.090272         1
        16        15        14        45     9      180.000000        0.043313         2
        16        15        14        45     9        0.000000        0.181102         3
        16        15        14        45     9      180.000000        0.056845         4
        17        13        12        42     9        0.000000        0.041036         1
        17        13        12        42     9      180.000000        0.091265         2
        17        13        12        42     9        0.000000        0.097247         3
        17        13        12        42     9      180.000000       -0.008676         4
        17        13        12        43     9        0.000000        0.041036         1
        17        13        12        43     9      180.000000        0.091265         2
        17        13        12        43     9        0.000000        0.097247         3
        17        13        12        43     9      180.000000       -0.008676         4
        17        13        14        44     9        0.000000        0.041035         1
        17        13        14        44     9      180.000000        0.091264         2
        17        13        14        44     9        0.000000        0.097247         3
        17        13        14        44     9      180.000000       -0.008677         4
        17        13        14        45     9        0.000000        0.041035         1
        17        13        14        45     9      180.000000        0.091264         2
        17        13        14        45     9        0.000000        0.097247         3
        17        13        14        45     9      180.000000       -0.008677         4
        17        19        20        21     9        0.000000       -0.095423         1
        17        19        20        21     9      180.000000       15.566658         2
        17        19        20        21     9        0.000000       -0.288632         3
        17        19        20        21     9      180.000000       -0.568247         4
        17        19        20        49     9        0.000000        0.021983         1
        17        19        20        49     9      180.000000       12.517395         2
        17        19        20        49     9        0.000000       -0.374871         3
        17        19        20        49     9      180.000000        0.090214         4
        17        19        26        25     9        0.000000       -0.494680         1
        17        19        26        25     9      180.000000       10.974715         2
        17        19        26        25     9        0.000000       -0.371061         3
        17        19        26        25     9      180.000000       -0.222532         4
        17        19        26        27     9        0.000000       -0.099549         1
        17        19        26        27     9      180.000000       15.335363         2
        17        19        26        27     9        0.000000        0.459157         3
        17        19        26        27     9      180.000000       -0.894011         4
        18        17        19        20     9        0.000000        0.762249         1
        18        17        19        20     9      180.000000        1.452459         2
        18        17        19        20     9        0.000000        0.492564         3
        18        17        19        20     9      180.000000        0.043520         4
        18        17        19        26     9        0.000000       -6.630231         1
        18        17        19        26     9      180.000000        1.485352         2
        18        17        19        26     9        0.000000        0.085530         3
        18        17        19        26     9      180.000000       -0.103100         4
        19        20        21        22     9        0.000000        0.500639         1
        19        20        21        22     9      180.000000       21.754798         2
        19        20        21        22     9        0.000000        0.013112         3
        19        20        21        22     9      180.000000       -0.608801         4
        19        20        21        23     9        0.000000       -0.123223         1
        19        20        21        23     9      180.000000       17.181281         2
        19        20        21        23     9        0.000000       -1.572678         3
        19        20        21        23     9      180.000000       -0.393106         4
        19        26        25        23     9        0.000000       -0.405003         1
        19        26        25        23     9      180.000000       16.694297         2
        19        26        25        23     9        0.000000       -1.640122         3
        19        26        25        23     9      180.000000       -0.123978         4
        19        26        25        50     9        0.000000        0.253383         1
        19        26        25        50     9      180.000000       13.324533         2
        19        26        25        50     9        0.000000       -0.610935         3
        19        26        25        50     9      180.000000        0.195815         4
        19        26        27        28     9        0.000000       -0.631943         1
        19        26        27        28     9      180.000000        3.678678         2
        19        26        27        28     9        0.000000        0.170148         3
        19        26        27        28     9      180.000000       -0.113635         4
        19        26        27        31     9        0.000000       -0.631943         1
        19        26        27        31     9      180.000000        3.678678         2
        19        26        27        31     9        0.000000        0.170148         3
        19        26        27        31     9      180.000000       -0.113635         4
        20        19        26        25     9        0.000000        0.019087         1
        20        19        26        25     9      180.000000       16.202782         2
        20        19        26        25     9        0.000000       -1.275840         3
        20        19        26        25     9      180.000000       -0.265534         4
        20        19        26        27     9        0.000000        0.072013         1
        20        19        26        27     9      180.000000       17.113822         2
        20        19        26        27     9        0.000000       -0.054263         3
        20        19        26        27     9      180.000000       -0.560881         4
        20        21        23        24     9        0.000000        0.234529         1
        20        21        23        24     9      180.000000       18.772892         2
        20        21        23        24     9        0.000000        0.253091         3
        20        21        23        24     9      180.000000       -0.476803         4
        20        21        23        25     9        0.000000       -0.087187         1
        20        21        23        25     9      180.000000       15.428744         2
        20        21        23        25     9        0.000000       -0.776573         3
        20        21        23        25     9      180.000000       -0.348709         4
        21        20        19        26     9        0.000000       -0.210662         1
        21        20        19        26     9      180.000000       18.320869         2
        21        20        19        26     9        0.000000       -1.566983         3
        21        20        19        26     9      180.000000       -0.392658         4
        21        23        25        26     9        0.000000       -0.253831         1
        21        23        25        26     9      180.000000       17.273035         2
        21        23        25        26     9        0.000000       -1.585359         3
        21        23        25        26     9      180.000000       -0.372480         4
        21        23        25        50     9        0.000000        0.230897         1
        21        23        25        50     9      180.000000       12.840735         2
        21        23        25        50     9        0.000000       -0.458564         3
        21        23        25        50     9      180.000000        0.139731         4
        22        21        20        49     9        0.000000        0.296045         1
        22        21        20        49     9      180.000000       15.788715         2
        22        21        20        49     9        0.000000        0.239713         3
        22        21        20        49     9      180.000000        0.081084         4
        22        21        23        24     9        0.000000        0.063124         1
        22        21        23        24     9      180.000000       22.856182         2
        22        21        23        24     9        0.000000        0.890712         3
        22        21        23        24     9      180.000000       -1.100580         4
        22        21        23        25     9        0.000000        0.306162         1
        22        21        23        25     9      180.000000       19.555107         2
        22        21        23        25     9        0.000000        0.258652         3
        22        21        23        25     9      180.000000       -0.597200         4
        23        21        20        49     9        0.000000        0.241475         1
        23        21        20        49     9      180.000000       13.082983         2
        23        21        20        49     9        0.000000       -0.538472         3
        23        21        20        49     9      180.000000        0.103968         4
        23        25        26        27     9        0.000000        0.219683         1
        23        25        26        27     9      180.000000       18.849439         2
        23        25        26        27     9        0.000000        0.158263         3
        23        25        26        27     9      180.000000       -0.578625         4
        24        23        25        26     9        0.000000        0.283383         1
        24        23        25        26     9      180.000000       21.999535         2
        24        23        25        26     9        0.000000        0.354402         3
        24        23        25        26     9      180.000000       -0.579465         4
        24        23        25        50     9        0.000000        0.426603         1
        24        23        25        50     9      180.000000       16.048741         2
        24        23        25        50     9        0.000000        0.239934         3
        24        23        25        50     9      180.000000        0.084532         4
        25        26        27        28     9        0.000000        0.647366         1
        25        26        27        28     9      180.000000        3.216181         2
        25        26        27        28     9        0.000000       -0.337418         3
        25        26        27        28     9      180.000000        0.082806         4
        25        26        27        31     9        0.000000        0.647366         1
        25        26        27        31     9      180.000000        3.216181         2
        25        26        27        31     9        0.000000       -0.337418         3
        25        26        27        31     9      180.000000        0.082806         4
        26        19        20        49     9        0.000000        0.393899         1
        26        19        20        49     9      180.000000       14.067420         2
        26        19        20        49     9        0.000000       -0.282745         3
        26        19        20        49     9      180.000000        0.026719         4
        26        27        28        29     9        0.000000        0.724703         1
        26        27        28        29     9      180.000000       13.992199         2
        26        27        28        29     9        0.000000        0.413081         3
        26        27        28        29     9      180.000000       -0.127392         4
        26        27        31        30     9        0.000000        0.724703         1
        26        27        31        30     9      180.000000       13.992199         2
        26        27        31        30     9        0.000000        0.413081         3
        26        27        31        30     9      180.000000       -0.127392         4
        27        26        25        50     9        0.000000        0.162224         1
        27        26        25        50     9      180.000000       14.317753         2
        27        26        25        50     9        0.000000       -0.060256         3
        27        26        25        50     9      180.000000        0.199458         4
        27        28        29        30     9        0.000000       -0.103981         1
        27        28        29        30     9      180.000000       41.219704         2
        27        28        29        30     9        0.000000       -5.879787         3
        27        28        29        30     9      180.000000       -0.015646         4
        27        28        29        51     9        0.000000        1.251943         1
        27        28        29        51     9      180.000000       26.606771         2
        27        28        29        51     9        0.000000       -0.096585         3
        27        28        29        51     9      180.000000       -0.131034         4
        27        31        30        29     9        0.000000       -0.103981         1
        27        31        30        29     9      180.000000       41.219704         2
        27        31        30        29     9        0.000000       -5.879787         3
        27        31        30        29     9      180.000000       -0.015646         4
        27        31        30        52     9        0.000000        1.251943         1
        27        31        30        52     9      180.000000       26.606771         2
        27        31        30        52     9        0.000000       -0.096585         3
        27        31        30        52     9      180.000000       -0.131034         4
        28        27        31        30     9        0.000000       -0.199958         1
        28        27        31        30     9      180.000000       33.355577         2
        28        27        31        30     9        0.000000       -5.667524         3
        28        27        31        30     9      180.000000        0.114430         4
        28        29        30        31     9        0.000000       -0.646396         1
        28        29        30        31     9      180.000000       33.879564         2
        28        29        30        31     9        0.000000       -7.997882         3
        28        29        30        31     9      180.000000       -0.068922         4
        28        29        30        52     9        0.000000        0.399471         1
        28        29        30        52     9      180.000000       15.777787         2
        28        29        30        52     9        0.000000       -0.622625         3
        28        29        30        52     9      180.000000       -0.473181         4
        29        28        27        31     9        0.000000       -0.199958         1
        29        28        27        31     9      180.000000       33.355577         2
        29        28        27        31     9        0.000000       -5.667524         3
        29        28        27        31     9      180.000000        0.114430         4
        31        30        29        51     9        0.000000        0.399471         1
        31        30        29        51     9      180.000000       15.777787         2
        31        30        29        51     9        0.000000       -0.622625         3
        31        30        29        51     9      180.000000       -0.473181         4
        39        10        11        41     9        0.000000       -0.140740         1
        39        10        11        41     9      180.000000       -0.009946         2
        39        10        11        41     9        0.000000        0.295617         3
        39        10        11        41     9      180.000000       -0.018107         4
        40        10        11        41     9        0.000000       -0.140741         1
        40        10        11        41     9      180.000000       -0.009948         2
        40        10        11        41     9        0.000000        0.295617         3
        40        10        11        41     9      180.000000       -0.018107         4
        41        11        12        42     9        0.000000       -0.086595         1
        41        11        12        42     9      180.000000        0.026399         2
        41        11        12        42     9        0.000000        0.269152         3
        41        11        12        42     9      180.000000       -0.020189         4
        41        11        12        43     9        0.000000       -0.086595         1
        41        11        12        43     9      180.000000        0.026399         2
        41        11        12        43     9        0.000000        0.269152         3
        41        11        12        43     9      180.000000       -0.020189         4
        41        11        15        46     9        0.000000        0.223574         1
        41        11        15        46     9      180.000000       -0.077956         2
        41        11        15        46     9        0.000000        0.353694         3
        41        11        15        46     9      180.000000       -0.057173         4
        44        14        15        46     9        0.000000       -0.086595         1
        44        14        15        46     9      180.000000        0.026398         2
        44        14        15        46     9        0.000000        0.269152         3
        44        14        15        46     9      180.000000       -0.020189         4
        45        14        15        46     9        0.000000       -0.086595         1
        45        14        15        46     9      180.000000        0.026398         2
        45        14        15        46     9        0.000000        0.269152         3
        45        14        15        46     9      180.000000       -0.020189         4
        46        15        16        47     9        0.000000       -0.140741         1
        46        15        16        47     9      180.000000       -0.009947         2
        46        15        16        47     9        0.000000        0.295617         3
        46        15        16        47     9      180.000000       -0.018107         4
        46        15        16        48     9        0.000000       -0.140741         1
        46        15        16        48     9      180.000000       -0.009947         2
        46        15        16        48     9        0.000000        0.295617         3
        46        15        16        48     9      180.000000       -0.018107         4
        51        29        30        52     9        0.000000       -0.304766         1
        51        29        30        52     9      180.000000        8.321253         2
        51        29        30        52     9        0.000000       -0.141498         3
        51        29        30        52     9      180.000000        0.273252         4

[ dihedrals ] ; impropers
;       ai        aj        ak        al funct           phase               k        pn
         2         1         3         8     4      180.000000       21.793920         2
         2         3         8         1     4      180.000000       21.793920         2
         2         8         1         3     4      180.000000       21.793920         2
         4         3         5         6     4      180.000000       21.793920         2
         4         5         6         3     4      180.000000       21.793920         2
         4         6         3         5     4      180.000000       21.793920         2
         7         6         8         9     4      180.000000       27.893333         2
         7         8         9         6     4      180.000000       27.893333         2
         7         9         6         8     4      180.000000       27.893333         2
        20        19        21        49     4      180.000000        0.091292         2
        20        21        49        19     4      180.000000        0.091292         2
        20        49        19        21     4      180.000000        0.091292         2
        25        23        26        50     4      180.000000        0.510493         2
        25        26        50        23     4      180.000000        0.510493         2
        25        50        23        26     4      180.000000        0.510493         2

[ pairs ]
;       ai        aj funct
         1         4     1
         1         7     1
         1        35     1
         2         5     1
         2         6     1
         2         9     1
         3         7     1
         3        32     1
         3        33     1
         3        34     1
         3        36     1
         3        37     1
         3        38     1
         4         8     1
         4         9     1
         5         7     1
         5        35     1
         6        10     1
         6        16     1
         6        35     1
         6        36     1
         6        37     1
         6        38     1
         7        11     1
         7        15     1
         7        39     1
         7        40     1
         7        47     1
         7        48     1
         8        10     1
         8        16     1
         8        32     1
         8        33     1
         8        34     1
         8        35     1
         9        12     1
         9        14     1
         9        41     1
         9        46     1
        10        13     1
        10        14     1
        10        42     1
        10        43     1
        10        46     1
        10        47     1
        10        48     1
        11        17     1
        11        44     1
        11        45     1
        11        47     1
        11        48     1
        12        16     1
        12        18     1
        12        19     1
        12        39     1
        12        40     1
        12        44     1
        12        45     1
        12        46     1
        13        16     1
        13        20     1
        13        26     1
        13        41     1
        13        46     1
        14        18     1
        14        19     1
        14        41     1
        14        42     1
        14        43     1
        14        47     1
        14        48     1
        15        17     1
        15        39     1
        15        40     1
        15        42     1
        15        43     1
        16        39     1
        16        40     1
        16        41     1
        16        44     1
        16        45     1
        17        21     1
        17        25     1
        17        27     1
        17        42     1
        17        43     1
        17        44     1
        17        45     1
        17        49     1
        18        20     1
        18        26     1
        19        22     1
        19        23     1
        19        28     1
        19        31     1
        19        50     1
        20        24     1
        20        25     1
        20        27     1
        21        26     1
        21        50     1
        22        24     1
        22        25     1
        22        49     1
        23        27     1
        23        49     1
        24        26     1
        24        50     1
        25        28     1
        25        31     1
        26        29     1
        26        30     1
        26        49     1
        27        50     1
        27        51     1
        27        52     1
        28        52     1
        31        51     1
        39        41     1
        40        41     1
        41        42     1
        41        43     1
        41        46     1
        44        46     1
        45        46     1
        46        47     1
        46        48     1
        51        52     1
