; ITP file created by ByteFF-ML, 2025-12-06 04:41:02.645202

[ atomtypes ]
;name           bonded.type        at.num        mass        charge   ptype           sigma         epsilon
 c0bf                                   6      0.0000       0.00000       A     3.39836e-01     4.51158e-01
 c1bf                                   6      0.0000       0.00000       A     3.31255e-01     4.12471e-01
 n2bf                                   7      0.0000       0.00000       A     3.38265e-01     3.93607e-01
 c3bf                                   6      0.0000       0.00000       A     3.31505e-01     4.11732e-01
 n4bf                                   7      0.0000       0.00000       A     3.38364e-01     3.95292e-01
 c5bf                                   6      0.0000       0.00000       A     3.31271e-01     4.12879e-01
 c6bf                                   6      0.0000       0.00000       A     3.31402e-01     4.14129e-01
 f7bf                                   9      0.0000       0.00000       A     3.03444e-01     3.49060e-01
 n8bf                                   7      0.0000       0.00000       A     3.19420e-01     8.94129e-01
 c9bf                                   6      0.0000       0.00000       A     3.39585e-01     4.49212e-01
 c10bf                                  6      0.0000       0.00000       A     3.39712e-01     4.49806e-01
 c11bf                                  6      0.0000       0.00000       A     3.39727e-01     4.50797e-01
 n12bf                                  7      0.0000       0.00000       A     3.18172e-01     6.81534e-01
 c13bf                                  6      0.0000       0.00000       A     3.39727e-01     4.50797e-01
 c14bf                                  6      0.0000       0.00000       A     3.39712e-01     4.49806e-01
 c15bf                                  6      0.0000       0.00000       A     3.39585e-01     4.49212e-01
 c16bf                                  6      0.0000       0.00000       A     3.31327e-01     4.13248e-01
 o17bf                                  8      0.0000       0.00000       A     3.04514e-01     6.13792e-01
 c18bf                                  6      0.0000       0.00000       A     3.31273e-01     4.13283e-01
 c19bf                                  6      0.0000       0.00000       A     3.31521e-01     4.13918e-01
 f20bf                                  9      0.0000       0.00000       A     3.03540e-01     3.48621e-01
 c21bf                                  6      0.0000       0.00000       A     3.31463e-01     4.12493e-01
 c22bf                                  6      0.0000       0.00000       A     3.31469e-01     4.12700e-01
 c23bf                                  6      0.0000       0.00000       A     3.31436e-01     4.11484e-01
 c24bf                                  6      0.0000       0.00000       A     3.31571e-01     4.13495e-01
 n25bf                                  7      0.0000       0.00000       A     3.20910e-01     8.46558e-01
 n26bf                                  7      0.0000       0.00000       A     3.38251e-01     3.94826e-01
 c27bf                                  6      0.0000       0.00000       A     3.31301e-01     4.12308e-01
 c28bf                                  6      0.0000       0.00000       A     3.31301e-01     4.12308e-01
 n29bf                                  7      0.0000       0.00000       A     3.38251e-01     3.94826e-01
 h30bf                                  1      0.0000       0.00000       A     2.59947e-01     8.71725e-02
 h31bf                                  1      0.0000       0.00000       A     2.59947e-01     8.71725e-02
 h32bf                                  1      0.0000       0.00000       A     2.59947e-01     8.71725e-02
 h33bf                                  1      0.0000       0.00000       A     2.53678e-01     6.79143e-02
 h34bf                                  1      0.0000       0.00000       A     2.42127e-01     8.72842e-02
 h35bf                                  1      0.0000       0.00000       A     2.42127e-01     8.72842e-02
 h36bf                                  1      0.0000       0.00000       A     2.60149e-01     8.67575e-02
 h37bf                                  1      0.0000       0.00000       A     2.42171e-01     8.72571e-02
 h38bf                                  1      0.0000       0.00000       A     2.42171e-01     8.72571e-02
 h39bf                                  1      0.0000       0.00000       A     2.42171e-01     8.72571e-02
 h40bf                                  1      0.0000       0.00000       A     2.42171e-01     8.72571e-02
 h41bf                                  1      0.0000       0.00000       A     2.60149e-01     8.67575e-02
 h42bf                                  1      0.0000       0.00000       A     2.42127e-01     8.72842e-02
 h43bf                                  1      0.0000       0.00000       A     2.42127e-01     8.72842e-02
 h44bf                                  1      0.0000       0.00000       A     2.62509e-01     6.72536e-02
 h45bf                                  1      0.0000       0.00000       A     2.62495e-01     6.71945e-02
 h46bf                                  1      0.0000       0.00000       A     2.62555e-01     6.79734e-02
 h47bf                                  1      0.0000       0.00000       A     2.53897e-01     6.74946e-02
 h48bf                                  1      0.0000       0.00000       A     2.53896e-01     6.74946e-02

[ moleculetype ]
;name             nrexcl
 set_1_12              3

[ atoms ]
;       nr            type      resi   res      atom      cgnr      charge          mass ; qtot
         1            c0bf         1   UNL        c0         1    -0.14707       12.0110 ; qtot   -0.147
         2            c1bf         1   UNL        c1         2     0.15021       12.0110 ; qtot    0.003
         3            n2bf         1   UNL        n2         3    -0.22617       14.0070 ; qtot   -0.223
         4            c3bf         1   UNL        c3         4     0.37419       12.0110 ; qtot    0.151
         5            n4bf         1   UNL        n4         5    -0.22153       14.0070 ; qtot   -0.070
         6            c5bf         1   UNL        c5         6     0.12616       12.0110 ; qtot    0.056
         7            c6bf         1   UNL        c6         7    -0.01035       12.0110 ; qtot    0.045
         8            f7bf         1   UNL        f7         8    -0.16945       18.9980 ; qtot   -0.124
         9            n8bf         1   UNL        n8         9    -0.78112       14.0070 ; qtot   -0.905
        10            c9bf         1   UNL        c9        10     0.23699       12.0110 ; qtot   -0.668
        11           c10bf         1   UNL       c10        11    -0.10223       12.0110 ; qtot   -0.770
        12           c11bf         1   UNL       c11        12     0.11230       12.0110 ; qtot   -0.658
        13           n12bf         1   UNL       n12        13    -0.41240       14.0070 ; qtot   -1.070
        14           c13bf         1   UNL       c13        14     0.11230       12.0110 ; qtot   -0.958
        15           c14bf         1   UNL       c14        15    -0.10223       12.0110 ; qtot   -1.060
        16           c15bf         1   UNL       c15        16     0.23699       12.0110 ; qtot   -0.823
        17           c16bf         1   UNL       c16        17     0.64532       12.0110 ; qtot   -0.178
        18           o17bf         1   UNL       o17        18    -0.58742       15.9990 ; qtot   -0.766
        19           c18bf         1   UNL       c18        19    -0.15190       12.0110 ; qtot   -0.917
        20           c19bf         1   UNL       c19        20     0.19456       12.0110 ; qtot   -0.723
        21           f20bf         1   UNL       f20        21    -0.16798       18.9980 ; qtot   -0.891
        22           c21bf         1   UNL       c21        22    -0.14840       12.0110 ; qtot   -1.039
        23           c22bf         1   UNL       c22        23    -0.06562       12.0110 ; qtot   -1.105
        24           c23bf         1   UNL       c23        24    -0.10373       12.0110 ; qtot   -1.209
        25           c24bf         1   UNL       c24        25     0.06898       12.0110 ; qtot   -1.140
        26           n25bf         1   UNL       n25        26     0.31512       14.0070 ; qtot   -0.824
        27           n26bf         1   UNL       n26        27    -0.47882       14.0070 ; qtot   -1.303
        28           c27bf         1   UNL       c27        28     0.20629       12.0110 ; qtot   -1.097
        29           c28bf         1   UNL       c28        29     0.20629       12.0110 ; qtot   -0.891
        30           n29bf         1   UNL       n29        30    -0.47882       14.0070 ; qtot   -1.370
        31           h30bf         1   UNL       h30        31     0.06283        1.0080 ; qtot   -1.307
        32           h31bf         1   UNL       h31        32     0.06283        1.0080 ; qtot   -1.244
        33           h32bf         1   UNL       h32        33     0.06283        1.0080 ; qtot   -1.181
        34           h33bf         1   UNL       h33        34     0.04101        1.0080 ; qtot   -1.140
        35           h34bf         1   UNL       h34        35     0.05798        1.0080 ; qtot   -1.082
        36           h35bf         1   UNL       h35        36     0.05798        1.0080 ; qtot   -1.024
        37           h36bf         1   UNL       h36        37     0.07208        1.0080 ; qtot   -0.952
        38           h37bf         1   UNL       h37        38     0.06015        1.0080 ; qtot   -0.892
        39           h38bf         1   UNL       h38        39     0.06015        1.0080 ; qtot   -0.832
        40           h39bf         1   UNL       h39        40     0.06015        1.0080 ; qtot   -0.772
        41           h40bf         1   UNL       h40        41     0.06015        1.0080 ; qtot   -0.711
        42           h41bf         1   UNL       h41        42     0.07208        1.0080 ; qtot   -0.639
        43           h42bf         1   UNL       h42        43     0.05798        1.0080 ; qtot   -0.581
        44           h43bf         1   UNL       h43        44     0.05798        1.0080 ; qtot   -0.523
        45           h44bf         1   UNL       h44        45     0.14181        1.0080 ; qtot   -0.382
        46           h45bf         1   UNL       h45        46     0.12690        1.0080 ; qtot   -0.255
        47           h46bf         1   UNL       h46        47     0.14214        1.0080 ; qtot   -0.113
        48           h47bf         1   UNL       h47        48     0.05626        1.0080 ; qtot   -0.056
        49           h48bf         1   UNL       h48        49     0.05625        1.0080 ; qtot   -0.000

[ bonds ]
;       ai        aj funct               r               k
         1         2     1        0.150287   210121.353369
         1        31     1        0.109313   307072.452832
         1        32     1        0.109313   307072.452832
         1        33     1        0.109313   307072.452832
         2         3     1        0.133555   341711.090137
         2         7     1        0.139741   276553.257715
         3         4     1        0.135214   251622.654688
         4         5     1        0.135126   254141.609619
         4         9     1        0.136085   323848.188574
         5         6     1        0.133430   351814.694238
         6         7     1        0.138658   306434.510303
         6        34     1        0.108817   315903.798145
         7         8     1        0.135897   291253.388281
         9        10     1        0.146901   180858.737256
         9        16     1        0.146901   180858.711719
        10        11     1        0.153334   175036.020947
        10        35     1        0.109481   294444.786377
        10        36     1        0.109481   294444.786377
        11        12     1        0.153427   175080.787500
        11        15     1        0.154277   149842.130322
        11        37     1        0.109325   303915.912891
        12        13     1        0.147261   177221.078174
        12        38     1        0.109385   298254.744336
        12        39     1        0.109385   298254.744336
        13        14     1        0.147261   177221.103711
        13        17     1        0.135519   319235.343896
        14        15     1        0.153427   175080.787500
        14        40     1        0.109385   298254.744336
        14        41     1        0.109385   298254.744336
        15        16     1        0.153334   175036.020947
        15        42     1        0.109325   303915.912891
        16        43     1        0.109481   294444.811914
        16        44     1        0.109481   294444.811914
        17        18     1        0.123360   594256.707031
        17        19     1        0.151390   177572.570947
        19        20     1        0.139458   293723.388574
        19        25     1        0.140413   276391.377979
        20        21     1        0.135748   284734.964502
        20        22     1        0.139016   308702.537598
        22        23     1        0.139696   310400.653223
        22        45     1        0.108455   325846.007715
        23        24     1        0.139473   319062.687500
        23        46     1        0.108533   323324.933203
        24        25     1        0.139859   295100.783643
        24        47     1        0.108380   327020.204004
        25        26     1        0.142246   231473.109277
        26        27     1        0.134040   244717.267090
        26        30     1        0.134040   244717.267090
        27        28     1        0.133423   350873.498535
        28        29     1        0.141148   279463.543311
        28        48     1        0.108128   339085.415625
        29        30     1        0.133423   350873.498535
        29        49     1        0.108128   339085.415625

[ angles ]
;       ai        aj        ak funct           theta             cth
         1         2         3     1      118.790565      436.627686
         1         2         7     1      121.767784      414.077238
         2         1        31     1      110.362793      503.124308
         2         1        32     1      110.362793      503.124308
         2         1        33     1      110.362793      503.124308
         2         3         4     1      117.597557      969.654066
         2         7         6     1      119.216576      646.474797
         2         7         8     1      120.352921      515.513892
         3         2         7     1      119.391037      745.560633
         3         4         5     1      125.802856      594.283138
         3         4         9     1      116.903770      543.959391
         4         5         6     1      115.990211      956.960910
         4         9        10     1      122.751198      491.772393
         4         9        16     1      122.751198      491.772393
         5         4         9     1      117.245766      564.450176
         5         6         7     1      121.673691      756.665955
         5         6        34     1      117.569908      381.782913
         6         7         8     1      120.417480      539.770156
         7         6        34     1      120.689598      405.067746
         9        10        11     1      102.896164      518.893122
         9        10        35     1      110.657394      411.591551
         9        10        36     1      110.657394      411.591551
         9        16        15     1      102.896164      518.893122
         9        16        43     1      110.657394      411.591551
         9        16        44     1      110.657394      411.591551
        10         9        16     1      113.044533      338.359293
        10        11        12     1      115.967918      490.766039
        10        11        15     1      103.531944      553.400524
        10        11        37     1      110.411415      471.837231
        11        10        35     1      112.134521      456.886371
        11        10        36     1      112.134521      456.886371
        11        12        13     1      103.310646      531.297103
        11        12        38     1      112.216675      453.127085
        11        12        39     1      112.216675      453.127085
        11        15        14     1      103.849327      536.391532
        11        15        16     1      103.531944      553.400524
        11        15        42     1      111.068626      475.836438
        12        11        15     1      103.849327      536.391532
        12        11        37     1      110.495773      465.529246
        12        13        14     1      111.682663      397.236312
        12        13        17     1      123.751732      462.075033
        13        12        38     1      110.410095      437.420741
        13        12        39     1      110.410095      437.420741
        13        14        15     1      103.310646      531.297103
        13        14        40     1      110.410095      437.420741
        13        14        41     1      110.410095      437.420741
        13        17        18     1      123.358742      631.986382
        13        17        19     1      116.499901      442.236497
        14        13        17     1      123.751732      462.075033
        14        15        16     1      115.967918      490.766039
        14        15        42     1      110.495773      465.529246
        15        11        37     1      111.068642      475.836438
        15        14        40     1      112.216675      453.127085
        15        14        41     1      112.216675      453.127085
        15        16        43     1      112.134521      456.886371
        15        16        44     1      112.134521      456.886371
        16        15        42     1      110.411415      471.837167
        17        19        20     1      120.170364      658.951909
        17        19        25     1      123.059631      563.306688
        18        17        19     1      119.672501      497.066650
        19        20        21     1      118.381653      447.457304
        19        20        22     1      123.063400      625.661925
        19        25        24     1      121.246506      661.938219
        19        25        26     1      119.852539      464.186441
        20        19        25     1      116.733643      734.512130
        20        22        23     1      118.224327      691.816126
        20        22        45     1      119.628578      419.195289
        21        20        22     1      118.309547      519.263729
        22        23        24     1      120.316055      729.245229
        22        23        46     1      119.748962      430.367360
        23        22        45     1      122.164230      418.572822
        23        24        25     1      119.566689      681.094243
        23        24        47     1      121.180099      420.410728
        24        23        46     1      119.884033      429.820259
        24        25        26     1      118.315903      543.668651
        25        24        47     1      119.153160      420.650809
        25        26        27     1      121.993149      521.996040
        25        26        30     1      121.993149      521.996040
        26        27        28     1      103.760353      480.370712
        26        30        29     1      103.760353      480.370712
        27        26        30     1      115.047997      210.842930
        27        28        29     1      108.709305      295.765693
        27        28        48     1      120.742874      391.073952
        28        29        30     1      108.709305      295.765693
        28        29        49     1      130.286743      343.611766
        29        28        48     1      130.286743      343.611766
        30        29        49     1      120.742874      391.073952
        31         1        32     1      108.574303      357.579735
        31         1        33     1      108.574303      357.579735
        32         1        33     1      108.574303      357.579735
        35        10        36     1      107.788414      347.454335
        38        12        39     1      107.816490      348.007916
        40        14        41     1      107.816490      348.007948
        43        16        44     1      107.788414      347.454367

[ dihedrals ] ; propers for gromacs 4.5 or higher, use funct 9
;       ai        aj        ak        al funct           phase               k        pn
         1         2         3         4     9        0.000000        0.009923         1
         1         2         3         4     9      180.000000       17.724003         2
         1         2         3         4     9        0.000000        0.260157         3
         1         2         3         4     9      180.000000       -0.524200         4
         1         2         7         6     9        0.000000        0.014556         1
         1         2         7         6     9      180.000000       11.348565         2
         1         2         7         6     9        0.000000       -0.116954         3
         1         2         7         6     9      180.000000       -0.167643         4
         1         2         7         8     9        0.000000        0.176329         1
         1         2         7         8     9      180.000000       16.989502         2
         1         2         7         8     9        0.000000        0.421222         3
         1         2         7         8     9      180.000000       -0.576893         4
         2         3         4         5     9        0.000000        0.375170         1
         2         3         4         5     9      180.000000        9.070663         2
         2         3         4         5     9        0.000000        0.767438         3
         2         3         4         5     9      180.000000       -0.405988         4
         2         3         4         9     9        0.000000        1.338337         1
         2         3         4         9     9      180.000000       16.035764         2
         2         3         4         9     9        0.000000        0.635915         3
         2         3         4         9     9      180.000000       -0.988729         4
         2         7         6         5     9        0.000000        0.130538         1
         2         7         6         5     9      180.000000       14.627803         2
         2         7         6         5     9        0.000000       -0.392036         3
         2         7         6         5     9      180.000000       -0.325708         4
         2         7         6        34     9        0.000000        0.307626         1
         2         7         6        34     9      180.000000       12.496384         2
         2         7         6        34     9        0.000000       -0.381034         3
         2         7         6        34     9      180.000000       -0.030184         4
         3         2         1        31     9        0.000000        0.016174         1
         3         2         1        31     9      180.000000       -0.025911         2
         3         2         1        31     9        0.000000       -0.042339         3
         3         2         1        31     9      180.000000       -0.013673         4
         3         2         1        32     9        0.000000        0.016174         1
         3         2         1        32     9      180.000000       -0.025911         2
         3         2         1        32     9        0.000000       -0.042339         3
         3         2         1        32     9      180.000000       -0.013673         4
         3         2         1        33     9        0.000000        0.016174         1
         3         2         1        33     9      180.000000       -0.025911         2
         3         2         1        33     9        0.000000       -0.042339         3
         3         2         1        33     9      180.000000       -0.013673         4
         3         2         7         6     9        0.000000        0.000386         1
         3         2         7         6     9      180.000000       12.804331         2
         3         2         7         6     9        0.000000       -0.108855         3
         3         2         7         6     9      180.000000       -0.338593         4
         3         2         7         8     9        0.000000        0.433181         1
         3         2         7         8     9      180.000000       19.913124         2
         3         2         7         8     9        0.000000        1.035493         3
         3         2         7         8     9      180.000000       -0.903410         4
         3         4         5         6     9        0.000000        0.373559         1
         3         4         5         6     9      180.000000       10.643950         2
         3         4         5         6     9        0.000000        0.768636         3
         3         4         5         6     9      180.000000       -0.378985         4
         3         4         9        10     9        0.000000        0.740883         1
         3         4         9        10     9      180.000000        9.003633         2
         3         4         9        10     9        0.000000       -0.074648         3
         3         4         9        10     9      180.000000       -0.966878         4
         3         4         9        16     9        0.000000        0.740882         1
         3         4         9        16     9      180.000000        9.003631         2
         3         4         9        16     9        0.000000       -0.074648         3
         3         4         9        16     9      180.000000       -0.966877         4
         4         3         2         7     9        0.000000       -0.444037         1
         4         3         2         7     9      180.000000       20.161235         2
         4         3         2         7     9        0.000000       -0.909663         3
         4         3         2         7     9      180.000000       -0.441780         4
         4         5         6         7     9        0.000000       -0.461972         1
         4         5         6         7     9      180.000000       20.268399         2
         4         5         6         7     9        0.000000       -1.153622         3
         4         5         6         7     9      180.000000       -0.419905         4
         4         5         6        34     9        0.000000        0.092938         1
         4         5         6        34     9      180.000000       17.106877         2
         4         5         6        34     9        0.000000       -0.154343         3
         4         5         6        34     9      180.000000       -0.245430         4
         4         9        10        11     9        0.000000       -3.331427         1
         4         9        10        11     9      180.000000       -0.499028         2
         4         9        10        11     9        0.000000        0.405983         3
         4         9        10        11     9      180.000000        0.214389         4
         4         9        10        35     9        0.000000       -0.017507         1
         4         9        10        35     9      180.000000       -0.095431         2
         4         9        10        35     9        0.000000        0.554499         3
         4         9        10        35     9      180.000000       -0.015473         4
         4         9        10        36     9        0.000000       -0.017507         1
         4         9        10        36     9      180.000000       -0.095431         2
         4         9        10        36     9        0.000000        0.554499         3
         4         9        10        36     9      180.000000       -0.015473         4
         4         9        16        15     9        0.000000       -3.331427         1
         4         9        16        15     9      180.000000       -0.499029         2
         4         9        16        15     9        0.000000        0.405984         3
         4         9        16        15     9      180.000000        0.214389         4
         4         9        16        43     9        0.000000       -0.017506         1
         4         9        16        43     9      180.000000       -0.095431         2
         4         9        16        43     9        0.000000        0.554500         3
         4         9        16        43     9      180.000000       -0.015473         4
         4         9        16        44     9        0.000000       -0.017506         1
         4         9        16        44     9      180.000000       -0.095431         2
         4         9        16        44     9        0.000000        0.554500         3
         4         9        16        44     9      180.000000       -0.015473         4
         5         4         9        10     9        0.000000        0.665213         1
         5         4         9        10     9      180.000000        8.966731         2
         5         4         9        10     9        0.000000       -0.142797         3
         5         4         9        10     9      180.000000       -0.939423         4
         5         4         9        16     9        0.000000        0.665213         1
         5         4         9        16     9      180.000000        8.966732         2
         5         4         9        16     9        0.000000       -0.142797         3
         5         4         9        16     9      180.000000       -0.939422         4
         5         6         7         8     9        0.000000        0.581710         1
         5         6         7         8     9      180.000000       20.639752         2
         5         6         7         8     9        0.000000        0.876003         3
         5         6         7         8     9      180.000000       -0.780255         4
         6         5         4         9     9        0.000000        1.051675         1
         6         5         4         9     9      180.000000       16.565551         2
         6         5         4         9     9        0.000000        0.660303         3
         6         5         4         9     9      180.000000       -0.806734         4
         7         2         1        31     9        0.000000       -0.034612         1
         7         2         1        31     9      180.000000       -0.043146         2
         7         2         1        31     9        0.000000       -0.172714         3
         7         2         1        31     9      180.000000       -0.002787         4
         7         2         1        32     9        0.000000       -0.034612         1
         7         2         1        32     9      180.000000       -0.043146         2
         7         2         1        32     9        0.000000       -0.172714         3
         7         2         1        32     9      180.000000       -0.002787         4
         7         2         1        33     9        0.000000       -0.034612         1
         7         2         1        33     9      180.000000       -0.043146         2
         7         2         1        33     9        0.000000       -0.172714         3
         7         2         1        33     9      180.000000       -0.002787         4
         8         7         6        34     9        0.000000        0.415074         1
         8         7         6        34     9      180.000000       15.626123         2
         8         7         6        34     9        0.000000        0.374850         3
         8         7         6        34     9      180.000000        0.064837         4
         9        10        11        12     9        0.000000        0.125825         1
         9        10        11        12     9      180.000000       -1.570472         2
         9        10        11        12     9        0.000000        0.127606         3
         9        10        11        12     9      180.000000        0.190323         4
         9        10        11        15     9        0.000000       -3.202014         1
         9        10        11        15     9      180.000000       11.750499         2
         9        10        11        15     9        0.000000       -0.669209         3
         9        10        11        15     9      180.000000       -2.372410         4
         9        10        11        37     9        0.000000        3.051091         1
         9        10        11        37     9      180.000000       -0.790160         2
         9        10        11        37     9        0.000000       -0.187614         3
         9        10        11        37     9      180.000000        0.436888         4
         9        16        15        11     9        0.000000       -3.202011         1
         9        16        15        11     9      180.000000       11.750501         2
         9        16        15        11     9        0.000000       -0.669209         3
         9        16        15        11     9      180.000000       -2.372411         4
         9        16        15        14     9        0.000000        0.125826         1
         9        16        15        14     9      180.000000       -1.570472         2
         9        16        15        14     9        0.000000        0.127606         3
         9        16        15        14     9      180.000000        0.190323         4
         9        16        15        42     9        0.000000        3.051090         1
         9        16        15        42     9      180.000000       -0.790161         2
         9        16        15        42     9        0.000000       -0.187614         3
         9        16        15        42     9      180.000000        0.436888         4
        10         9        16        15     9        0.000000       -0.505979         1
        10         9        16        15     9      180.000000        0.699198         2
        10         9        16        15     9        0.000000        0.376289         3
        10         9        16        15     9      180.000000       -0.310398         4
        10         9        16        43     9        0.000000       -0.039860         1
        10         9        16        43     9      180.000000       -0.062664         2
        10         9        16        43     9        0.000000        0.341065         3
        10         9        16        43     9      180.000000        0.107718         4
        10         9        16        44     9        0.000000       -0.039860         1
        10         9        16        44     9      180.000000       -0.062664         2
        10         9        16        44     9        0.000000        0.341065         3
        10         9        16        44     9      180.000000        0.107718         4
        10        11        12        13     9        0.000000       -0.177639         1
        10        11        12        13     9      180.000000       -1.441188         2
        10        11        12        13     9        0.000000        0.139510         3
        10        11        12        13     9      180.000000        0.103643         4
        10        11        12        38     9        0.000000       -0.090271         1
        10        11        12        38     9      180.000000        0.043314         2
        10        11        12        38     9        0.000000        0.181102         3
        10        11        12        38     9      180.000000        0.056845         4
        10        11        12        39     9        0.000000       -0.090271         1
        10        11        12        39     9      180.000000        0.043314         2
        10        11        12        39     9        0.000000        0.181102         3
        10        11        12        39     9      180.000000        0.056845         4
        10        11        15        14     9        0.000000       -1.429697         1
        10        11        15        14     9      180.000000       -0.955407         2
        10        11        15        14     9        0.000000        0.546147         3
        10        11        15        14     9      180.000000       -0.724521         4
        10        11        15        16     9        0.000000       -1.723216         1
        10        11        15        16     9      180.000000       -1.104300         2
        10        11        15        16     9        0.000000        0.465854         3
        10        11        15        16     9      180.000000       -0.749204         4
        10        11        15        42     9        0.000000        0.196400         1
        10        11        15        42     9      180.000000        0.124290         2
        10        11        15        42     9        0.000000        0.308843         3
        10        11        15        42     9      180.000000        0.285300         4
        11        10         9        16     9        0.000000       -0.505980         1
        11        10         9        16     9      180.000000        0.699200         2
        11        10         9        16     9        0.000000        0.376289         3
        11        10         9        16     9      180.000000       -0.310399         4
        11        12        13        14     9        0.000000       -0.098874         1
        11        12        13        14     9      180.000000       -0.275992         2
        11        12        13        14     9        0.000000        0.219330         3
        11        12        13        14     9      180.000000       -0.018668         4
        11        12        13        17     9        0.000000       -0.924898         1
        11        12        13        17     9      180.000000       -0.742800         2
        11        12        13        17     9        0.000000        0.102247         3
        11        12        13        17     9      180.000000        0.138445         4
        11        15        14        13     9        0.000000       -2.932575         1
        11        15        14        13     9      180.000000        7.822341         2
        11        15        14        13     9        0.000000       -0.704965         3
        11        15        14        13     9      180.000000       -1.187778         4
        11        15        14        40     9        0.000000        0.022483         1
        11        15        14        40     9      180.000000       -0.185436         2
        11        15        14        40     9        0.000000       -0.302149         3
        11        15        14        40     9      180.000000        0.229395         4
        11        15        14        41     9        0.000000        0.022483         1
        11        15        14        41     9      180.000000       -0.185436         2
        11        15        14        41     9        0.000000       -0.302149         3
        11        15        14        41     9      180.000000        0.229395         4
        11        15        16        43     9        0.000000        0.005453         1
        11        15        16        43     9      180.000000       -0.187956         2
        11        15        16        43     9        0.000000       -0.253493         3
        11        15        16        43     9      180.000000        0.289446         4
        11        15        16        44     9        0.000000        0.005453         1
        11        15        16        44     9      180.000000       -0.187956         2
        11        15        16        44     9        0.000000       -0.253493         3
        11        15        16        44     9      180.000000        0.289446         4
        12        11        10        35     9        0.000000       -0.150868         1
        12        11        10        35     9      180.000000        0.072012         2
        12        11        10        35     9        0.000000        0.214875         3
        12        11        10        35     9      180.000000        0.045180         4
        12        11        10        36     9        0.000000       -0.150868         1
        12        11        10        36     9      180.000000        0.072012         2
        12        11        10        36     9        0.000000        0.214875         3
        12        11        10        36     9      180.000000        0.045180         4
        12        11        15        14     9        0.000000       -0.903494         1
        12        11        15        14     9      180.000000       -0.930898         2
        12        11        15        14     9        0.000000        0.568820         3
        12        11        15        14     9      180.000000       -0.686260         4
        12        11        15        16     9        0.000000       -1.429699         1
        12        11        15        16     9      180.000000       -0.955405         2
        12        11        15        16     9        0.000000        0.546147         3
        12        11        15        16     9      180.000000       -0.724522         4
        12        11        15        42     9        0.000000       -0.022164         1
        12        11        15        42     9      180.000000        0.142975         2
        12        11        15        42     9        0.000000        0.388150         3
        12        11        15        42     9      180.000000        0.197015         4
        12        13        14        15     9        0.000000       -0.098875         1
        12        13        14        15     9      180.000000       -0.275991         2
        12        13        14        15     9        0.000000        0.219330         3
        12        13        14        15     9      180.000000       -0.018668         4
        12        13        14        40     9        0.000000       -0.018324         1
        12        13        14        40     9      180.000000       -0.010219         2
        12        13        14        40     9        0.000000        0.119733         3
        12        13        14        40     9      180.000000        0.059477         4
        12        13        14        41     9        0.000000       -0.018324         1
        12        13        14        41     9      180.000000       -0.010219         2
        12        13        14        41     9        0.000000        0.119733         3
        12        13        14        41     9      180.000000        0.059477         4
        12        13        17        18     9        0.000000       -0.772407         1
        12        13        17        18     9      180.000000       13.817704         2
        12        13        17        18     9        0.000000       -1.124658         3
        12        13        17        18     9      180.000000       -0.523087         4
        12        13        17        19     9        0.000000        3.807755         1
        12        13        17        19     9      180.000000       11.423134         2
        12        13        17        19     9        0.000000        0.950522         3
        12        13        17        19     9      180.000000       -0.728722         4
        13        12        11        15     9        0.000000       -2.932575         1
        13        12        11        15     9      180.000000        7.822339         2
        13        12        11        15     9        0.000000       -0.704966         3
        13        12        11        15     9      180.000000       -1.187778         4
        13        12        11        37     9        0.000000        0.949043         1
        13        12        11        37     9      180.000000       -0.377382         2
        13        12        11        37     9        0.000000       -0.056736         3
        13        12        11        37     9      180.000000        0.252566         4
        13        14        15        16     9        0.000000       -0.177640         1
        13        14        15        16     9      180.000000       -1.441189         2
        13        14        15        16     9        0.000000        0.139510         3
        13        14        15        16     9      180.000000        0.103643         4
        13        14        15        42     9        0.000000        0.949044         1
        13        14        15        42     9      180.000000       -0.377382         2
        13        14        15        42     9        0.000000       -0.056736         3
        13        14        15        42     9      180.000000        0.252566         4
        13        17        19        20     9        0.000000       -0.368550         1
        13        17        19        20     9      180.000000        3.799954         2
        13        17        19        20     9        0.000000       -0.343838         3
        13        17        19        20     9      180.000000        0.220400         4
        13        17        19        25     9        0.000000        1.305198         1
        13        17        19        25     9      180.000000        4.080130         2
        13        17        19        25     9        0.000000       -0.555958         3
        13        17        19        25     9      180.000000        0.231954         4
        14        13        12        38     9        0.000000       -0.018324         1
        14        13        12        38     9      180.000000       -0.010219         2
        14        13        12        38     9        0.000000        0.119733         3
        14        13        12        38     9      180.000000        0.059477         4
        14        13        12        39     9        0.000000       -0.018324         1
        14        13        12        39     9      180.000000       -0.010219         2
        14        13        12        39     9        0.000000        0.119733         3
        14        13        12        39     9      180.000000        0.059477         4
        14        13        17        18     9        0.000000       -0.772407         1
        14        13        17        18     9      180.000000       13.817704         2
        14        13        17        18     9        0.000000       -1.124658         3
        14        13        17        18     9      180.000000       -0.523087         4
        14        13        17        19     9        0.000000        3.807756         1
        14        13        17        19     9      180.000000       11.423134         2
        14        13        17        19     9        0.000000        0.950522         3
        14        13        17        19     9      180.000000       -0.728722         4
        14        15        11        37     9        0.000000       -0.022164         1
        14        15        11        37     9      180.000000        0.142976         2
        14        15        11        37     9        0.000000        0.388149         3
        14        15        11        37     9      180.000000        0.197014         4
        14        15        16        43     9        0.000000       -0.150868         1
        14        15        16        43     9      180.000000        0.072012         2
        14        15        16        43     9        0.000000        0.214875         3
        14        15        16        43     9      180.000000        0.045180         4
        14        15        16        44     9        0.000000       -0.150868         1
        14        15        16        44     9      180.000000        0.072012         2
        14        15        16        44     9        0.000000        0.214875         3
        14        15        16        44     9      180.000000        0.045180         4
        15        11        10        35     9        0.000000        0.005454         1
        15        11        10        35     9      180.000000       -0.187956         2
        15        11        10        35     9        0.000000       -0.253494         3
        15        11        10        35     9      180.000000        0.289446         4
        15        11        10        36     9        0.000000        0.005454         1
        15        11        10        36     9      180.000000       -0.187956         2
        15        11        10        36     9        0.000000       -0.253494         3
        15        11        10        36     9      180.000000        0.289446         4
        15        11        12        38     9        0.000000        0.022483         1
        15        11        12        38     9      180.000000       -0.185435         2
        15        11        12        38     9        0.000000       -0.302149         3
        15        11        12        38     9      180.000000        0.229395         4
        15        11        12        39     9        0.000000        0.022483         1
        15        11        12        39     9      180.000000       -0.185435         2
        15        11        12        39     9        0.000000       -0.302149         3
        15        11        12        39     9      180.000000        0.229395         4
        15        14        13        17     9        0.000000       -0.924897         1
        15        14        13        17     9      180.000000       -0.742800         2
        15        14        13        17     9        0.000000        0.102247         3
        15        14        13        17     9      180.000000        0.138445         4
        16         9        10        35     9        0.000000       -0.039860         1
        16         9        10        35     9      180.000000       -0.062664         2
        16         9        10        35     9        0.000000        0.341065         3
        16         9        10        35     9      180.000000        0.107718         4
        16         9        10        36     9        0.000000       -0.039860         1
        16         9        10        36     9      180.000000       -0.062664         2
        16         9        10        36     9        0.000000        0.341065         3
        16         9        10        36     9      180.000000        0.107718         4
        16        15        11        37     9        0.000000        0.196399         1
        16        15        11        37     9      180.000000        0.124289         2
        16        15        11        37     9        0.000000        0.308842         3
        16        15        11        37     9      180.000000        0.285300         4
        16        15        14        40     9        0.000000       -0.090272         1
        16        15        14        40     9      180.000000        0.043313         2
        16        15        14        40     9        0.000000        0.181102         3
        16        15        14        40     9      180.000000        0.056845         4
        16        15        14        41     9        0.000000       -0.090272         1
        16        15        14        41     9      180.000000        0.043313         2
        16        15        14        41     9        0.000000        0.181102         3
        16        15        14        41     9      180.000000        0.056845         4
        17        13        12        38     9        0.000000        0.071282         1
        17        13        12        38     9      180.000000        0.076325         2
        17        13        12        38     9        0.000000        0.084134         3
        17        13        12        38     9      180.000000       -0.022120         4
        17        13        12        39     9        0.000000        0.071282         1
        17        13        12        39     9      180.000000        0.076325         2
        17        13        12        39     9        0.000000        0.084134         3
        17        13        12        39     9      180.000000       -0.022120         4
        17        13        14        40     9        0.000000        0.071281         1
        17        13        14        40     9      180.000000        0.076325         2
        17        13        14        40     9        0.000000        0.084133         3
        17        13        14        40     9      180.000000       -0.022120         4
        17        13        14        41     9        0.000000        0.071281         1
        17        13        14        41     9      180.000000        0.076325         2
        17        13        14        41     9        0.000000        0.084133         3
        17        13        14        41     9      180.000000       -0.022120         4
        17        19        20        21     9        0.000000        0.323763         1
        17        19        20        21     9      180.000000       17.639032         2
        17        19        20        21     9        0.000000        0.671040         3
        17        19        20        21     9      180.000000       -0.965029         4
        17        19        20        22     9        0.000000       -0.042703         1
        17        19        20        22     9      180.000000       12.507043         2
        17        19        20        22     9        0.000000        0.025809         3
        17        19        20        22     9      180.000000       -0.298713         4
        17        19        25        24     9        0.000000       -0.159485         1
        17        19        25        24     9      180.000000       11.728617         2
        17        19        25        24     9        0.000000       -0.307066         3
        17        19        25        24     9      180.000000       -0.206715         4
        17        19        25        26     9        0.000000       -0.058327         1
        17        19        25        26     9      180.000000       16.156167         2
        17        19        25        26     9        0.000000        0.341551         3
        17        19        25        26     9      180.000000       -0.901251         4
        18        17        19        20     9        0.000000       -1.941661         1
        18        17        19        20     9      180.000000        1.094345         2
        18        17        19        20     9        0.000000        0.427875         3
        18        17        19        20     9      180.000000       -0.033087         4
        18        17        19        25     9        0.000000       -5.069446         1
        18        17        19        25     9      180.000000        1.308677         2
        18        17        19        25     9        0.000000        0.034082         3
        18        17        19        25     9      180.000000       -0.013060         4
        19        20        22        23     9        0.000000       -0.230779         1
        19        20        22        23     9      180.000000       17.563438         2
        19        20        22        23     9        0.000000       -1.369842         3
        19        20        22        23     9      180.000000       -0.339553         4
        19        20        22        45     9        0.000000       -0.133924         1
        19        20        22        45     9      180.000000       13.166471         2
        19        20        22        45     9        0.000000       -0.700048         3
        19        20        22        45     9      180.000000        0.076451         4
        19        25        24        23     9        0.000000       -0.224893         1
        19        25        24        23     9      180.000000       17.844406         2
        19        25        24        23     9        0.000000       -1.762319         3
        19        25        24        23     9      180.000000       -0.293758         4
        19        25        24        47     9        0.000000        0.075314         1
        19        25        24        47     9      180.000000       13.789726         2
        19        25        24        47     9        0.000000       -0.664391         3
        19        25        24        47     9      180.000000        0.152451         4
        19        25        26        27     9        0.000000       -0.928393         1
        19        25        26        27     9      180.000000        3.806786         2
        19        25        26        27     9        0.000000        0.016177         3
        19        25        26        27     9      180.000000       -0.052315         4
        19        25        26        30     9        0.000000       -0.928393         1
        19        25        26        30     9      180.000000        3.806786         2
        19        25        26        30     9        0.000000        0.016177         3
        19        25        26        30     9      180.000000       -0.052315         4
        20        19        25        24     9        0.000000       -0.141325         1
        20        19        25        24     9      180.000000       16.126330         2
        20        19        25        24     9        0.000000       -1.429498         3
        20        19        25        24     9      180.000000       -0.178699         4
        20        19        25        26     9        0.000000        0.375258         1
        20        19        25        26     9      180.000000       18.126687         2
        20        19        25        26     9        0.000000        0.186439         3
        20        19        25        26     9      180.000000       -0.681470         4
        20        22        23        24     9        0.000000       -0.152374         1
        20        22        23        24     9      180.000000       18.716159         2
        20        22        23        24     9        0.000000       -1.818927         3
        20        22        23        24     9      180.000000       -0.453550         4
        20        22        23        46     9        0.000000        0.180905         1
        20        22        23        46     9      180.000000       14.902493         2
        20        22        23        46     9        0.000000       -0.731347         3
        20        22        23        46     9      180.000000        0.027321         4
        21        20        19        25     9        0.000000        0.673215         1
        21        20        19        25     9      180.000000       23.238171         2
        21        20        19        25     9        0.000000        0.955629         3
        21        20        19        25     9      180.000000       -1.163490         4
        21        20        22        23     9        0.000000        0.552801         1
        21        20        22        23     9      180.000000       23.768154         2
        21        20        22        23     9        0.000000        0.607966         3
        21        20        22        23     9      180.000000       -0.689434         4
        21        20        22        45     9        0.000000        0.278729         1
        21        20        22        45     9      180.000000       16.994412         2
        21        20        22        45     9        0.000000        0.338076         3
        21        20        22        45     9      180.000000        0.093222         4
        22        20        19        25     9        0.000000        0.135116         1
        22        20        19        25     9      180.000000       15.814503         2
        22        20        19        25     9        0.000000       -0.812439         3
        22        20        19        25     9      180.000000       -0.422734         4
        22        23        24        25     9        0.000000       -0.192714         1
        22        23        24        25     9      180.000000       18.408477         2
        22        23        24        25     9        0.000000       -1.779917         3
        22        23        24        25     9      180.000000       -0.374514         4
        22        23        24        47     9        0.000000        0.142296         1
        22        23        24        47     9      180.000000       15.187280         2
        22        23        24        47     9        0.000000       -0.758856         3
        22        23        24        47     9      180.000000        0.063922         4
        23        24        25        26     9        0.000000        0.358636         1
        23        24        25        26     9      180.000000       18.702794         2
        23        24        25        26     9        0.000000        0.139137         3
        23        24        25        26     9      180.000000       -0.377297         4
        24        23        22        45     9        0.000000        0.246067         1
        24        23        22        45     9      180.000000       14.028888         2
        24        23        22        45     9        0.000000       -0.660950         3
        24        23        22        45     9      180.000000        0.116191         4
        24        25        26        27     9        0.000000        0.756737         1
        24        25        26        27     9      180.000000        3.189609         2
        24        25        26        27     9        0.000000       -0.349349         3
        24        25        26        27     9      180.000000        0.086097         4
        24        25        26        30     9        0.000000        0.756737         1
        24        25        26        30     9      180.000000        3.189609         2
        24        25        26        30     9        0.000000       -0.349349         3
        24        25        26        30     9      180.000000        0.086097         4
        25        24        23        46     9        0.000000        0.014670         1
        25        24        23        46     9      180.000000       14.765854         2
        25        24        23        46     9        0.000000       -0.786746         3
        25        24        23        46     9      180.000000        0.015738         4
        25        26        27        28     9        0.000000        0.775624         1
        25        26        27        28     9      180.000000       14.213466         2
        25        26        27        28     9        0.000000        0.460130         3
        25        26        27        28     9      180.000000       -0.178471         4
        25        26        30        29     9        0.000000        0.775624         1
        25        26        30        29     9      180.000000       14.213466         2
        25        26        30        29     9        0.000000        0.460130         3
        25        26        30        29     9      180.000000       -0.178471         4
        26        25        24        47     9        0.000000        0.319829         1
        26        25        24        47     9      180.000000       14.602053         2
        26        25        24        47     9        0.000000        0.000376         3
        26        25        24        47     9      180.000000        0.144391         4
        26        27        28        29     9        0.000000       -0.095084         1
        26        27        28        29     9      180.000000       41.109451         2
        26        27        28        29     9        0.000000       -5.890198         3
        26        27        28        29     9      180.000000       -0.007891         4
        26        27        28        48     9        0.000000        1.230247         1
        26        27        28        48     9      180.000000       26.477527         2
        26        27        28        48     9        0.000000       -0.131285         3
        26        27        28        48     9      180.000000       -0.123740         4
        26        30        29        28     9        0.000000       -0.095084         1
        26        30        29        28     9      180.000000       41.109451         2
        26        30        29        28     9        0.000000       -5.890198         3
        26        30        29        28     9      180.000000       -0.007891         4
        26        30        29        49     9        0.000000        1.230247         1
        26        30        29        49     9      180.000000       26.477527         2
        26        30        29        49     9        0.000000       -0.131285         3
        26        30        29        49     9      180.000000       -0.123740         4
        27        26        30        29     9        0.000000       -0.214505         1
        27        26        30        29     9      180.000000       33.461258         2
        27        26        30        29     9        0.000000       -5.627567         3
        27        26        30        29     9      180.000000        0.135267         4
        27        28        29        30     9        0.000000       -0.646396         1
        27        28        29        30     9      180.000000       33.879564         2
        27        28        29        30     9        0.000000       -7.997882         3
        27        28        29        30     9      180.000000       -0.068922         4
        27        28        29        49     9        0.000000        0.399471         1
        27        28        29        49     9      180.000000       15.777787         2
        27        28        29        49     9        0.000000       -0.622625         3
        27        28        29        49     9      180.000000       -0.473181         4
        28        27        26        30     9        0.000000       -0.214505         1
        28        27        26        30     9      180.000000       33.461258         2
        28        27        26        30     9        0.000000       -5.627567         3
        28        27        26        30     9      180.000000        0.135267         4
        30        29        28        48     9        0.000000        0.399471         1
        30        29        28        48     9      180.000000       15.777787         2
        30        29        28        48     9        0.000000       -0.622625         3
        30        29        28        48     9      180.000000       -0.473181         4
        35        10        11        37     9        0.000000       -0.140741         1
        35        10        11        37     9      180.000000       -0.009947         2
        35        10        11        37     9        0.000000        0.295617         3
        35        10        11        37     9      180.000000       -0.018107         4
        36        10        11        37     9        0.000000       -0.140741         1
        36        10        11        37     9      180.000000       -0.009947         2
        36        10        11        37     9        0.000000        0.295617         3
        36        10        11        37     9      180.000000       -0.018107         4
        37        11        12        38     9        0.000000       -0.086594         1
        37        11        12        38     9      180.000000        0.026398         2
        37        11        12        38     9        0.000000        0.269152         3
        37        11        12        38     9      180.000000       -0.020189         4
        37        11        12        39     9        0.000000       -0.086594         1
        37        11        12        39     9      180.000000        0.026398         2
        37        11        12        39     9        0.000000        0.269152         3
        37        11        12        39     9      180.000000       -0.020189         4
        37        11        15        42     9        0.000000        0.223574         1
        37        11        15        42     9      180.000000       -0.077956         2
        37        11        15        42     9        0.000000        0.353694         3
        37        11        15        42     9      180.000000       -0.057173         4
        40        14        15        42     9        0.000000       -0.086595         1
        40        14        15        42     9      180.000000        0.026398         2
        40        14        15        42     9        0.000000        0.269152         3
        40        14        15        42     9      180.000000       -0.020189         4
        41        14        15        42     9        0.000000       -0.086595         1
        41        14        15        42     9      180.000000        0.026398         2
        41        14        15        42     9        0.000000        0.269152         3
        41        14        15        42     9      180.000000       -0.020189         4
        42        15        16        43     9        0.000000       -0.140741         1
        42        15        16        43     9      180.000000       -0.009947         2
        42        15        16        43     9        0.000000        0.295617         3
        42        15        16        43     9      180.000000       -0.018107         4
        42        15        16        44     9        0.000000       -0.140741         1
        42        15        16        44     9      180.000000       -0.009947         2
        42        15        16        44     9        0.000000        0.295617         3
        42        15        16        44     9      180.000000       -0.018107         4
        45        22        23        46     9        0.000000       -0.176698         1
        45        22        23        46     9      180.000000       10.882745         2
        45        22        23        46     9        0.000000       -0.527182         3
        45        22        23        46     9      180.000000        0.131688         4
        46        23        24        47     9        0.000000       -0.152786         1
        46        23        24        47     9      180.000000       12.297011         2
        46        23        24        47     9        0.000000       -0.885313         3
        46        23        24        47     9      180.000000        0.289530         4
        48        28        29        49     9        0.000000       -0.304766         1
        48        28        29        49     9      180.000000        8.321253         2
        48        28        29        49     9        0.000000       -0.141498         3
        48        28        29        49     9      180.000000        0.273252         4

[ dihedrals ] ; impropers
;       ai        aj        ak        al funct           phase               k        pn
         2         1         3         7     4      180.000000       14.451366         2
         2         3         7         1     4      180.000000       14.451366         2
         2         7         1         3     4      180.000000       14.451366         2
         4         3         5         9     4      180.000000       27.893333         2
         4         5         9         3     4      180.000000       27.893333         2
         4         9         3         5     4      180.000000       27.893333         2
         6         5         7        34     4      180.000000        8.103400         2
         6         7        34         5     4      180.000000        8.103400         2
         6        34         5         7     4      180.000000        8.103400         2
        22        20        23        45     4      180.000000        0.307014         2
        22        23        45        20     4      180.000000        0.307014         2
        22        45        20        23     4      180.000000        0.307014         2
        23        22        24        46     4      180.000000        2.050246         2
        23        24        46        22     4      180.000000        2.050246         2
        23        46        22        24     4      180.000000        2.050246         2
        24        23        25        47     4      180.000000        0.161180         2
        24        25        47        23     4      180.000000        0.161180         2
        24        47        23        25     4      180.000000        0.161180         2

[ pairs ]
;       ai        aj funct
         1         4     1
         1         6     1
         1         8     1
         2         5     1
         2         9     1
         2        34     1
         3         6     1
         3         8     1
         3        10     1
         3        16     1
         3        31     1
         3        32     1
         3        33     1
         4         7     1
         4        11     1
         4        15     1
         4        34     1
         4        35     1
         4        36     1
         4        43     1
         4        44     1
         5         8     1
         5        10     1
         5        16     1
         6         9     1
         7        31     1
         7        32     1
         7        33     1
         8        34     1
         9        12     1
         9        14     1
         9        37     1
         9        42     1
        10        13     1
        10        14     1
        10        38     1
        10        39     1
        10        42     1
        10        43     1
        10        44     1
        11        17     1
        11        40     1
        11        41     1
        11        43     1
        11        44     1
        12        16     1
        12        18     1
        12        19     1
        12        35     1
        12        36     1
        12        40     1
        12        41     1
        12        42     1
        13        16     1
        13        20     1
        13        25     1
        13        37     1
        13        42     1
        14        18     1
        14        19     1
        14        37     1
        14        38     1
        14        39     1
        14        43     1
        14        44     1
        15        17     1
        15        35     1
        15        36     1
        15        38     1
        15        39     1
        16        35     1
        16        36     1
        16        37     1
        16        40     1
        16        41     1
        17        21     1
        17        22     1
        17        24     1
        17        26     1
        17        38     1
        17        39     1
        17        40     1
        17        41     1
        18        20     1
        18        25     1
        19        23     1
        19        27     1
        19        30     1
        19        45     1
        19        47     1
        20        24     1
        20        26     1
        20        46     1
        21        23     1
        21        25     1
        21        45     1
        22        25     1
        22        47     1
        23        26     1
        24        27     1
        24        30     1
        24        45     1
        25        28     1
        25        29     1
        25        46     1
        26        47     1
        26        48     1
        26        49     1
        27        49     1
        30        48     1
        35        37     1
        36        37     1
        37        38     1
        37        39     1
        37        42     1
        40        42     1
        41        42     1
        42        43     1
        42        44     1
        45        46     1
        46        47     1
        48        49     1
