; ITP file created by ByteFF-ML, 2025-12-06 04:43:31.649489

[ atomtypes ]
;name           bonded.type        at.num        mass        charge   ptype           sigma         epsilon
 c0bf                                   6      0.0000       0.00000       A     3.39842e-01     4.51174e-01
 c1bf                                   6      0.0000       0.00000       A     3.31567e-01     4.13000e-01
 c2bf                                   6      0.0000       0.00000       A     3.31566e-01     4.12552e-01
 c3bf                                   6      0.0000       0.00000       A     3.31428e-01     4.12895e-01
 c4bf                                   6      0.0000       0.00000       A     3.31224e-01     4.14030e-01
 c5bf                                   6      0.0000       0.00000       A     3.31346e-01     4.09325e-01
 o6bf                                   8      0.0000       0.00000       A     3.04759e-01     6.11336e-01
 n7bf                                   7      0.0000       0.00000       A     3.18102e-01     6.81598e-01
 c8bf                                   6      0.0000       0.00000       A     3.39727e-01     4.50795e-01
 c9bf                                   6      0.0000       0.00000       A     3.39712e-01     4.49806e-01
 c10bf                                  6      0.0000       0.00000       A     3.39585e-01     4.49212e-01
 n11bf                                  7      0.0000       0.00000       A     3.19428e-01     8.94136e-01
 c12bf                                  6      0.0000       0.00000       A     3.39585e-01     4.49212e-01
 c13bf                                  6      0.0000       0.00000       A     3.39712e-01     4.49806e-01
 c14bf                                  6      0.0000       0.00000       A     3.39727e-01     4.50797e-01
 c15bf                                  6      0.0000       0.00000       A     3.31548e-01     4.12659e-01
 n16bf                                  7      0.0000       0.00000       A     3.38255e-01     3.94373e-01
 c17bf                                  6      0.0000       0.00000       A     3.31356e-01     4.11183e-01
 c18bf                                  6      0.0000       0.00000       A     3.39813e-01     4.50976e-01
 c19bf                                  6      0.0000       0.00000       A     3.31508e-01     4.12834e-01
 c20bf                                  6      0.0000       0.00000       A     3.31356e-01     4.11183e-01
 c21bf                                  6      0.0000       0.00000       A     3.39813e-01     4.50976e-01
 n22bf                                  7      0.0000       0.00000       A     3.38255e-01     3.94373e-01
 c23bf                                  6      0.0000       0.00000       A     3.31933e-01     4.13457e-01
 n24bf                                  7      0.0000       0.00000       A     3.38262e-01     3.90333e-01
 n25bf                                  7      0.0000       0.00000       A     3.20893e-01     8.36980e-01
 n26bf                                  7      0.0000       0.00000       A     3.38294e-01     3.94453e-01
 c27bf                                  6      0.0000       0.00000       A     3.31315e-01     4.12426e-01
 c28bf                                  6      0.0000       0.00000       A     3.31315e-01     4.12426e-01
 n29bf                                  7      0.0000       0.00000       A     3.38294e-01     3.94453e-01
 h30bf                                  1      0.0000       0.00000       A     2.59989e-01     8.71151e-02
 h31bf                                  1      0.0000       0.00000       A     2.59989e-01     8.71151e-02
 h32bf                                  1      0.0000       0.00000       A     2.59989e-01     8.71151e-02
 h33bf                                  1      0.0000       0.00000       A     2.62607e-01     6.73254e-02
 h34bf                                  1      0.0000       0.00000       A     2.62527e-01     6.70716e-02
 h35bf                                  1      0.0000       0.00000       A     2.42171e-01     8.72571e-02
 h36bf                                  1      0.0000       0.00000       A     2.42171e-01     8.72571e-02
 h37bf                                  1      0.0000       0.00000       A     2.60149e-01     8.67575e-02
 h38bf                                  1      0.0000       0.00000       A     2.42127e-01     8.72842e-02
 h39bf                                  1      0.0000       0.00000       A     2.42127e-01     8.72842e-02
 h40bf                                  1      0.0000       0.00000       A     2.42127e-01     8.72842e-02
 h41bf                                  1      0.0000       0.00000       A     2.42127e-01     8.72842e-02
 h42bf                                  1      0.0000       0.00000       A     2.60149e-01     8.67575e-02
 h43bf                                  1      0.0000       0.00000       A     2.42171e-01     8.72571e-02
 h44bf                                  1      0.0000       0.00000       A     2.42171e-01     8.72571e-02
 h45bf                                  1      0.0000       0.00000       A     2.59989e-01     8.71151e-02
 h46bf                                  1      0.0000       0.00000       A     2.59989e-01     8.71151e-02
 h47bf                                  1      0.0000       0.00000       A     2.59989e-01     8.71151e-02
 h48bf                                  1      0.0000       0.00000       A     2.62556e-01     6.77132e-02
 h49bf                                  1      0.0000       0.00000       A     2.59989e-01     8.71151e-02
 h50bf                                  1      0.0000       0.00000       A     2.59989e-01     8.71151e-02
 h51bf                                  1      0.0000       0.00000       A     2.59989e-01     8.71151e-02
 h52bf                                  1      0.0000       0.00000       A     2.53896e-01     6.74946e-02
 h53bf                                  1      0.0000       0.00000       A     2.53896e-01     6.74946e-02

[ moleculetype ]
;name             nrexcl
 set_2_2               3

[ atoms ]
;       nr            type      resi   res      atom      cgnr      charge          mass ; qtot
         1            c0bf         1   UNL        c0         1    -0.14387       12.0110 ; qtot   -0.144
         2            c1bf         1   UNL        c1         2     0.39406       12.0110 ; qtot    0.250
         3            c2bf         1   UNL        c2         3    -0.18162       12.0110 ; qtot    0.069
         4            c3bf         1   UNL        c3         4    -0.02875       12.0110 ; qtot    0.040
         5            c4bf         1   UNL        c4         5    -0.16654       12.0110 ; qtot   -0.127
         6            c5bf         1   UNL        c5         6     0.63488       12.0110 ; qtot    0.508
         7            o6bf         1   UNL        o6         7    -0.59255       15.9990 ; qtot   -0.084
         8            n7bf         1   UNL        n7         8    -0.40643       14.0070 ; qtot   -0.491
         9            c8bf         1   UNL        c8         9     0.10883       12.0110 ; qtot   -0.382
        10            c9bf         1   UNL        c9        10    -0.10223       12.0110 ; qtot   -0.484
        11           c10bf         1   UNL       c10        11     0.23669       12.0110 ; qtot   -0.248
        12           n11bf         1   UNL       n11        12    -0.78178       14.0070 ; qtot   -1.029
        13           c12bf         1   UNL       c12        13     0.23669       12.0110 ; qtot   -0.793
        14           c13bf         1   UNL       c13        14    -0.10223       12.0110 ; qtot   -0.895
        15           c14bf         1   UNL       c14        15     0.10883       12.0110 ; qtot   -0.786
        16           c15bf         1   UNL       c15        16     0.38591       12.0110 ; qtot   -0.400
        17           n16bf         1   UNL       n16        17    -0.25087       14.0070 ; qtot   -0.651
        18           c17bf         1   UNL       c17        18     0.16283       12.0110 ; qtot   -0.488
        19           c18bf         1   UNL       c18        19    -0.15050       12.0110 ; qtot   -0.639
        20           c19bf         1   UNL       c19        20    -0.27614       12.0110 ; qtot   -0.915
        21           c20bf         1   UNL       c20        21     0.16283       12.0110 ; qtot   -0.752
        22           c21bf         1   UNL       c21        22    -0.15050       12.0110 ; qtot   -0.902
        23           n22bf         1   UNL       n22        23    -0.25087       14.0070 ; qtot   -1.153
        24           c23bf         1   UNL       c23        24     0.49618       12.0110 ; qtot   -0.657
        25           n24bf         1   UNL       n24        25    -0.68684       14.0070 ; qtot   -1.344
        26           n25bf         1   UNL       n25        26     0.21369       14.0070 ; qtot   -1.130
        27           n26bf         1   UNL       n26        27    -0.45596       14.0070 ; qtot   -1.586
        28           c27bf         1   UNL       c27        28     0.20700       12.0110 ; qtot   -1.379
        29           c28bf         1   UNL       c28        29     0.20700       12.0110 ; qtot   -1.172
        30           n29bf         1   UNL       n29        30    -0.45596       14.0070 ; qtot   -1.628
        31           h30bf         1   UNL       h30        31     0.05327        1.0080 ; qtot   -1.575
        32           h31bf         1   UNL       h31        32     0.05327        1.0080 ; qtot   -1.522
        33           h32bf         1   UNL       h32        33     0.05327        1.0080 ; qtot   -1.468
        34           h33bf         1   UNL       h33        34     0.13029        1.0080 ; qtot   -1.338
        35           h34bf         1   UNL       h34        35     0.13204        1.0080 ; qtot   -1.206
        36           h35bf         1   UNL       h35        36     0.06015        1.0080 ; qtot   -1.146
        37           h36bf         1   UNL       h36        37     0.06015        1.0080 ; qtot   -1.086
        38           h37bf         1   UNL       h37        38     0.07208        1.0080 ; qtot   -1.014
        39           h38bf         1   UNL       h38        39     0.05798        1.0080 ; qtot   -0.956
        40           h39bf         1   UNL       h39        40     0.05798        1.0080 ; qtot   -0.898
        41           h40bf         1   UNL       h40        41     0.05798        1.0080 ; qtot   -0.840
        42           h41bf         1   UNL       h41        42     0.05798        1.0080 ; qtot   -0.782
        43           h42bf         1   UNL       h42        43     0.07208        1.0080 ; qtot   -0.710
        44           h43bf         1   UNL       h43        44     0.06015        1.0080 ; qtot   -0.650
        45           h44bf         1   UNL       h44        45     0.06015        1.0080 ; qtot   -0.589
        46           h45bf         1   UNL       h45        46     0.05717        1.0080 ; qtot   -0.532
        47           h46bf         1   UNL       h46        47     0.05717        1.0080 ; qtot   -0.475
        48           h47bf         1   UNL       h47        48     0.05717        1.0080 ; qtot   -0.418
        49           h48bf         1   UNL       h48        49     0.13105        1.0080 ; qtot   -0.287
        50           h49bf         1   UNL       h49        50     0.05717        1.0080 ; qtot   -0.230
        51           h50bf         1   UNL       h50        51     0.05717        1.0080 ; qtot   -0.172
        52           h51bf         1   UNL       h51        52     0.05717        1.0080 ; qtot   -0.115
        53           h52bf         1   UNL       h52        53     0.05765        1.0080 ; qtot   -0.058
        54           h53bf         1   UNL       h53        54     0.05768        1.0080 ; qtot    0.000

[ bonds ]
;       ai        aj funct               r               k
         1         2     1        0.150717   207657.073389
         1        31     1        0.109375   303848.648145
         1        32     1        0.109375   303848.648145
         1        33     1        0.109375   303848.648145
         2         3     1        0.140252   276220.458105
         2        25     1        0.134193   308542.573145
         3         4     1        0.139326   319539.158887
         3        34     1        0.108534   322127.651367
         4         5     1        0.140022   297685.752002
         4        35     1        0.108548   321702.152051
         5         6     1        0.151049   176878.778760
         5        24     1        0.140726   260111.904883
         6         7     1        0.123473   587504.184570
         6         8     1        0.135840   312787.836670
         8         9     1        0.147359   175656.623779
         8        15     1        0.147359   175656.598242
         9        10     1        0.153427   175080.787500
         9        36     1        0.109385   298254.744336
         9        37     1        0.109385   298254.744336
        10        11     1        0.153334   175036.020947
        10        14     1        0.154277   149842.117554
        10        38     1        0.109325   303915.912891
        11        12     1        0.146885   181060.582568
        11        39     1        0.109481   294444.837451
        11        40     1        0.109481   294444.837451
        12        13     1        0.146885   181060.557031
        12        16     1        0.136150   322423.090186
        13        14     1        0.153334   175036.020947
        13        41     1        0.109481   294444.837451
        13        42     1        0.109481   294444.811914
        14        15     1        0.153427   175080.787500
        14        43     1        0.109325   303915.912891
        15        44     1        0.109385   298254.744336
        15        45     1        0.109385   298254.744336
        16        17     1        0.135061   255154.819971
        16        23     1        0.135061   255154.794434
        17        18     1        0.133745   333057.585254
        18        19     1        0.150694   207469.771460
        18        20     1        0.140051   285005.530176
        19        46     1        0.109354   305309.983691
        19        47     1        0.109354   305309.983691
        19        48     1        0.109354   305309.983691
        20        21     1        0.140051   285005.530176
        20        49     1        0.108514   321723.577686
        21        22     1        0.150694   207469.733154
        21        23     1        0.133745   333057.585254
        22        50     1        0.109354   305309.958154
        22        51     1        0.109354   305309.958154
        22        52     1        0.109354   305309.958154
        24        25     1        0.132913   313156.515918
        24        26     1        0.142488   217829.244629
        26        27     1        0.134099   246267.293018
        26        30     1        0.134099   246267.293018
        27        28     1        0.133209   355764.774316
        28        29     1        0.141478   272592.247754
        28        53     1        0.108123   339401.999170
        29        30     1        0.133209   355764.774316
        29        54     1        0.108123   339401.999170

[ angles ]
;       ai        aj        ak funct           theta             cth
         1         2         3     1      121.988609      490.722626
         1         2        25     1      116.572899      472.672167
         2         1        31     1      110.659912      487.335384
         2         1        32     1      110.659912      487.335384
         2         1        33     1      110.659912      487.335384
         2         3         4     1      118.846703      767.303821
         2         3        34     1      120.336624      408.186050
         2        25        24     1      119.188919      749.624289
         3         2        25     1      121.316689      710.659065
         3         4         5     1      120.170998      754.069470
         3         4        35     1      120.762222      411.290533
         4         3        34     1      120.927391      432.424980
         4         5         6     1      118.928162      546.727486
         4         5        24     1      115.824478      757.010962
         5         4        35     1      118.969925      382.003554
         5         6         7     1      119.741737      510.682750
         5         6         8     1      117.362206      440.889575
         5        24        25     1      124.411377      648.264182
         5        24        26     1      120.209030      453.970735
         6         5        24     1      124.821899      548.333132
         6         8         9     1      123.486671      462.694627
         6         8        15     1      123.486671      462.694627
         7         6         8     1      122.816429      621.655599
         8         9        10     1      103.422180      528.015393
         8         9        36     1      110.437210      437.340555
         8         9        37     1      110.437210      437.340555
         8        15        14     1      103.422180      528.015424
         8        15        44     1      110.437210      437.340555
         8        15        45     1      110.437210      437.340555
         9         8        15     1      111.269920      406.148763
         9        10        11     1      115.967918      490.766039
         9        10        14     1      103.849319      536.391532
         9        10        38     1      110.495773      465.529246
        10         9        36     1      112.216675      453.127053
        10         9        37     1      112.216675      453.127053
        10        11        12     1      102.892921      518.507927
        10        11        39     1      112.134521      456.886371
        10        11        40     1      112.134521      456.886371
        10        14        13     1      103.531944      553.400524
        10        14        15     1      103.849319      536.391532
        10        14        43     1      111.068626      475.836438
        11        10        14     1      103.531944      553.400524
        11        10        38     1      110.411415      471.837167
        11        12        13     1      113.053551      339.130578
        11        12        16     1      122.793289      492.092788
        12        11        39     1      110.665466      411.334967
        12        11        40     1      110.665466      411.334967
        12        13        14     1      102.892921      518.507959
        12        13        41     1      110.665466      411.334999
        12        13        42     1      110.665466      411.334967
        12        16        17     1      116.861961      541.920827
        12        16        23     1      116.861961      541.920827
        13        12        16     1      122.793289      492.092788
        13        14        15     1      115.967918      490.766103
        13        14        43     1      110.411415      471.837167
        14        10        38     1      111.068642      475.836438
        14        13        41     1      112.134521      456.886371
        14        13        42     1      112.134521      456.886371
        14        15        44     1      112.216675      453.127085
        14        15        45     1      112.216675      453.127085
        15        14        43     1      110.495773      465.529246
        16        17        18     1      116.614647      960.079055
        16        23        21     1      116.614647      960.079055
        17        16        23     1      126.191666      604.351846
        17        18        19     1      116.354942      475.838162
        17        18        20     1      121.655540      736.540223
        18        19        46     1      110.547607      500.572608
        18        19        47     1      110.547607      500.572608
        18        19        48     1      110.547607      500.572608
        18        20        21     1      117.478683      761.775676
        18        20        49     1      121.294067      418.995525
        19        18        20     1      122.040428      489.957215
        20        21        22     1      122.040443      489.957215
        20        21        23     1      121.655540      736.540223
        21        20        49     1      121.294067      418.995525
        21        22        50     1      110.547607      500.572608
        21        22        51     1      110.547607      500.572608
        21        22        52     1      110.547607      500.572608
        22        21        23     1      116.354942      475.838226
        24        26        27     1      122.337891      524.492038
        24        26        30     1      122.337875      524.492069
        25        24        26     1      115.109909      543.903592
        26        27        28     1      103.673630      481.453613
        26        30        29     1      103.673630      481.453613
        27        26        30     1      115.248962      203.011305
        27        28        29     1      108.767502      304.040547
        27        28        53     1      120.807472      392.010366
        28        29        30     1      108.767502      304.040547
        28        29        54     1      130.175583      344.371399
        29        28        53     1      130.175583      344.371399
        30        29        54     1      120.807472      392.010366
        31         1        32     1      108.253983      359.302468
        31         1        33     1      108.253983      359.302468
        32         1        33     1      108.253983      359.302468
        36         9        37     1      107.816483      348.007916
        39        11        40     1      107.788414      347.454335
        41        13        42     1      107.788414      347.454335
        44        15        45     1      107.816490      348.007916
        46        19        47     1      108.389893      359.969498
        46        19        48     1      108.389893      359.969498
        47        19        48     1      108.389893      359.969498
        50        22        51     1      108.389893      359.969466
        50        22        52     1      108.389893      359.969466
        51        22        52     1      108.389893      359.969498

[ dihedrals ] ; propers for gromacs 4.5 or higher, use funct 9
;       ai        aj        ak        al funct           phase               k        pn
         1         2         3         4     9        0.000000        0.241119         1
         1         2         3         4     9      180.000000       13.692035         2
         1         2         3         4     9        0.000000       -0.211939         3
         1         2         3         4     9      180.000000       -0.148037         4
         1         2         3        34     9        0.000000       -0.246727         1
         1         2         3        34     9      180.000000       11.850005         2
         1         2         3        34     9        0.000000       -0.495728         3
         1         2         3        34     9      180.000000        0.134356         4
         1         2        25        24     9        0.000000        0.440001         1
         1         2        25        24     9      180.000000       19.804415         2
         1         2        25        24     9        0.000000        0.474665         3
         1         2        25        24     9      180.000000       -0.552499         4
         2         3         4         5     9        0.000000       -0.024194         1
         2         3         4         5     9      180.000000       18.326563         2
         2         3         4         5     9        0.000000       -1.906614         3
         2         3         4         5     9      180.000000       -0.434710         4
         2         3         4        35     9        0.000000        0.156889         1
         2         3         4        35     9      180.000000       14.481877         2
         2         3         4        35     9        0.000000       -0.677476         3
         2         3         4        35     9      180.000000        0.117799         4
         2        25        24         5     9        0.000000        0.271709         1
         2        25        24         5     9      180.000000       21.062206         2
         2        25        24         5     9        0.000000       -0.203752         3
         2        25        24         5     9      180.000000       -0.381306         4
         2        25        24        26     9        0.000000        0.506140         1
         2        25        24        26     9      180.000000       28.011841         2
         2        25        24        26     9        0.000000        0.903539         3
         2        25        24        26     9      180.000000       -0.907823         4
         3         2         1        31     9        0.000000       -0.017449         1
         3         2         1        31     9      180.000000       -0.017526         2
         3         2         1        31     9        0.000000       -0.015327         3
         3         2         1        31     9      180.000000        0.002549         4
         3         2         1        32     9        0.000000       -0.017449         1
         3         2         1        32     9      180.000000       -0.017526         2
         3         2         1        32     9        0.000000       -0.015327         3
         3         2         1        32     9      180.000000        0.002549         4
         3         2         1        33     9        0.000000       -0.017449         1
         3         2         1        33     9      180.000000       -0.017526         2
         3         2         1        33     9        0.000000       -0.015327         3
         3         2         1        33     9      180.000000        0.002549         4
         3         2        25        24     9        0.000000        0.107775         1
         3         2        25        24     9      180.000000       20.777293         2
         3         2        25        24     9        0.000000       -0.460875         3
         3         2        25        24     9      180.000000       -0.203581         4
         3         4         5         6     9        0.000000       -0.073683         1
         3         4         5         6     9      180.000000       15.339219         2
         3         4         5         6     9        0.000000       -0.429222         3
         3         4         5         6     9      180.000000       -0.431701         4
         3         4         5        24     9        0.000000       -0.101077         1
         3         4         5        24     9      180.000000       17.966079         2
         3         4         5        24     9        0.000000       -1.860413         3
         3         4         5        24     9      180.000000       -0.479808         4
         4         3         2        25     9        0.000000       -0.025183         1
         4         3         2        25     9      180.000000       16.433205         2
         4         3         2        25     9        0.000000       -0.761719         3
         4         3         2        25     9      180.000000       -0.447207         4
         4         5         6         7     9        0.000000        1.134974         1
         4         5         6         7     9      180.000000        1.412300         2
         4         5         6         7     9        0.000000        0.499746         3
         4         5         6         7     9      180.000000       -0.018913         4
         4         5         6         8     9        0.000000        2.130003         1
         4         5         6         8     9      180.000000        3.972841         2
         4         5         6         8     9        0.000000        0.325811         3
         4         5         6         8     9      180.000000        0.065117         4
         4         5        24        25     9        0.000000        0.274277         1
         4         5        24        25     9      180.000000       11.063999         2
         4         5        24        25     9        0.000000       -0.477033         3
         4         5        24        25     9      180.000000       -0.249470         4
         4         5        24        26     9        0.000000        0.524367         1
         4         5        24        26     9      180.000000       15.812884         2
         4         5        24        26     9        0.000000        0.250612         3
         4         5        24        26     9      180.000000       -0.541168         4
         5         4         3        34     9        0.000000        0.064891         1
         5         4         3        34     9      180.000000       14.951626         2
         5         4         3        34     9        0.000000       -0.614291         3
         5         4         3        34     9      180.000000       -0.008376         4
         5         6         8         9     9        0.000000        6.030104         1
         5         6         8         9     9      180.000000       12.362760         2
         5         6         8         9     9        0.000000        1.556111         3
         5         6         8         9     9      180.000000       -0.457954         4
         5         6         8        15     9        0.000000        6.030104         1
         5         6         8        15     9      180.000000       12.362758         2
         5         6         8        15     9        0.000000        1.556111         3
         5         6         8        15     9      180.000000       -0.457955         4
         5        24        26        27     9        0.000000        0.407325         1
         5        24        26        27     9      180.000000        3.711217         2
         5        24        26        27     9        0.000000       -0.120754         3
         5        24        26        27     9      180.000000       -0.176096         4
         5        24        26        30     9        0.000000        0.407325         1
         5        24        26        30     9      180.000000        3.711218         2
         5        24        26        30     9        0.000000       -0.120754         3
         5        24        26        30     9      180.000000       -0.176096         4
         6         5         4        35     9        0.000000        0.020507         1
         6         5         4        35     9      180.000000       12.024560         2
         6         5         4        35     9        0.000000       -0.408997         3
         6         5         4        35     9      180.000000        0.194108         4
         6         5        24        25     9        0.000000       -0.849447         1
         6         5        24        25     9      180.000000        8.571937         2
         6         5        24        25     9        0.000000       -0.360865         3
         6         5        24        25     9      180.000000       -0.364643         4
         6         5        24        26     9        0.000000        0.012297         1
         6         5        24        26     9      180.000000       14.443593         2
         6         5        24        26     9        0.000000        0.525550         3
         6         5        24        26     9      180.000000       -0.875794         4
         6         8         9        10     9        0.000000       -0.861707         1
         6         8         9        10     9      180.000000       -0.746418         2
         6         8         9        10     9        0.000000        0.103800         3
         6         8         9        10     9      180.000000        0.162868         4
         6         8         9        36     9        0.000000        0.010768         1
         6         8         9        36     9      180.000000        0.082372         2
         6         8         9        36     9        0.000000        0.090295         3
         6         8         9        36     9      180.000000       -0.009008         4
         6         8         9        37     9        0.000000        0.010768         1
         6         8         9        37     9      180.000000        0.082372         2
         6         8         9        37     9        0.000000        0.090295         3
         6         8         9        37     9      180.000000       -0.009008         4
         6         8        15        14     9        0.000000       -0.861707         1
         6         8        15        14     9      180.000000       -0.746418         2
         6         8        15        14     9        0.000000        0.103800         3
         6         8        15        14     9      180.000000        0.162867         4
         6         8        15        44     9        0.000000        0.010768         1
         6         8        15        44     9      180.000000        0.082371         2
         6         8        15        44     9        0.000000        0.090294         3
         6         8        15        44     9      180.000000       -0.009008         4
         6         8        15        45     9        0.000000        0.010768         1
         6         8        15        45     9      180.000000        0.082371         2
         6         8        15        45     9        0.000000        0.090294         3
         6         8        15        45     9      180.000000       -0.009008         4
         7         6         5        24     9        0.000000       -8.711898         1
         7         6         5        24     9      180.000000        1.817664         2
         7         6         5        24     9        0.000000       -0.032909         3
         7         6         5        24     9      180.000000       -0.013691         4
         7         6         8         9     9        0.000000       -1.577965         1
         7         6         8         9     9      180.000000       13.483327         2
         7         6         8         9     9        0.000000       -1.144369         3
         7         6         8         9     9      180.000000       -0.210694         4
         7         6         8        15     9        0.000000       -1.577965         1
         7         6         8        15     9      180.000000       13.483325         2
         7         6         8        15     9        0.000000       -1.144369         3
         7         6         8        15     9      180.000000       -0.210693         4
         8         6         5        24     9        0.000000       -2.208727         1
         8         6         5        24     9      180.000000        4.579719         2
         8         6         5        24     9        0.000000       -1.051057         3
         8         6         5        24     9      180.000000        0.237473         4
         8         9        10        11     9        0.000000       -0.353172         1
         8         9        10        11     9      180.000000       -1.374605         2
         8         9        10        11     9        0.000000        0.140585         3
         8         9        10        11     9      180.000000        0.081392         4
         8         9        10        14     9        0.000000       -2.894467         1
         8         9        10        14     9      180.000000        7.701298         2
         8         9        10        14     9        0.000000       -0.715827         3
         8         9        10        14     9      180.000000       -1.199155         4
         8         9        10        38     9        0.000000        0.955602         1
         8         9        10        38     9      180.000000       -0.363651         2
         8         9        10        38     9        0.000000       -0.044304         3
         8         9        10        38     9      180.000000        0.240206         4
         8        15        14        10     9        0.000000       -2.894468         1
         8        15        14        10     9      180.000000        7.701300         2
         8        15        14        10     9        0.000000       -0.715828         3
         8        15        14        10     9      180.000000       -1.199155         4
         8        15        14        13     9        0.000000       -0.353172         1
         8        15        14        13     9      180.000000       -1.374605         2
         8        15        14        13     9        0.000000        0.140585         3
         8        15        14        13     9      180.000000        0.081392         4
         8        15        14        43     9        0.000000        0.955601         1
         8        15        14        43     9      180.000000       -0.363650         2
         8        15        14        43     9        0.000000       -0.044304         3
         8        15        14        43     9      180.000000        0.240205         4
         9         8        15        14     9        0.000000       -0.115595         1
         9         8        15        14     9      180.000000       -0.222963         2
         9         8        15        14     9        0.000000        0.229640         3
         9         8        15        14     9      180.000000       -0.048826         4
         9         8        15        44     9        0.000000       -0.042383         1
         9         8        15        44     9      180.000000       -0.002612         2
         9         8        15        44     9        0.000000        0.116133         3
         9         8        15        44     9      180.000000        0.062524         4
         9         8        15        45     9        0.000000       -0.042383         1
         9         8        15        45     9      180.000000       -0.002612         2
         9         8        15        45     9        0.000000        0.116133         3
         9         8        15        45     9      180.000000        0.062524         4
         9        10        11        12     9        0.000000        0.141092         1
         9        10        11        12     9      180.000000       -1.554592         2
         9        10        11        12     9        0.000000        0.129276         3
         9        10        11        12     9      180.000000        0.187853         4
         9        10        11        39     9        0.000000       -0.150867         1
         9        10        11        39     9      180.000000        0.072012         2
         9        10        11        39     9        0.000000        0.214875         3
         9        10        11        39     9      180.000000        0.045179         4
         9        10        11        40     9        0.000000       -0.150867         1
         9        10        11        40     9      180.000000        0.072012         2
         9        10        11        40     9        0.000000        0.214875         3
         9        10        11        40     9      180.000000        0.045179         4
         9        10        14        13     9        0.000000       -1.429697         1
         9        10        14        13     9      180.000000       -0.955406         2
         9        10        14        13     9        0.000000        0.546147         3
         9        10        14        13     9      180.000000       -0.724521         4
         9        10        14        15     9        0.000000       -0.903493         1
         9        10        14        15     9      180.000000       -0.930897         2
         9        10        14        15     9        0.000000        0.568821         3
         9        10        14        15     9      180.000000       -0.686259         4
         9        10        14        43     9        0.000000       -0.022164         1
         9        10        14        43     9      180.000000        0.142976         2
         9        10        14        43     9        0.000000        0.388150         3
         9        10        14        43     9      180.000000        0.197014         4
        10         9         8        15     9        0.000000       -0.115596         1
        10         9         8        15     9      180.000000       -0.222963         2
        10         9         8        15     9        0.000000        0.229640         3
        10         9         8        15     9      180.000000       -0.048826         4
        10        11        12        13     9        0.000000       -0.515519         1
        10        11        12        13     9      180.000000        0.695786         2
        10        11        12        13     9        0.000000        0.374724         3
        10        11        12        13     9      180.000000       -0.306280         4
        10        11        12        16     9        0.000000       -3.777482         1
        10        11        12        16     9      180.000000       -0.445032         2
        10        11        12        16     9        0.000000        0.410580         3
        10        11        12        16     9      180.000000        0.178916         4
        10        14        13        12     9        0.000000       -3.183876         1
        10        14        13        12     9      180.000000       11.770774         2
        10        14        13        12     9        0.000000       -0.669596         3
        10        14        13        12     9      180.000000       -2.371237         4
        10        14        13        41     9        0.000000        0.005453         1
        10        14        13        41     9      180.000000       -0.187956         2
        10        14        13        41     9        0.000000       -0.253494         3
        10        14        13        41     9      180.000000        0.289445         4
        10        14        13        42     9        0.000000        0.005453         1
        10        14        13        42     9      180.000000       -0.187956         2
        10        14        13        42     9        0.000000       -0.253494         3
        10        14        13        42     9      180.000000        0.289446         4
        10        14        15        44     9        0.000000        0.022483         1
        10        14        15        44     9      180.000000       -0.185435         2
        10        14        15        44     9        0.000000       -0.302149         3
        10        14        15        44     9      180.000000        0.229395         4
        10        14        15        45     9        0.000000        0.022483         1
        10        14        15        45     9      180.000000       -0.185435         2
        10        14        15        45     9        0.000000       -0.302149         3
        10        14        15        45     9      180.000000        0.229395         4
        11        10         9        36     9        0.000000       -0.090271         1
        11        10         9        36     9      180.000000        0.043314         2
        11        10         9        36     9        0.000000        0.181102         3
        11        10         9        36     9      180.000000        0.056845         4
        11        10         9        37     9        0.000000       -0.090271         1
        11        10         9        37     9      180.000000        0.043314         2
        11        10         9        37     9        0.000000        0.181102         3
        11        10         9        37     9      180.000000        0.056845         4
        11        10        14        13     9        0.000000       -1.723215         1
        11        10        14        13     9      180.000000       -1.104300         2
        11        10        14        13     9        0.000000        0.465854         3
        11        10        14        13     9      180.000000       -0.749204         4
        11        10        14        15     9        0.000000       -1.429696         1
        11        10        14        15     9      180.000000       -0.955407         2
        11        10        14        15     9        0.000000        0.546147         3
        11        10        14        15     9      180.000000       -0.724520         4
        11        10        14        43     9        0.000000        0.196399         1
        11        10        14        43     9      180.000000        0.124290         2
        11        10        14        43     9        0.000000        0.308842         3
        11        10        14        43     9      180.000000        0.285300         4
        11        12        13        14     9        0.000000       -0.515520         1
        11        12        13        14     9      180.000000        0.695785         2
        11        12        13        14     9        0.000000        0.374724         3
        11        12        13        14     9      180.000000       -0.306280         4
        11        12        13        41     9        0.000000       -0.040239         1
        11        12        13        41     9      180.000000       -0.063462         2
        11        12        13        41     9        0.000000        0.343610         3
        11        12        13        41     9      180.000000        0.107466         4
        11        12        13        42     9        0.000000       -0.040239         1
        11        12        13        42     9      180.000000       -0.063463         2
        11        12        13        42     9        0.000000        0.343610         3
        11        12        13        42     9      180.000000        0.107466         4
        11        12        16        17     9        0.000000        0.747628         1
        11        12        16        17     9      180.000000        9.366863         2
        11        12        16        17     9        0.000000       -0.095722         3
        11        12        16        17     9      180.000000       -1.018207         4
        11        12        16        23     9        0.000000        0.747628         1
        11        12        16        23     9      180.000000        9.366864         2
        11        12        16        23     9        0.000000       -0.095723         3
        11        12        16        23     9      180.000000       -1.018206         4
        12        11        10        14     9        0.000000       -3.183874         1
        12        11        10        14     9      180.000000       11.770770         2
        12        11        10        14     9        0.000000       -0.669596         3
        12        11        10        14     9      180.000000       -2.371236         4
        12        11        10        38     9        0.000000        3.046268         1
        12        11        10        38     9      180.000000       -0.789547         2
        12        11        10        38     9        0.000000       -0.188589         3
        12        11        10        38     9      180.000000        0.438255         4
        12        13        14        15     9        0.000000        0.141091         1
        12        13        14        15     9      180.000000       -1.554592         2
        12        13        14        15     9        0.000000        0.129275         3
        12        13        14        15     9      180.000000        0.187853         4
        12        13        14        43     9        0.000000        3.046267         1
        12        13        14        43     9      180.000000       -0.789546         2
        12        13        14        43     9        0.000000       -0.188588         3
        12        13        14        43     9      180.000000        0.438255         4
        12        16        17        18     9        0.000000        1.229501         1
        12        16        17        18     9      180.000000       16.103331         2
        12        16        17        18     9        0.000000        0.664455         3
        12        16        17        18     9      180.000000       -1.018198         4
        12        16        23        21     9        0.000000        1.229502         1
        12        16        23        21     9      180.000000       16.103329         2
        12        16        23        21     9        0.000000        0.664456         3
        12        16        23        21     9      180.000000       -1.018198         4
        13        12        11        39     9        0.000000       -0.040239         1
        13        12        11        39     9      180.000000       -0.063462         2
        13        12        11        39     9        0.000000        0.343610         3
        13        12        11        39     9      180.000000        0.107466         4
        13        12        11        40     9        0.000000       -0.040239         1
        13        12        11        40     9      180.000000       -0.063462         2
        13        12        11        40     9        0.000000        0.343610         3
        13        12        11        40     9      180.000000        0.107466         4
        13        12        16        17     9        0.000000        0.747627         1
        13        12        16        17     9      180.000000        9.366865         2
        13        12        16        17     9        0.000000       -0.095722         3
        13        12        16        17     9      180.000000       -1.018207         4
        13        12        16        23     9        0.000000        0.747630         1
        13        12        16        23     9      180.000000        9.366864         2
        13        12        16        23     9        0.000000       -0.095722         3
        13        12        16        23     9      180.000000       -1.018207         4
        13        14        10        38     9        0.000000        0.196399         1
        13        14        10        38     9      180.000000        0.124291         2
        13        14        10        38     9        0.000000        0.308842         3
        13        14        10        38     9      180.000000        0.285299         4
        13        14        15        44     9        0.000000       -0.090272         1
        13        14        15        44     9      180.000000        0.043314         2
        13        14        15        44     9        0.000000        0.181102         3
        13        14        15        44     9      180.000000        0.056845         4
        13        14        15        45     9        0.000000       -0.090272         1
        13        14        15        45     9      180.000000        0.043314         2
        13        14        15        45     9        0.000000        0.181102         3
        13        14        15        45     9      180.000000        0.056845         4
        14        10         9        36     9        0.000000        0.022484         1
        14        10         9        36     9      180.000000       -0.185435         2
        14        10         9        36     9        0.000000       -0.302150         3
        14        10         9        36     9      180.000000        0.229395         4
        14        10         9        37     9        0.000000        0.022484         1
        14        10         9        37     9      180.000000       -0.185435         2
        14        10         9        37     9        0.000000       -0.302150         3
        14        10         9        37     9      180.000000        0.229395         4
        14        10        11        39     9        0.000000        0.005453         1
        14        10        11        39     9      180.000000       -0.187956         2
        14        10        11        39     9        0.000000       -0.253494         3
        14        10        11        39     9      180.000000        0.289446         4
        14        10        11        40     9        0.000000        0.005453         1
        14        10        11        40     9      180.000000       -0.187956         2
        14        10        11        40     9        0.000000       -0.253494         3
        14        10        11        40     9      180.000000        0.289446         4
        14        13        12        16     9        0.000000       -3.777480         1
        14        13        12        16     9      180.000000       -0.445033         2
        14        13        12        16     9        0.000000        0.410580         3
        14        13        12        16     9      180.000000        0.178916         4
        15         8         9        36     9        0.000000       -0.042384         1
        15         8         9        36     9      180.000000       -0.002611         2
        15         8         9        36     9        0.000000        0.116134         3
        15         8         9        36     9      180.000000        0.062524         4
        15         8         9        37     9        0.000000       -0.042384         1
        15         8         9        37     9      180.000000       -0.002611         2
        15         8         9        37     9        0.000000        0.116134         3
        15         8         9        37     9      180.000000        0.062524         4
        15        14        10        38     9        0.000000       -0.022164         1
        15        14        10        38     9      180.000000        0.142975         2
        15        14        10        38     9        0.000000        0.388149         3
        15        14        10        38     9      180.000000        0.197014         4
        15        14        13        41     9        0.000000       -0.150867         1
        15        14        13        41     9      180.000000        0.072012         2
        15        14        13        41     9        0.000000        0.214875         3
        15        14        13        41     9      180.000000        0.045179         4
        15        14        13        42     9        0.000000       -0.150867         1
        15        14        13        42     9      180.000000        0.072012         2
        15        14        13        42     9        0.000000        0.214875         3
        15        14        13        42     9      180.000000        0.045179         4
        16        12        11        39     9        0.000000       -0.010160         1
        16        12        11        39     9      180.000000       -0.080811         2
        16        12        11        39     9        0.000000        0.536714         3
        16        12        11        39     9      180.000000       -0.022062         4
        16        12        11        40     9        0.000000       -0.010160         1
        16        12        11        40     9      180.000000       -0.080811         2
        16        12        11        40     9        0.000000        0.536714         3
        16        12        11        40     9      180.000000       -0.022062         4
        16        12        13        41     9        0.000000       -0.010161         1
        16        12        13        41     9      180.000000       -0.080811         2
        16        12        13        41     9        0.000000        0.536714         3
        16        12        13        41     9      180.000000       -0.022063         4
        16        12        13        42     9        0.000000       -0.010161         1
        16        12        13        42     9      180.000000       -0.080811         2
        16        12        13        42     9        0.000000        0.536714         3
        16        12        13        42     9      180.000000       -0.022062         4
        16        17        18        19     9        0.000000       -0.024261         1
        16        17        18        19     9      180.000000       17.595206         2
        16        17        18        19     9        0.000000        0.133710         3
        16        17        18        19     9      180.000000       -0.526294         4
        16        17        18        20     9        0.000000       -0.379284         1
        16        17        18        20     9      180.000000       19.341467         2
        16        17        18        20     9        0.000000       -1.106329         3
        16        17        18        20     9      180.000000       -0.500796         4
        16        23        21        20     9        0.000000       -0.379284         1
        16        23        21        20     9      180.000000       19.341467         2
        16        23        21        20     9        0.000000       -1.106329         3
        16        23        21        20     9      180.000000       -0.500796         4
        16        23        21        22     9        0.000000       -0.024262         1
        16        23        21        22     9      180.000000       17.595210         2
        16        23        21        22     9        0.000000        0.133710         3
        16        23        21        22     9      180.000000       -0.526294         4
        17        16        23        21     9        0.000000        0.513199         1
        17        16        23        21     9      180.000000        9.191426         2
        17        16        23        21     9        0.000000        0.738957         3
        17        16        23        21     9      180.000000       -0.519149         4
        17        18        19        46     9        0.000000        0.003881         1
        17        18        19        46     9      180.000000       -0.062736         2
        17        18        19        46     9        0.000000        0.023444         3
        17        18        19        46     9      180.000000       -0.007650         4
        17        18        19        47     9        0.000000        0.003881         1
        17        18        19        47     9      180.000000       -0.062736         2
        17        18        19        47     9        0.000000        0.023444         3
        17        18        19        47     9      180.000000       -0.007650         4
        17        18        19        48     9        0.000000        0.003881         1
        17        18        19        48     9      180.000000       -0.062736         2
        17        18        19        48     9        0.000000        0.023444         3
        17        18        19        48     9      180.000000       -0.007650         4
        17        18        20        21     9        0.000000       -0.062247         1
        17        18        20        21     9      180.000000       14.568155         2
        17        18        20        21     9        0.000000       -0.276619         3
        17        18        20        21     9      180.000000       -0.509286         4
        17        18        20        49     9        0.000000       -0.034010         1
        17        18        20        49     9      180.000000       12.223299         2
        17        18        20        49     9        0.000000       -0.267637         3
        17        18        20        49     9      180.000000       -0.072661         4
        18        17        16        23     9        0.000000        0.513200         1
        18        17        16        23     9      180.000000        9.191426         2
        18        17        16        23     9        0.000000        0.738957         3
        18        17        16        23     9      180.000000       -0.519149         4
        18        20        21        22     9        0.000000        0.256556         1
        18        20        21        22     9      180.000000       13.179426         2
        18        20        21        22     9        0.000000       -0.097633         3
        18        20        21        22     9      180.000000       -0.317869         4
        18        20        21        23     9        0.000000       -0.062248         1
        18        20        21        23     9      180.000000       14.568153         2
        18        20        21        23     9        0.000000       -0.276618         3
        18        20        21        23     9      180.000000       -0.509287         4
        19        18        20        21     9        0.000000        0.256556         1
        19        18        20        21     9      180.000000       13.179428         2
        19        18        20        21     9        0.000000       -0.097633         3
        19        18        20        21     9      180.000000       -0.317869         4
        19        18        20        49     9        0.000000       -0.223957         1
        19        18        20        49     9      180.000000       11.375068         2
        19        18        20        49     9        0.000000       -0.534832         3
        19        18        20        49     9      180.000000        0.134009         4
        20        18        19        46     9        0.000000       -0.025287         1
        20        18        19        46     9      180.000000       -0.035803         2
        20        18        19        46     9        0.000000       -0.089579         3
        20        18        19        46     9      180.000000        0.005712         4
        20        18        19        47     9        0.000000       -0.025287         1
        20        18        19        47     9      180.000000       -0.035803         2
        20        18        19        47     9        0.000000       -0.089579         3
        20        18        19        47     9      180.000000        0.005712         4
        20        18        19        48     9        0.000000       -0.025287         1
        20        18        19        48     9      180.000000       -0.035803         2
        20        18        19        48     9        0.000000       -0.089579         3
        20        18        19        48     9      180.000000        0.005712         4
        20        21        22        50     9        0.000000       -0.025287         1
        20        21        22        50     9      180.000000       -0.035803         2
        20        21        22        50     9        0.000000       -0.089578         3
        20        21        22        50     9      180.000000        0.005712         4
        20        21        22        51     9        0.000000       -0.025287         1
        20        21        22        51     9      180.000000       -0.035803         2
        20        21        22        51     9        0.000000       -0.089578         3
        20        21        22        51     9      180.000000        0.005712         4
        20        21        22        52     9        0.000000       -0.025287         1
        20        21        22        52     9      180.000000       -0.035803         2
        20        21        22        52     9        0.000000       -0.089578         3
        20        21        22        52     9      180.000000        0.005712         4
        22        21        20        49     9        0.000000       -0.223957         1
        22        21        20        49     9      180.000000       11.375068         2
        22        21        20        49     9        0.000000       -0.534831         3
        22        21        20        49     9      180.000000        0.134009         4
        23        21        20        49     9        0.000000       -0.034010         1
        23        21        20        49     9      180.000000       12.223298         2
        23        21        20        49     9        0.000000       -0.267637         3
        23        21        20        49     9      180.000000       -0.072661         4
        23        21        22        50     9        0.000000        0.003880         1
        23        21        22        50     9      180.000000       -0.062734         2
        23        21        22        50     9        0.000000        0.023445         3
        23        21        22        50     9      180.000000       -0.007650         4
        23        21        22        51     9        0.000000        0.003880         1
        23        21        22        51     9      180.000000       -0.062734         2
        23        21        22        51     9        0.000000        0.023445         3
        23        21        22        51     9      180.000000       -0.007650         4
        23        21        22        52     9        0.000000        0.003880         1
        23        21        22        52     9      180.000000       -0.062734         2
        23        21        22        52     9        0.000000        0.023445         3
        23        21        22        52     9      180.000000       -0.007650         4
        24         5         4        35     9        0.000000        0.413469         1
        24         5         4        35     9      180.000000       13.607079         2
        24         5         4        35     9        0.000000       -0.395650         3
        24         5         4        35     9      180.000000        0.062570         4
        24        26        27        28     9        0.000000        1.323953         1
        24        26        27        28     9      180.000000       12.011038         2
        24        26        27        28     9        0.000000        0.622594         3
        24        26        27        28     9      180.000000       -0.196910         4
        24        26        30        29     9        0.000000        1.323954         1
        24        26        30        29     9      180.000000       12.011038         2
        24        26        30        29     9        0.000000        0.622594         3
        24        26        30        29     9      180.000000       -0.196910         4
        25         2         1        31     9        0.000000       -0.044044         1
        25         2         1        31     9      180.000000        0.017281         2
        25         2         1        31     9        0.000000        0.082591         3
        25         2         1        31     9      180.000000       -0.012814         4
        25         2         1        32     9        0.000000       -0.044044         1
        25         2         1        32     9      180.000000        0.017281         2
        25         2         1        32     9        0.000000        0.082591         3
        25         2         1        32     9      180.000000       -0.012814         4
        25         2         1        33     9        0.000000       -0.044044         1
        25         2         1        33     9      180.000000        0.017281         2
        25         2         1        33     9        0.000000        0.082591         3
        25         2         1        33     9      180.000000       -0.012814         4
        25         2         3        34     9        0.000000       -0.102263         1
        25         2         3        34     9      180.000000       13.295246         2
        25         2         3        34     9        0.000000       -0.144872         3
        25         2         3        34     9      180.000000       -0.232503         4
        25        24        26        27     9        0.000000       -1.360949         1
        25        24        26        27     9      180.000000        3.046083         2
        25        24        26        27     9        0.000000        0.155344         3
        25        24        26        27     9      180.000000       -0.256153         4
        25        24        26        30     9        0.000000       -1.360949         1
        25        24        26        30     9      180.000000        3.046083         2
        25        24        26        30     9        0.000000        0.155344         3
        25        24        26        30     9      180.000000       -0.256153         4
        26        27        28        29     9        0.000000       -0.145079         1
        26        27        28        29     9      180.000000       41.891868         2
        26        27        28        29     9        0.000000       -5.948835         3
        26        27        28        29     9      180.000000        0.104471         4
        26        27        28        53     9        0.000000        1.494425         1
        26        27        28        53     9      180.000000       26.997050         2
        26        27        28        53     9        0.000000       -0.176560         3
        26        27        28        53     9      180.000000       -0.078363         4
        26        30        29        28     9        0.000000       -0.145080         1
        26        30        29        28     9      180.000000       41.891872         2
        26        30        29        28     9        0.000000       -5.948835         3
        26        30        29        28     9      180.000000        0.104470         4
        26        30        29        54     9        0.000000        1.494427         1
        26        30        29        54     9      180.000000       26.997054         2
        26        30        29        54     9        0.000000       -0.176561         3
        26        30        29        54     9      180.000000       -0.078363         4
        27        26        30        29     9        0.000000       -0.258251         1
        27        26        30        29     9      180.000000       31.526563         2
        27        26        30        29     9        0.000000       -5.669299         3
        27        26        30        29     9      180.000000        0.251008         4
        27        28        29        30     9        0.000000       -0.508336         1
        27        28        29        30     9      180.000000       33.632054         2
        27        28        29        30     9        0.000000       -7.882820         3
        27        28        29        30     9      180.000000       -0.042784         4
        27        28        29        54     9        0.000000        0.447932         1
        27        28        29        54     9      180.000000       16.050788         2
        27        28        29        54     9        0.000000       -0.660774         3
        27        28        29        54     9      180.000000       -0.509271         4
        28        27        26        30     9        0.000000       -0.258253         1
        28        27        26        30     9      180.000000       31.526563         2
        28        27        26        30     9        0.000000       -5.669298         3
        28        27        26        30     9      180.000000        0.251007         4
        30        29        28        53     9        0.000000        0.447932         1
        30        29        28        53     9      180.000000       16.050789         2
        30        29        28        53     9        0.000000       -0.660774         3
        30        29        28        53     9      180.000000       -0.509271         4
        34         3         4        35     9        0.000000       -0.219547         1
        34         3         4        35     9      180.000000       12.209605         2
        34         3         4        35     9        0.000000       -0.701281         3
        34         3         4        35     9      180.000000        0.247118         4
        36         9        10        38     9        0.000000       -0.086594         1
        36         9        10        38     9      180.000000        0.026399         2
        36         9        10        38     9        0.000000        0.269152         3
        36         9        10        38     9      180.000000       -0.020189         4
        37         9        10        38     9        0.000000       -0.086594         1
        37         9        10        38     9      180.000000        0.026399         2
        37         9        10        38     9        0.000000        0.269152         3
        37         9        10        38     9      180.000000       -0.020189         4
        38        10        11        39     9        0.000000       -0.140740         1
        38        10        11        39     9      180.000000       -0.009946         2
        38        10        11        39     9        0.000000        0.295617         3
        38        10        11        39     9      180.000000       -0.018107         4
        38        10        11        40     9        0.000000       -0.140740         1
        38        10        11        40     9      180.000000       -0.009946         2
        38        10        11        40     9        0.000000        0.295617         3
        38        10        11        40     9      180.000000       -0.018107         4
        38        10        14        43     9        0.000000        0.223574         1
        38        10        14        43     9      180.000000       -0.077959         2
        38        10        14        43     9        0.000000        0.353694         3
        38        10        14        43     9      180.000000       -0.057173         4
        41        13        14        43     9        0.000000       -0.140741         1
        41        13        14        43     9      180.000000       -0.009947         2
        41        13        14        43     9        0.000000        0.295617         3
        41        13        14        43     9      180.000000       -0.018107         4
        42        13        14        43     9        0.000000       -0.140741         1
        42        13        14        43     9      180.000000       -0.009947         2
        42        13        14        43     9        0.000000        0.295617         3
        42        13        14        43     9      180.000000       -0.018107         4
        43        14        15        44     9        0.000000       -0.086596         1
        43        14        15        44     9      180.000000        0.026399         2
        43        14        15        44     9        0.000000        0.269152         3
        43        14        15        44     9      180.000000       -0.020190         4
        43        14        15        45     9        0.000000       -0.086596         1
        43        14        15        45     9      180.000000        0.026399         2
        43        14        15        45     9        0.000000        0.269152         3
        43        14        15        45     9      180.000000       -0.020190         4
        53        28        29        54     9        0.000000       -0.308156         1
        53        28        29        54     9      180.000000        8.280669         2
        53        28        29        54     9        0.000000       -0.135636         3
        53        28        29        54     9      180.000000        0.272223         4

[ dihedrals ] ; impropers
;       ai        aj        ak        al funct           phase               k        pn
         2         1         3        25     4      180.000000       12.403717         2
         2         3        25         1     4      180.000000       12.403717         2
         2        25         1         3     4      180.000000       12.403717         2
         3         2         4        34     4      180.000000        0.141485         2
         3         4        34         2     4      180.000000        0.141485         2
         3        34         2         4     4      180.000000        0.141485         2
         4         3         5        35     4      180.000000        1.583360         2
         4         5        35         3     4      180.000000        1.583360         2
         4        35         3         5     4      180.000000        1.583360         2
        16        12        17        23     4      180.000000       27.893333         2
        16        17        23        12     4      180.000000       27.893333         2
        16        23        12        17     4      180.000000       27.893333         2
        18        17        19        20     4      180.000000       21.793922         2
        18        19        20        17     4      180.000000       21.793922         2
        18        20        17        19     4      180.000000       21.793922         2
        21        20        22        23     4      180.000000       21.793918         2
        21        22        23        20     4      180.000000       21.793918         2
        21        23        20        22     4      180.000000       21.793918         2

[ pairs ]
;       ai        aj funct
         1         4     1
         1        24     1
         1        34     1
         2         5     1
         2        26     1
         2        35     1
         3         6     1
         3        24     1
         3        31     1
         3        32     1
         3        33     1
         4         7     1
         4         8     1
         4        25     1
         4        26     1
         5         9     1
         5        15     1
         5        27     1
         5        30     1
         5        34     1
         6        10     1
         6        14     1
         6        25     1
         6        26     1
         6        35     1
         6        36     1
         6        37     1
         6        44     1
         6        45     1
         7         9     1
         7        15     1
         7        24     1
         8        11     1
         8        13     1
         8        24     1
         8        38     1
         8        43     1
         9        12     1
         9        13     1
         9        39     1
         9        40     1
         9        43     1
         9        44     1
         9        45     1
        10        16     1
        10        41     1
        10        42     1
        10        44     1
        10        45     1
        11        15     1
        11        17     1
        11        23     1
        11        36     1
        11        37     1
        11        41     1
        11        42     1
        11        43     1
        12        15     1
        12        18     1
        12        21     1
        12        38     1
        12        43     1
        13        17     1
        13        23     1
        13        38     1
        13        39     1
        13        40     1
        13        44     1
        13        45     1
        14        16     1
        14        36     1
        14        37     1
        14        39     1
        14        40     1
        15        36     1
        15        37     1
        15        38     1
        15        41     1
        15        42     1
        16        19     1
        16        20     1
        16        22     1
        16        39     1
        16        40     1
        16        41     1
        16        42     1
        17        21     1
        17        46     1
        17        47     1
        17        48     1
        17        49     1
        18        22     1
        18        23     1
        19        21     1
        19        49     1
        20        46     1
        20        47     1
        20        48     1
        20        50     1
        20        51     1
        20        52     1
        22        49     1
        23        49     1
        23        50     1
        23        51     1
        23        52     1
        24        28     1
        24        29     1
        24        35     1
        25        27     1
        25        30     1
        25        31     1
        25        32     1
        25        33     1
        25        34     1
        26        53     1
        26        54     1
        27        54     1
        30        53     1
        34        35     1
        36        38     1
        37        38     1
        38        39     1
        38        40     1
        38        43     1
        41        43     1
        42        43     1
        43        44     1
        43        45     1
        53        54     1
