; ITP file created by ByteFF-ML, 2025-12-06 04:40:01.545233

[ atomtypes ]
;name           bonded.type        at.num        mass        charge   ptype           sigma         epsilon
 c0bf                                   6      0.0000       0.00000       A     3.39813e-01     4.50976e-01
 c1bf                                   6      0.0000       0.00000       A     3.31356e-01     4.11183e-01
 c2bf                                   6      0.0000       0.00000       A     3.31508e-01     4.12834e-01
 c3bf                                   6      0.0000       0.00000       A     3.31356e-01     4.11183e-01
 c4bf                                   6      0.0000       0.00000       A     3.39813e-01     4.50976e-01
 n5bf                                   7      0.0000       0.00000       A     3.38255e-01     3.94373e-01
 c6bf                                   6      0.0000       0.00000       A     3.31548e-01     4.12659e-01
 n7bf                                   7      0.0000       0.00000       A     3.38255e-01     3.94373e-01
 n8bf                                   7      0.0000       0.00000       A     3.19428e-01     8.94136e-01
 c9bf                                   6      0.0000       0.00000       A     3.39585e-01     4.49212e-01
 c10bf                                  6      0.0000       0.00000       A     3.39712e-01     4.49806e-01
 c11bf                                  6      0.0000       0.00000       A     3.39727e-01     4.50797e-01
 n12bf                                  7      0.0000       0.00000       A     3.18141e-01     6.81151e-01
 c13bf                                  6      0.0000       0.00000       A     3.39727e-01     4.50797e-01
 c14bf                                  6      0.0000       0.00000       A     3.39712e-01     4.49806e-01
 c15bf                                  6      0.0000       0.00000       A     3.39585e-01     4.49212e-01
 c16bf                                  6      0.0000       0.00000       A     3.31356e-01     4.10365e-01
 o17bf                                  8      0.0000       0.00000       A     3.04770e-01     6.12733e-01
 c18bf                                  6      0.0000       0.00000       A     3.31442e-01     4.11773e-01
 c19bf                                  6      0.0000       0.00000       A     3.31470e-01     4.12100e-01
 c20bf                                  6      0.0000       0.00000       A     3.31512e-01     4.12592e-01
 c21bf                                  6      0.0000       0.00000       A     3.31549e-01     4.12782e-01
 cl22bf                                17      0.0000       0.00000       A     3.46765e-01     1.10432e+00
 c23bf                                  6      0.0000       0.00000       A     3.31441e-01     4.10469e-01
 c24bf                                  6      0.0000       0.00000       A     3.31560e-01     4.14753e-01
 n25bf                                  7      0.0000       0.00000       A     3.20826e-01     8.47976e-01
 n26bf                                  7      0.0000       0.00000       A     3.38251e-01     3.94826e-01
 c27bf                                  6      0.0000       0.00000       A     3.31301e-01     4.12308e-01
 c28bf                                  6      0.0000       0.00000       A     3.31301e-01     4.12308e-01
 n29bf                                  7      0.0000       0.00000       A     3.38251e-01     3.94826e-01
 h30bf                                  1      0.0000       0.00000       A     2.59989e-01     8.71151e-02
 h31bf                                  1      0.0000       0.00000       A     2.59989e-01     8.71151e-02
 h32bf                                  1      0.0000       0.00000       A     2.59989e-01     8.71151e-02
 h33bf                                  1      0.0000       0.00000       A     2.62556e-01     6.77132e-02
 h34bf                                  1      0.0000       0.00000       A     2.59989e-01     8.71151e-02
 h35bf                                  1      0.0000       0.00000       A     2.59989e-01     8.71151e-02
 h36bf                                  1      0.0000       0.00000       A     2.59989e-01     8.71151e-02
 h37bf                                  1      0.0000       0.00000       A     2.42127e-01     8.72842e-02
 h38bf                                  1      0.0000       0.00000       A     2.42127e-01     8.72842e-02
 h39bf                                  1      0.0000       0.00000       A     2.60149e-01     8.67575e-02
 h40bf                                  1      0.0000       0.00000       A     2.42171e-01     8.72571e-02
 h41bf                                  1      0.0000       0.00000       A     2.42171e-01     8.72571e-02
 h42bf                                  1      0.0000       0.00000       A     2.42171e-01     8.72571e-02
 h43bf                                  1      0.0000       0.00000       A     2.42171e-01     8.72571e-02
 h44bf                                  1      0.0000       0.00000       A     2.60149e-01     8.67575e-02
 h45bf                                  1      0.0000       0.00000       A     2.42127e-01     8.72842e-02
 h46bf                                  1      0.0000       0.00000       A     2.42127e-01     8.72842e-02
 h47bf                                  1      0.0000       0.00000       A     2.62413e-01     6.73573e-02
 h48bf                                  1      0.0000       0.00000       A     2.62498e-01     6.72536e-02
 h49bf                                  1      0.0000       0.00000       A     2.62388e-01     6.79080e-02
 h50bf                                  1      0.0000       0.00000       A     2.53897e-01     6.74946e-02
 h51bf                                  1      0.0000       0.00000       A     2.53897e-01     6.74946e-02

[ moleculetype ]
;name             nrexcl
 set_2_21              3

[ atoms ]
;       nr            type      resi   res      atom      cgnr      charge          mass ; qtot
         1            c0bf         1   UNL        c0         1    -0.15050       12.0110 ; qtot   -0.150
         2            c1bf         1   UNL        c1         2     0.16283       12.0110 ; qtot    0.012
         3            c2bf         1   UNL        c2         3    -0.27614       12.0110 ; qtot   -0.264
         4            c3bf         1   UNL        c3         4     0.16283       12.0110 ; qtot   -0.101
         5            c4bf         1   UNL        c4         5    -0.15050       12.0110 ; qtot   -0.251
         6            n5bf         1   UNL        n5         6    -0.25087       14.0070 ; qtot   -0.502
         7            c6bf         1   UNL        c6         7     0.38591       12.0110 ; qtot   -0.116
         8            n7bf         1   UNL        n7         8    -0.25087       14.0070 ; qtot   -0.367
         9            n8bf         1   UNL        n8         9    -0.78178       14.0070 ; qtot   -1.149
        10            c9bf         1   UNL        c9        10     0.23669       12.0110 ; qtot   -0.912
        11           c10bf         1   UNL       c10        11    -0.10223       12.0110 ; qtot   -1.015
        12           c11bf         1   UNL       c11        12     0.10928       12.0110 ; qtot   -0.905
        13           n12bf         1   UNL       n12        13    -0.41105       14.0070 ; qtot   -1.316
        14           c13bf         1   UNL       c13        14     0.10928       12.0110 ; qtot   -1.207
        15           c14bf         1   UNL       c14        15    -0.10223       12.0110 ; qtot   -1.309
        16           c15bf         1   UNL       c15        16     0.23669       12.0110 ; qtot   -1.073
        17           c16bf         1   UNL       c16        17     0.63095       12.0110 ; qtot   -0.442
        18           o17bf         1   UNL       o17        18    -0.59049       15.9990 ; qtot   -1.032
        19           c18bf         1   UNL       c18        19    -0.13201       12.0110 ; qtot   -1.164
        20           c19bf         1   UNL       c19        20    -0.05769       12.0110 ; qtot   -1.222
        21           c20bf         1   UNL       c20        21    -0.10432       12.0110 ; qtot   -1.326
        22           c21bf         1   UNL       c21        22     0.14420       12.0110 ; qtot   -1.182
        23          cl22bf         1   UNL      cl22        23    -0.19934       35.4530 ; qtot   -1.381
        24           c23bf         1   UNL       c23        24    -0.09164       12.0110 ; qtot   -1.473
        25           c24bf         1   UNL       c24        25     0.06764       12.0110 ; qtot   -1.405
        26           n25bf         1   UNL       n25        26     0.31059       14.0070 ; qtot   -1.095
        27           n26bf         1   UNL       n26        27    -0.47730       14.0070 ; qtot   -1.572
        28           c27bf         1   UNL       c27        28     0.20629       12.0110 ; qtot   -1.366
        29           c28bf         1   UNL       c28        29     0.20629       12.0110 ; qtot   -1.159
        30           n29bf         1   UNL       n29        30    -0.47730       14.0070 ; qtot   -1.637
        31           h30bf         1   UNL       h30        31     0.05717        1.0080 ; qtot   -1.580
        32           h31bf         1   UNL       h31        32     0.05717        1.0080 ; qtot   -1.522
        33           h32bf         1   UNL       h32        33     0.05717        1.0080 ; qtot   -1.465
        34           h33bf         1   UNL       h33        34     0.13105        1.0080 ; qtot   -1.334
        35           h34bf         1   UNL       h34        35     0.05717        1.0080 ; qtot   -1.277
        36           h35bf         1   UNL       h35        36     0.05717        1.0080 ; qtot   -1.220
        37           h36bf         1   UNL       h36        37     0.05717        1.0080 ; qtot   -1.163
        38           h37bf         1   UNL       h37        38     0.05798        1.0080 ; qtot   -1.105
        39           h38bf         1   UNL       h38        39     0.05798        1.0080 ; qtot   -1.047
        40           h39bf         1   UNL       h39        40     0.07208        1.0080 ; qtot   -0.975
        41           h40bf         1   UNL       h40        41     0.06015        1.0080 ; qtot   -0.915
        42           h41bf         1   UNL       h41        42     0.06015        1.0080 ; qtot   -0.854
        43           h42bf         1   UNL       h42        43     0.06015        1.0080 ; qtot   -0.794
        44           h43bf         1   UNL       h43        44     0.06015        1.0080 ; qtot   -0.734
        45           h44bf         1   UNL       h44        45     0.07208        1.0080 ; qtot   -0.662
        46           h45bf         1   UNL       h45        46     0.05798        1.0080 ; qtot   -0.604
        47           h46bf         1   UNL       h46        47     0.05798        1.0080 ; qtot   -0.546
        48           h47bf         1   UNL       h47        48     0.13431        1.0080 ; qtot   -0.412
        49           h48bf         1   UNL       h48        49     0.13953        1.0080 ; qtot   -0.272
        50           h49bf         1   UNL       h49        50     0.15967        1.0080 ; qtot   -0.113
        51           h50bf         1   UNL       h50        51     0.05626        1.0080 ; qtot   -0.056
        52           h51bf         1   UNL       h51        52     0.05627        1.0080 ; qtot    0.000

[ bonds ]
;       ai        aj funct               r               k
         1         2     1        0.150694   207469.745923
         1        31     1        0.109354   305309.983691
         1        32     1        0.109354   305309.983691
         1        33     1        0.109354   305309.983691
         2         3     1        0.140051   285005.555713
         2         8     1        0.133745   333057.585254
         3         4     1        0.140051   285005.555713
         3        34     1        0.108514   321723.577686
         4         5     1        0.150694   207469.745923
         4         6     1        0.133745   333057.585254
         5        35     1        0.109354   305309.983691
         5        36     1        0.109354   305309.983691
         5        37     1        0.109354   305309.983691
         6         7     1        0.135061   255154.794434
         7         8     1        0.135061   255154.794434
         7         9     1        0.136150   322423.090186
         9        10     1        0.146885   181060.582568
         9        16     1        0.146885   181060.557031
        10        11     1        0.153334   175036.020947
        10        38     1        0.109481   294444.786377
        10        39     1        0.109481   294444.786377
        11        12     1        0.153427   175080.787500
        11        15     1        0.154277   149842.130322
        11        40     1        0.109325   303915.887354
        12        13     1        0.147342   175956.850806
        12        41     1        0.109385   298254.744336
        12        42     1        0.109385   298254.744336
        13        14     1        0.147342   175956.876343
        13        17     1        0.136001   308789.287158
        14        15     1        0.153427   175080.787500
        14        43     1        0.109385   298254.744336
        14        44     1        0.109385   298254.744336
        15        16     1        0.153334   175036.020947
        15        45     1        0.109325   303915.912891
        16        46     1        0.109481   294444.811914
        16        47     1        0.109481   294444.811914
        17        18     1        0.123425   589803.750195
        17        19     1        0.151190   178735.696899
        19        20     1        0.140131   294211.249512
        19        25     1        0.140445   274611.569141
        20        21     1        0.139496   313260.605176
        20        48     1        0.108496   323245.104199
        21        22     1        0.139683   297712.489355
        21        49     1        0.108428   326587.375537
        22        23     1        0.175532   150107.371509
        22        24     1        0.139254   313875.232324
        24        25     1        0.139973   293344.290186
        24        50     1        0.108303   329401.590527
        25        26     1        0.142187   231535.113379
        26        27     1        0.134033   245088.678809
        26        30     1        0.134033   245088.678809
        27        28     1        0.133423   350873.498535
        28        29     1        0.141148   279463.543311
        28        51     1        0.108128   339085.415625
        29        30     1        0.133423   350873.498535
        29        52     1        0.108128   339085.415625

[ angles ]
;       ai        aj        ak funct           theta             cth
         1         2         3     1      122.040428      489.957279
         1         2         8     1      116.354942      475.838226
         2         1        31     1      110.547607      500.572608
         2         1        32     1      110.547607      500.572608
         2         1        33     1      110.547607      500.572608
         2         3         4     1      117.478683      761.775612
         2         3        34     1      121.294067      418.995525
         2         8         7     1      116.614647      960.079055
         3         2         8     1      121.655540      736.540159
         3         4         5     1      122.040428      489.957279
         3         4         6     1      121.655540      736.540159
         4         3        34     1      121.294067      418.995525
         4         5        35     1      110.547607      500.572608
         4         5        36     1      110.547607      500.572608
         4         5        37     1      110.547607      500.572608
         4         6         7     1      116.614647      960.079055
         5         4         6     1      116.354942      475.838226
         6         7         8     1      126.191666      604.351846
         6         7         9     1      116.861961      541.920764
         7         9        10     1      122.793289      492.092852
         7         9        16     1      122.793289      492.092852
         8         7         9     1      116.861961      541.920764
         9        10        11     1      102.892921      518.507927
         9        10        38     1      110.665466      411.334967
         9        10        39     1      110.665466      411.334967
         9        16        15     1      102.892921      518.507927
         9        16        46     1      110.665466      411.334967
         9        16        47     1      110.665466      411.334967
        10         9        16     1      113.053551      339.130642
        10        11        12     1      115.967918      490.766039
        10        11        15     1      103.531944      553.400524
        10        11        40     1      110.411415      471.837231
        11        10        38     1      112.134521      456.886371
        11        10        39     1      112.134521      456.886371
        11        12        13     1      103.395767      529.540724
        11        12        41     1      112.216675      453.127085
        11        12        42     1      112.216675      453.127085
        11        15        14     1      103.849327      536.391532
        11        15        16     1      103.531944      553.400524
        11        15        45     1      111.068626      475.836438
        12        11        15     1      103.849327      536.391532
        12        11        40     1      110.495773      465.529182
        12        13        14     1      111.329147      405.322861
        12        13        17     1      123.340477      462.896881
        13        12        41     1      110.442825      438.278756
        13        12        42     1      110.442825      438.278756
        13        14        15     1      103.395767      529.540756
        13        14        43     1      110.442825      438.278692
        13        14        44     1      110.442825      438.278692
        13        17        18     1      122.660179      633.261705
        13        17        19     1      117.065598      441.253000
        14        13        17     1      123.340477      462.896881
        14        15        16     1      115.967918      490.766039
        14        15        45     1      110.495773      465.529246
        15        11        40     1      111.068642      475.836438
        15        14        43     1      112.216675      453.127085
        15        14        44     1      112.216675      453.127085
        15        16        46     1      112.134521      456.886371
        15        16        47     1      112.134521      456.886371
        16        15        45     1      110.411415      471.837167
        17        19        20     1      118.347763      556.085879
        17        19        25     1      123.671555      546.170458
        18        17        19     1      119.853127      508.367396
        19        20        21     1      121.541969      703.274116
        19        20        48     1      118.748276      371.487436
        19        25        24     1      120.994980      653.446300
        19        25        26     1      120.774796      463.222639
        20        19        25     1      117.926270      715.000246
        20        21        22     1      118.620728      655.699631
        20        21        49     1      121.057068      416.080847
        21        20        48     1      119.675735      409.238754
        21        22        23     1      119.522789      375.599805
        21        22        24     1      121.072144      664.645025
        22        21        49     1      120.432129      408.690153
        22        24        25     1      119.074974      664.647834
        22        24        50     1      121.094688      387.699542
        23        22        24     1      119.290916      389.386173
        24        25        26     1      117.658691      535.592349
        25        24        50     1      119.760330      404.728645
        25        26        27     1      122.044876      517.083658
        25        26        30     1      122.044876      517.083658
        26        27        28     1      103.757446      480.187483
        26        30        29     1      103.757446      480.187483
        27        26        30     1      115.082153      211.487918
        27        28        29     1      108.709312      295.765661
        27        28        51     1      120.742882      391.074016
        28        29        30     1      108.709312      295.765661
        28        29        52     1      130.286758      343.611766
        29        28        51     1      130.286758      343.611766
        30        29        52     1      120.742882      391.074016
        31         1        32     1      108.389893      359.969498
        31         1        33     1      108.389893      359.969498
        32         1        33     1      108.389893      359.969498
        35         5        36     1      108.389893      359.969498
        35         5        37     1      108.389893      359.969498
        36         5        37     1      108.389893      359.969498
        38        10        39     1      107.788414      347.454335
        41        12        42     1      107.816490      348.007916
        43        14        44     1      107.816490      348.007948
        46        16        47     1      107.788414      347.454335

[ dihedrals ] ; propers for gromacs 4.5 or higher, use funct 9
;       ai        aj        ak        al funct           phase               k        pn
         1         2         3         4     9        0.000000        0.256556         1
         1         2         3         4     9      180.000000       13.179428         2
         1         2         3         4     9        0.000000       -0.097633         3
         1         2         3         4     9      180.000000       -0.317869         4
         1         2         3        34     9        0.000000       -0.223957         1
         1         2         3        34     9      180.000000       11.375068         2
         1         2         3        34     9        0.000000       -0.534831         3
         1         2         3        34     9      180.000000        0.134009         4
         1         2         8         7     9        0.000000       -0.024262         1
         1         2         8         7     9      180.000000       17.595210         2
         1         2         8         7     9        0.000000        0.133711         3
         1         2         8         7     9      180.000000       -0.526295         4
         2         3         4         5     9        0.000000        0.256556         1
         2         3         4         5     9      180.000000       13.179428         2
         2         3         4         5     9        0.000000       -0.097633         3
         2         3         4         5     9      180.000000       -0.317869         4
         2         3         4         6     9        0.000000       -0.062248         1
         2         3         4         6     9      180.000000       14.568157         2
         2         3         4         6     9        0.000000       -0.276619         3
         2         3         4         6     9      180.000000       -0.509287         4
         2         8         7         6     9        0.000000        0.513201         1
         2         8         7         6     9      180.000000        9.191428         2
         2         8         7         6     9        0.000000        0.738957         3
         2         8         7         6     9      180.000000       -0.519149         4
         2         8         7         9     9        0.000000        1.229502         1
         2         8         7         9     9      180.000000       16.103329         2
         2         8         7         9     9        0.000000        0.664456         3
         2         8         7         9     9      180.000000       -1.018199         4
         3         2         1        31     9        0.000000       -0.025287         1
         3         2         1        31     9      180.000000       -0.035803         2
         3         2         1        31     9        0.000000       -0.089579         3
         3         2         1        31     9      180.000000        0.005712         4
         3         2         1        32     9        0.000000       -0.025287         1
         3         2         1        32     9      180.000000       -0.035803         2
         3         2         1        32     9        0.000000       -0.089579         3
         3         2         1        32     9      180.000000        0.005712         4
         3         2         1        33     9        0.000000       -0.025287         1
         3         2         1        33     9      180.000000       -0.035803         2
         3         2         1        33     9        0.000000       -0.089579         3
         3         2         1        33     9      180.000000        0.005712         4
         3         2         8         7     9        0.000000       -0.379284         1
         3         2         8         7     9      180.000000       19.341467         2
         3         2         8         7     9        0.000000       -1.106329         3
         3         2         8         7     9      180.000000       -0.500796         4
         3         4         5        35     9        0.000000       -0.025287         1
         3         4         5        35     9      180.000000       -0.035803         2
         3         4         5        35     9        0.000000       -0.089579         3
         3         4         5        35     9      180.000000        0.005712         4
         3         4         5        36     9        0.000000       -0.025287         1
         3         4         5        36     9      180.000000       -0.035803         2
         3         4         5        36     9        0.000000       -0.089579         3
         3         4         5        36     9      180.000000        0.005712         4
         3         4         5        37     9        0.000000       -0.025287         1
         3         4         5        37     9      180.000000       -0.035803         2
         3         4         5        37     9        0.000000       -0.089579         3
         3         4         5        37     9      180.000000        0.005712         4
         3         4         6         7     9        0.000000       -0.379284         1
         3         4         6         7     9      180.000000       19.341467         2
         3         4         6         7     9        0.000000       -1.106329         3
         3         4         6         7     9      180.000000       -0.500796         4
         4         3         2         8     9        0.000000       -0.062248         1
         4         3         2         8     9      180.000000       14.568157         2
         4         3         2         8     9        0.000000       -0.276619         3
         4         3         2         8     9      180.000000       -0.509287         4
         4         6         7         8     9        0.000000        0.513201         1
         4         6         7         8     9      180.000000        9.191428         2
         4         6         7         8     9        0.000000        0.738957         3
         4         6         7         8     9      180.000000       -0.519149         4
         4         6         7         9     9        0.000000        1.229502         1
         4         6         7         9     9      180.000000       16.103329         2
         4         6         7         9     9        0.000000        0.664456         3
         4         6         7         9     9      180.000000       -1.018199         4
         5         4         3        34     9        0.000000       -0.223957         1
         5         4         3        34     9      180.000000       11.375068         2
         5         4         3        34     9        0.000000       -0.534831         3
         5         4         3        34     9      180.000000        0.134009         4
         5         4         6         7     9        0.000000       -0.024262         1
         5         4         6         7     9      180.000000       17.595210         2
         5         4         6         7     9        0.000000        0.133711         3
         5         4         6         7     9      180.000000       -0.526295         4
         6         4         3        34     9        0.000000       -0.034010         1
         6         4         3        34     9      180.000000       12.223298         2
         6         4         3        34     9        0.000000       -0.267637         3
         6         4         3        34     9      180.000000       -0.072661         4
         6         4         5        35     9        0.000000        0.003881         1
         6         4         5        35     9      180.000000       -0.062736         2
         6         4         5        35     9        0.000000        0.023445         3
         6         4         5        35     9      180.000000       -0.007650         4
         6         4         5        36     9        0.000000        0.003881         1
         6         4         5        36     9      180.000000       -0.062736         2
         6         4         5        36     9        0.000000        0.023445         3
         6         4         5        36     9      180.000000       -0.007650         4
         6         4         5        37     9        0.000000        0.003881         1
         6         4         5        37     9      180.000000       -0.062736         2
         6         4         5        37     9        0.000000        0.023445         3
         6         4         5        37     9      180.000000       -0.007650         4
         6         7         9        10     9        0.000000        0.747629         1
         6         7         9        10     9      180.000000        9.366862         2
         6         7         9        10     9        0.000000       -0.095722         3
         6         7         9        10     9      180.000000       -1.018207         4
         6         7         9        16     9        0.000000        0.747628         1
         6         7         9        16     9      180.000000        9.366863         2
         6         7         9        16     9        0.000000       -0.095722         3
         6         7         9        16     9      180.000000       -1.018207         4
         7         9        10        11     9        0.000000       -3.777482         1
         7         9        10        11     9      180.000000       -0.445033         2
         7         9        10        11     9        0.000000        0.410579         3
         7         9        10        11     9      180.000000        0.178916         4
         7         9        10        38     9        0.000000       -0.010161         1
         7         9        10        38     9      180.000000       -0.080809         2
         7         9        10        38     9        0.000000        0.536714         3
         7         9        10        38     9      180.000000       -0.022063         4
         7         9        10        39     9        0.000000       -0.010161         1
         7         9        10        39     9      180.000000       -0.080809         2
         7         9        10        39     9        0.000000        0.536714         3
         7         9        10        39     9      180.000000       -0.022063         4
         7         9        16        15     9        0.000000       -3.777482         1
         7         9        16        15     9      180.000000       -0.445032         2
         7         9        16        15     9        0.000000        0.410579         3
         7         9        16        15     9      180.000000        0.178916         4
         7         9        16        46     9        0.000000       -0.010160         1
         7         9        16        46     9      180.000000       -0.080811         2
         7         9        16        46     9        0.000000        0.536714         3
         7         9        16        46     9      180.000000       -0.022063         4
         7         9        16        47     9        0.000000       -0.010160         1
         7         9        16        47     9      180.000000       -0.080811         2
         7         9        16        47     9        0.000000        0.536714         3
         7         9        16        47     9      180.000000       -0.022063         4
         8         2         1        31     9        0.000000        0.003881         1
         8         2         1        31     9      180.000000       -0.062736         2
         8         2         1        31     9        0.000000        0.023445         3
         8         2         1        31     9      180.000000       -0.007650         4
         8         2         1        32     9        0.000000        0.003881         1
         8         2         1        32     9      180.000000       -0.062736         2
         8         2         1        32     9        0.000000        0.023445         3
         8         2         1        32     9      180.000000       -0.007650         4
         8         2         1        33     9        0.000000        0.003881         1
         8         2         1        33     9      180.000000       -0.062736         2
         8         2         1        33     9        0.000000        0.023445         3
         8         2         1        33     9      180.000000       -0.007650         4
         8         2         3        34     9        0.000000       -0.034010         1
         8         2         3        34     9      180.000000       12.223298         2
         8         2         3        34     9        0.000000       -0.267637         3
         8         2         3        34     9      180.000000       -0.072661         4
         8         7         9        10     9        0.000000        0.747629         1
         8         7         9        10     9      180.000000        9.366862         2
         8         7         9        10     9        0.000000       -0.095722         3
         8         7         9        10     9      180.000000       -1.018207         4
         8         7         9        16     9        0.000000        0.747628         1
         8         7         9        16     9      180.000000        9.366863         2
         8         7         9        16     9        0.000000       -0.095722         3
         8         7         9        16     9      180.000000       -1.018207         4
         9        10        11        12     9        0.000000        0.141091         1
         9        10        11        12     9      180.000000       -1.554592         2
         9        10        11        12     9        0.000000        0.129275         3
         9        10        11        12     9      180.000000        0.187854         4
         9        10        11        15     9        0.000000       -3.183876         1
         9        10        11        15     9      180.000000       11.770762         2
         9        10        11        15     9        0.000000       -0.669596         3
         9        10        11        15     9      180.000000       -2.371235         4
         9        10        11        40     9        0.000000        3.046270         1
         9        10        11        40     9      180.000000       -0.789547         2
         9        10        11        40     9        0.000000       -0.188589         3
         9        10        11        40     9      180.000000        0.438256         4
         9        16        15        11     9        0.000000       -3.183875         1
         9        16        15        11     9      180.000000       11.770769         2
         9        16        15        11     9        0.000000       -0.669596         3
         9        16        15        11     9      180.000000       -2.371236         4
         9        16        15        14     9        0.000000        0.141092         1
         9        16        15        14     9      180.000000       -1.554592         2
         9        16        15        14     9        0.000000        0.129275         3
         9        16        15        14     9      180.000000        0.187854         4
         9        16        15        45     9        0.000000        3.046268         1
         9        16        15        45     9      180.000000       -0.789546         2
         9        16        15        45     9        0.000000       -0.188588         3
         9        16        15        45     9      180.000000        0.438255         4
        10         9        16        15     9        0.000000       -0.515520         1
        10         9        16        15     9      180.000000        0.695785         2
        10         9        16        15     9        0.000000        0.374724         3
        10         9        16        15     9      180.000000       -0.306280         4
        10         9        16        46     9        0.000000       -0.040238         1
        10         9        16        46     9      180.000000       -0.063463         2
        10         9        16        46     9        0.000000        0.343610         3
        10         9        16        46     9      180.000000        0.107466         4
        10         9        16        47     9        0.000000       -0.040238         1
        10         9        16        47     9      180.000000       -0.063463         2
        10         9        16        47     9        0.000000        0.343610         3
        10         9        16        47     9      180.000000        0.107466         4
        10        11        12        13     9        0.000000       -0.410988         1
        10        11        12        13     9      180.000000       -1.385797         2
        10        11        12        13     9        0.000000        0.136984         3
        10        11        12        13     9      180.000000        0.093039         4
        10        11        12        41     9        0.000000       -0.090271         1
        10        11        12        41     9      180.000000        0.043314         2
        10        11        12        41     9        0.000000        0.181102         3
        10        11        12        41     9      180.000000        0.056845         4
        10        11        12        42     9        0.000000       -0.090271         1
        10        11        12        42     9      180.000000        0.043314         2
        10        11        12        42     9        0.000000        0.181102         3
        10        11        12        42     9      180.000000        0.056845         4
        10        11        15        14     9        0.000000       -1.429697         1
        10        11        15        14     9      180.000000       -0.955407         2
        10        11        15        14     9        0.000000        0.546147         3
        10        11        15        14     9      180.000000       -0.724521         4
        10        11        15        16     9        0.000000       -1.723216         1
        10        11        15        16     9      180.000000       -1.104300         2
        10        11        15        16     9        0.000000        0.465854         3
        10        11        15        16     9      180.000000       -0.749204         4
        10        11        15        45     9        0.000000        0.196400         1
        10        11        15        45     9      180.000000        0.124290         2
        10        11        15        45     9        0.000000        0.308843         3
        10        11        15        45     9      180.000000        0.285300         4
        11        10         9        16     9        0.000000       -0.515520         1
        11        10         9        16     9      180.000000        0.695787         2
        11        10         9        16     9        0.000000        0.374724         3
        11        10         9        16     9      180.000000       -0.306281         4
        11        12        13        14     9        0.000000       -0.115320         1
        11        12        13        14     9      180.000000       -0.195851         2
        11        12        13        14     9        0.000000        0.225772         3
        11        12        13        14     9      180.000000       -0.049084         4
        11        12        13        17     9        0.000000       -1.003418         1
        11        12        13        17     9      180.000000       -0.740189         2
        11        12        13        17     9        0.000000        0.087816         3
        11        12        13        17     9      180.000000        0.171318         4
        11        15        14        13     9        0.000000       -2.854021         1
        11        15        14        13     9      180.000000        7.702166         2
        11        15        14        13     9        0.000000       -0.708712         3
        11        15        14        13     9      180.000000       -1.169470         4
        11        15        14        43     9        0.000000        0.022483         1
        11        15        14        43     9      180.000000       -0.185436         2
        11        15        14        43     9        0.000000       -0.302149         3
        11        15        14        43     9      180.000000        0.229395         4
        11        15        14        44     9        0.000000        0.022483         1
        11        15        14        44     9      180.000000       -0.185436         2
        11        15        14        44     9        0.000000       -0.302149         3
        11        15        14        44     9      180.000000        0.229395         4
        11        15        16        46     9        0.000000        0.005453         1
        11        15        16        46     9      180.000000       -0.187956         2
        11        15        16        46     9        0.000000       -0.253493         3
        11        15        16        46     9      180.000000        0.289446         4
        11        15        16        47     9        0.000000        0.005453         1
        11        15        16        47     9      180.000000       -0.187956         2
        11        15        16        47     9        0.000000       -0.253493         3
        11        15        16        47     9      180.000000        0.289446         4
        12        11        10        38     9        0.000000       -0.150868         1
        12        11        10        38     9      180.000000        0.072012         2
        12        11        10        38     9        0.000000        0.214875         3
        12        11        10        38     9      180.000000        0.045180         4
        12        11        10        39     9        0.000000       -0.150868         1
        12        11        10        39     9      180.000000        0.072012         2
        12        11        10        39     9        0.000000        0.214875         3
        12        11        10        39     9      180.000000        0.045180         4
        12        11        15        14     9        0.000000       -0.903494         1
        12        11        15        14     9      180.000000       -0.930898         2
        12        11        15        14     9        0.000000        0.568820         3
        12        11        15        14     9      180.000000       -0.686260         4
        12        11        15        16     9        0.000000       -1.429699         1
        12        11        15        16     9      180.000000       -0.955405         2
        12        11        15        16     9        0.000000        0.546147         3
        12        11        15        16     9      180.000000       -0.724522         4
        12        11        15        45     9        0.000000       -0.022164         1
        12        11        15        45     9      180.000000        0.142975         2
        12        11        15        45     9        0.000000        0.388150         3
        12        11        15        45     9      180.000000        0.197015         4
        12        13        14        15     9        0.000000       -0.115321         1
        12        13        14        15     9      180.000000       -0.195851         2
        12        13        14        15     9        0.000000        0.225772         3
        12        13        14        15     9      180.000000       -0.049084         4
        12        13        14        43     9        0.000000       -0.036132         1
        12        13        14        43     9      180.000000       -0.000356         2
        12        13        14        43     9        0.000000        0.119650         3
        12        13        14        43     9      180.000000        0.062908         4
        12        13        14        44     9        0.000000       -0.036132         1
        12        13        14        44     9      180.000000       -0.000356         2
        12        13        14        44     9        0.000000        0.119650         3
        12        13        14        44     9      180.000000        0.062908         4
        12        13        17        18     9        0.000000       -1.692529         1
        12        13        17        18     9      180.000000       13.640633         2
        12        13        17        18     9        0.000000       -1.078417         3
        12        13        17        18     9      180.000000       -0.220067         4
        12        13        17        19     9        0.000000        5.676621         1
        12        13        17        19     9      180.000000       11.799381         2
        12        13        17        19     9        0.000000        1.665024         3
        12        13        17        19     9      180.000000       -0.447575         4
        13        12        11        15     9        0.000000       -2.854020         1
        13        12        11        15     9      180.000000        7.702162         2
        13        12        11        15     9        0.000000       -0.708712         3
        13        12        11        15     9      180.000000       -1.169470         4
        13        12        11        40     9        0.000000        0.989397         1
        13        12        11        40     9      180.000000       -0.387239         2
        13        12        11        40     9        0.000000       -0.055241         3
        13        12        11        40     9      180.000000        0.255011         4
        13        14        15        16     9        0.000000       -0.410988         1
        13        14        15        16     9      180.000000       -1.385796         2
        13        14        15        16     9        0.000000        0.136984         3
        13        14        15        16     9      180.000000        0.093039         4
        13        14        15        45     9        0.000000        0.989397         1
        13        14        15        45     9      180.000000       -0.387239         2
        13        14        15        45     9        0.000000       -0.055240         3
        13        14        15        45     9      180.000000        0.255012         4
        13        17        19        20     9        0.000000        1.710148         1
        13        17        19        20     9      180.000000        3.596695         2
        13        17        19        20     9        0.000000        0.190341         3
        13        17        19        20     9      180.000000        0.069241         4
        13        17        19        25     9        0.000000       -0.574822         1
        13        17        19        25     9      180.000000        3.997467         2
        13        17        19        25     9        0.000000       -0.823716         3
        13        17        19        25     9      180.000000        0.153849         4
        14        13        12        41     9        0.000000       -0.036132         1
        14        13        12        41     9      180.000000       -0.000356         2
        14        13        12        41     9        0.000000        0.119649         3
        14        13        12        41     9      180.000000        0.062908         4
        14        13        12        42     9        0.000000       -0.036132         1
        14        13        12        42     9      180.000000       -0.000356         2
        14        13        12        42     9        0.000000        0.119649         3
        14        13        12        42     9      180.000000        0.062908         4
        14        13        17        18     9        0.000000       -1.692529         1
        14        13        17        18     9      180.000000       13.640631         2
        14        13        17        18     9        0.000000       -1.078416         3
        14        13        17        18     9      180.000000       -0.220067         4
        14        13        17        19     9        0.000000        5.676619         1
        14        13        17        19     9      180.000000       11.799381         2
        14        13        17        19     9        0.000000        1.665024         3
        14        13        17        19     9      180.000000       -0.447575         4
        14        15        11        40     9        0.000000       -0.022163         1
        14        15        11        40     9      180.000000        0.142975         2
        14        15        11        40     9        0.000000        0.388150         3
        14        15        11        40     9      180.000000        0.197014         4
        14        15        16        46     9        0.000000       -0.150868         1
        14        15        16        46     9      180.000000        0.072012         2
        14        15        16        46     9        0.000000        0.214875         3
        14        15        16        46     9      180.000000        0.045180         4
        14        15        16        47     9        0.000000       -0.150868         1
        14        15        16        47     9      180.000000        0.072012         2
        14        15        16        47     9        0.000000        0.214875         3
        14        15        16        47     9      180.000000        0.045180         4
        15        11        10        38     9        0.000000        0.005454         1
        15        11        10        38     9      180.000000       -0.187956         2
        15        11        10        38     9        0.000000       -0.253494         3
        15        11        10        38     9      180.000000        0.289446         4
        15        11        10        39     9        0.000000        0.005454         1
        15        11        10        39     9      180.000000       -0.187956         2
        15        11        10        39     9        0.000000       -0.253494         3
        15        11        10        39     9      180.000000        0.289446         4
        15        11        12        41     9        0.000000        0.022483         1
        15        11        12        41     9      180.000000       -0.185435         2
        15        11        12        41     9        0.000000       -0.302149         3
        15        11        12        41     9      180.000000        0.229395         4
        15        11        12        42     9        0.000000        0.022483         1
        15        11        12        42     9      180.000000       -0.185435         2
        15        11        12        42     9        0.000000       -0.302149         3
        15        11        12        42     9      180.000000        0.229395         4
        15        14        13        17     9        0.000000       -1.003417         1
        15        14        13        17     9      180.000000       -0.740189         2
        15        14        13        17     9        0.000000        0.087816         3
        15        14        13        17     9      180.000000        0.171319         4
        16         9        10        38     9        0.000000       -0.040238         1
        16         9        10        38     9      180.000000       -0.063462         2
        16         9        10        38     9        0.000000        0.343610         3
        16         9        10        38     9      180.000000        0.107466         4
        16         9        10        39     9        0.000000       -0.040238         1
        16         9        10        39     9      180.000000       -0.063462         2
        16         9        10        39     9        0.000000        0.343610         3
        16         9        10        39     9      180.000000        0.107466         4
        16        15        11        40     9        0.000000        0.196400         1
        16        15        11        40     9      180.000000        0.124289         2
        16        15        11        40     9        0.000000        0.308842         3
        16        15        11        40     9      180.000000        0.285300         4
        16        15        14        43     9        0.000000       -0.090272         1
        16        15        14        43     9      180.000000        0.043313         2
        16        15        14        43     9        0.000000        0.181102         3
        16        15        14        43     9      180.000000        0.056845         4
        16        15        14        44     9        0.000000       -0.090272         1
        16        15        14        44     9      180.000000        0.043313         2
        16        15        14        44     9        0.000000        0.181102         3
        16        15        14        44     9      180.000000        0.056845         4
        17        13        12        41     9        0.000000        0.041871         1
        17        13        12        41     9      180.000000        0.087101         2
        17        13        12        41     9        0.000000        0.094211         3
        17        13        12        41     9      180.000000       -0.011430         4
        17        13        12        42     9        0.000000        0.041871         1
        17        13        12        42     9      180.000000        0.087101         2
        17        13        12        42     9        0.000000        0.094211         3
        17        13        12        42     9      180.000000       -0.011430         4
        17        13        14        43     9        0.000000        0.041872         1
        17        13        14        43     9      180.000000        0.087101         2
        17        13        14        43     9        0.000000        0.094211         3
        17        13        14        43     9      180.000000       -0.011430         4
        17        13        14        44     9        0.000000        0.041872         1
        17        13        14        44     9      180.000000        0.087101         2
        17        13        14        44     9        0.000000        0.094211         3
        17        13        14        44     9      180.000000       -0.011430         4
        17        19        20        21     9        0.000000       -0.121067         1
        17        19        20        21     9      180.000000       15.199675         2
        17        19        20        21     9        0.000000       -0.312491         3
        17        19        20        21     9      180.000000       -0.406657         4
        17        19        20        48     9        0.000000       -0.045968         1
        17        19        20        48     9      180.000000       12.531233         2
        17        19        20        48     9        0.000000       -0.395458         3
        17        19        20        48     9      180.000000        0.109128         4
        17        19        25        24     9        0.000000       -0.461990         1
        17        19        25        24     9      180.000000       10.806137         2
        17        19        25        24     9        0.000000       -0.418894         3
        17        19        25        24     9      180.000000       -0.231353         4
        17        19        25        26     9        0.000000       -0.037998         1
        17        19        25        26     9      180.000000       15.330937         2
        17        19        25        26     9        0.000000        0.455533         3
        17        19        25        26     9      180.000000       -0.908674         4
        18        17        19        20     9        0.000000        1.446816         1
        18        17        19        20     9      180.000000        1.419785         2
        18        17        19        20     9        0.000000        0.538028         3
        18        17        19        20     9      180.000000        0.007917         4
        18        17        19        25     9        0.000000       -6.787886         1
        18        17        19        25     9      180.000000        1.513495         2
        18        17        19        25     9        0.000000        0.084307         3
        18        17        19        25     9      180.000000       -0.103881         4
        19        20        21        22     9        0.000000       -0.090109         1
        19        20        21        22     9      180.000000       18.493975         2
        19        20        21        22     9        0.000000       -1.665661         3
        19        20        21        22     9      180.000000       -0.416963         4
        19        20        21        49     9        0.000000        0.044886         1
        19        20        21        49     9      180.000000       14.892074         2
        19        20        21        49     9        0.000000       -0.625809         3
        19        20        21        49     9      180.000000        0.062715         4
        19        25        24        22     9        0.000000       -0.354784         1
        19        25        24        22     9      180.000000       16.760789         2
        19        25        24        22     9        0.000000       -1.481559         3
        19        25        24        22     9      180.000000       -0.207209         4
        19        25        24        50     9        0.000000        0.210969         1
        19        25        24        50     9      180.000000       13.605789         2
        19        25        24        50     9        0.000000       -0.598282         3
        19        25        24        50     9      180.000000        0.196285         4
        19        25        26        27     9        0.000000       -0.669901         1
        19        25        26        27     9      180.000000        3.716241         2
        19        25        26        27     9        0.000000        0.211635         3
        19        25        26        27     9      180.000000       -0.127084         4
        19        25        26        30     9        0.000000       -0.669901         1
        19        25        26        30     9      180.000000        3.716241         2
        19        25        26        30     9        0.000000        0.211635         3
        19        25        26        30     9      180.000000       -0.127084         4
        20        19        25        24     9        0.000000        0.015362         1
        20        19        25        24     9      180.000000       15.736520         2
        20        19        25        24     9        0.000000       -1.194798         3
        20        19        25        24     9      180.000000       -0.220909         4
        20        19        25        26     9        0.000000        0.269223         1
        20        19        25        26     9      180.000000       17.202048         2
        20        19        25        26     9        0.000000       -0.008344         3
        20        19        25        26     9      180.000000       -0.588519         4
        20        21        22        23     9        0.000000        0.378775         1
        20        21        22        23     9      180.000000       18.448760         2
        20        21        22        23     9        0.000000        0.147392         3
        20        21        22        23     9      180.000000       -0.547044         4
        20        21        22        24     9        0.000000       -0.105701         1
        20        21        22        24     9      180.000000       17.589247         2
        20        21        22        24     9        0.000000       -1.387414         3
        20        21        22        24     9      180.000000       -0.318347         4
        21        20        19        25     9        0.000000       -0.010571         1
        21        20        19        25     9      180.000000       18.358636         2
        21        20        19        25     9        0.000000       -1.422489         3
        21        20        19        25     9      180.000000       -0.526714         4
        21        22        24        25     9        0.000000       -0.122620         1
        21        22        24        25     9      180.000000       17.402004         2
        21        22        24        25     9        0.000000       -1.337102         3
        21        22        24        25     9      180.000000       -0.323079         4
        21        22        24        50     9        0.000000        0.072641         1
        21        22        24        50     9      180.000000       13.717557         2
        21        22        24        50     9        0.000000       -0.664285         3
        21        22        24        50     9      180.000000        0.100420         4
        22        21        20        48     9        0.000000        0.200782         1
        22        21        20        48     9      180.000000       15.097844         2
        22        21        20        48     9        0.000000       -0.482675         3
        22        21        20        48     9      180.000000        0.148959         4
        22        24        25        26     9        0.000000        0.306564         1
        22        24        25        26     9      180.000000       18.320087         2
        22        24        25        26     9        0.000000        0.203968         3
        22        24        25        26     9      180.000000       -0.505719         4
        23        22        21        49     9        0.000000        0.247914         1
        23        22        21        49     9      180.000000       13.133027         2
        23        22        21        49     9        0.000000       -0.115868         3
        23        22        21        49     9      180.000000        0.209576         4
        23        22        24        25     9        0.000000        0.176011         1
        23        22        24        25     9      180.000000       18.343539         2
        23        22        24        25     9        0.000000        0.113978         3
        23        22        24        25     9      180.000000       -0.506674         4
        23        22        24        50     9        0.000000        0.313501         1
        23        22        24        50     9      180.000000       13.698927         2
        23        22        24        50     9        0.000000       -0.135488         3
        23        22        24        50     9      180.000000        0.232955         4
        24        22        21        49     9        0.000000        0.035527         1
        24        22        21        49     9      180.000000       13.797089         2
        24        22        21        49     9        0.000000       -0.581166         3
        24        22        21        49     9      180.000000        0.052678         4
        24        25        26        27     9        0.000000        0.659622         1
        24        25        26        27     9      180.000000        3.224852         2
        24        25        26        27     9        0.000000       -0.371043         3
        24        25        26        27     9      180.000000        0.063721         4
        24        25        26        30     9        0.000000        0.659622         1
        24        25        26        30     9      180.000000        3.224852         2
        24        25        26        30     9        0.000000       -0.371043         3
        24        25        26        30     9      180.000000        0.063721         4
        25        19        20        48     9        0.000000        0.309548         1
        25        19        20        48     9      180.000000       14.268681         2
        25        19        20        48     9        0.000000       -0.319631         3
        25        19        20        48     9      180.000000       -0.014456         4
        25        26        27        28     9        0.000000        0.709383         1
        25        26        27        28     9      180.000000       14.077903         2
        25        26        27        28     9        0.000000        0.396192         3
        25        26        27        28     9      180.000000       -0.139403         4
        25        26        30        29     9        0.000000        0.709383         1
        25        26        30        29     9      180.000000       14.077903         2
        25        26        30        29     9        0.000000        0.396192         3
        25        26        30        29     9      180.000000       -0.139403         4
        26        25        24        50     9        0.000000        0.134194         1
        26        25        24        50     9      180.000000       14.365133         2
        26        25        24        50     9        0.000000       -0.105438         3
        26        25        24        50     9      180.000000        0.243639         4
        26        27        28        29     9        0.000000       -0.107356         1
        26        27        28        29     9      180.000000       41.229958         2
        26        27        28        29     9        0.000000       -5.866415         3
        26        27        28        29     9      180.000000       -0.015821         4
        26        27        28        51     9        0.000000        1.284440         1
        26        27        28        51     9      180.000000       26.650725         2
        26        27        28        51     9        0.000000       -0.087330         3
        26        27        28        51     9      180.000000       -0.136071         4
        26        30        29        28     9        0.000000       -0.107356         1
        26        30        29        28     9      180.000000       41.229958         2
        26        30        29        28     9        0.000000       -5.866415         3
        26        30        29        28     9      180.000000       -0.015821         4
        26        30        29        52     9        0.000000        1.284440         1
        26        30        29        52     9      180.000000       26.650725         2
        26        30        29        52     9        0.000000       -0.087330         3
        26        30        29        52     9      180.000000       -0.136071         4
        27        26        30        29     9        0.000000       -0.202249         1
        27        26        30        29     9      180.000000       33.351529         2
        27        26        30        29     9        0.000000       -5.663483         3
        27        26        30        29     9      180.000000        0.117599         4
        27        28        29        30     9        0.000000       -0.646396         1
        27        28        29        30     9      180.000000       33.879564         2
        27        28        29        30     9        0.000000       -7.997882         3
        27        28        29        30     9      180.000000       -0.068922         4
        27        28        29        52     9        0.000000        0.399471         1
        27        28        29        52     9      180.000000       15.777787         2
        27        28        29        52     9        0.000000       -0.622625         3
        27        28        29        52     9      180.000000       -0.473181         4
        28        27        26        30     9        0.000000       -0.202249         1
        28        27        26        30     9      180.000000       33.351529         2
        28        27        26        30     9        0.000000       -5.663483         3
        28        27        26        30     9      180.000000        0.117599         4
        30        29        28        51     9        0.000000        0.399471         1
        30        29        28        51     9      180.000000       15.777787         2
        30        29        28        51     9        0.000000       -0.622625         3
        30        29        28        51     9      180.000000       -0.473181         4
        38        10        11        40     9        0.000000       -0.140740         1
        38        10        11        40     9      180.000000       -0.009946         2
        38        10        11        40     9        0.000000        0.295617         3
        38        10        11        40     9      180.000000       -0.018107         4
        39        10        11        40     9        0.000000       -0.140740         1
        39        10        11        40     9      180.000000       -0.009946         2
        39        10        11        40     9        0.000000        0.295617         3
        39        10        11        40     9      180.000000       -0.018107         4
        40        11        12        41     9        0.000000       -0.086595         1
        40        11        12        41     9      180.000000        0.026399         2
        40        11        12        41     9        0.000000        0.269152         3
        40        11        12        41     9      180.000000       -0.020189         4
        40        11        12        42     9        0.000000       -0.086595         1
        40        11        12        42     9      180.000000        0.026399         2
        40        11        12        42     9        0.000000        0.269152         3
        40        11        12        42     9      180.000000       -0.020189         4
        40        11        15        45     9        0.000000        0.223574         1
        40        11        15        45     9      180.000000       -0.077956         2
        40        11        15        45     9        0.000000        0.353694         3
        40        11        15        45     9      180.000000       -0.057173         4
        43        14        15        45     9        0.000000       -0.086595         1
        43        14        15        45     9      180.000000        0.026398         2
        43        14        15        45     9        0.000000        0.269152         3
        43        14        15        45     9      180.000000       -0.020189         4
        44        14        15        45     9        0.000000       -0.086595         1
        44        14        15        45     9      180.000000        0.026398         2
        44        14        15        45     9        0.000000        0.269152         3
        44        14        15        45     9      180.000000       -0.020189         4
        45        15        16        46     9        0.000000       -0.140741         1
        45        15        16        46     9      180.000000       -0.009947         2
        45        15        16        46     9        0.000000        0.295617         3
        45        15        16        46     9      180.000000       -0.018107         4
        45        15        16        47     9        0.000000       -0.140741         1
        45        15        16        47     9      180.000000       -0.009947         2
        45        15        16        47     9        0.000000        0.295617         3
        45        15        16        47     9      180.000000       -0.018107         4
        48        20        21        49     9        0.000000       -0.154074         1
        48        20        21        49     9      180.000000       12.429302         2
        48        20        21        49     9        0.000000       -0.690800         3
        48        20        21        49     9      180.000000        0.214930         4
        51        28        29        52     9        0.000000       -0.304766         1
        51        28        29        52     9      180.000000        8.321253         2
        51        28        29        52     9        0.000000       -0.141498         3
        51        28        29        52     9      180.000000        0.273252         4

[ dihedrals ] ; impropers
;       ai        aj        ak        al funct           phase               k        pn
         2         1         3         8     4      180.000000       21.793920         2
         2         3         8         1     4      180.000000       21.793920         2
         2         8         1         3     4      180.000000       21.793920         2
         4         3         5         6     4      180.000000       21.793920         2
         4         5         6         3     4      180.000000       21.793920         2
         4         6         3         5     4      180.000000       21.793920         2
         7         6         8         9     4      180.000000       27.893333         2
         7         8         9         6     4      180.000000       27.893333         2
         7         9         6         8     4      180.000000       27.893333         2
        20        19        21        48     4      180.000000        0.253690         2
        20        21        48        19     4      180.000000        0.253690         2
        20        48        19        21     4      180.000000        0.253690         2
        21        20        22        49     4      180.000000        1.175719         2
        21        22        49        20     4      180.000000        1.175719         2
        21        49        20        22     4      180.000000        1.175719         2
        24        22        25        50     4      180.000000        0.150634         2
        24        25        50        22     4      180.000000        0.150634         2
        24        50        22        25     4      180.000000        0.150634         2

[ pairs ]
;       ai        aj funct
         1         4     1
         1         7     1
         1        34     1
         2         5     1
         2         6     1
         2         9     1
         3         7     1
         3        31     1
         3        32     1
         3        33     1
         3        35     1
         3        36     1
         3        37     1
         4         8     1
         4         9     1
         5         7     1
         5        34     1
         6        10     1
         6        16     1
         6        34     1
         6        35     1
         6        36     1
         6        37     1
         7        11     1
         7        15     1
         7        38     1
         7        39     1
         7        46     1
         7        47     1
         8        10     1
         8        16     1
         8        31     1
         8        32     1
         8        33     1
         8        34     1
         9        12     1
         9        14     1
         9        40     1
         9        45     1
        10        13     1
        10        14     1
        10        41     1
        10        42     1
        10        45     1
        10        46     1
        10        47     1
        11        17     1
        11        43     1
        11        44     1
        11        46     1
        11        47     1
        12        16     1
        12        18     1
        12        19     1
        12        38     1
        12        39     1
        12        43     1
        12        44     1
        12        45     1
        13        16     1
        13        20     1
        13        25     1
        13        40     1
        13        45     1
        14        18     1
        14        19     1
        14        40     1
        14        41     1
        14        42     1
        14        46     1
        14        47     1
        15        17     1
        15        38     1
        15        39     1
        15        41     1
        15        42     1
        16        38     1
        16        39     1
        16        40     1
        16        43     1
        16        44     1
        17        21     1
        17        24     1
        17        26     1
        17        41     1
        17        42     1
        17        43     1
        17        44     1
        17        48     1
        18        20     1
        18        25     1
        19        22     1
        19        27     1
        19        30     1
        19        49     1
        19        50     1
        20        23     1
        20        24     1
        20        26     1
        21        25     1
        21        50     1
        22        26     1
        22        48     1
        23        25     1
        23        49     1
        23        50     1
        24        27     1
        24        30     1
        24        49     1
        25        28     1
        25        29     1
        25        48     1
        26        50     1
        26        51     1
        26        52     1
        27        52     1
        30        51     1
        38        40     1
        39        40     1
        40        41     1
        40        42     1
        40        45     1
        43        45     1
        44        45     1
        45        46     1
        45        47     1
        48        49     1
        51        52     1
