; ITP file created by ByteFF-ML, 2025-12-06 04:44:21.940335

[ atomtypes ]
;name           bonded.type        at.num        mass        charge   ptype           sigma         epsilon
 c0bf                                   6      0.0000       0.00000       A     3.39719e-01     4.50673e-01
 o1bf                                   8      0.0000       0.00000       A     3.15641e-01     3.06113e-01
 c2bf                                   6      0.0000       0.00000       A     3.31461e-01     4.14397e-01
 c3bf                                   6      0.0000       0.00000       A     3.31556e-01     4.12718e-01
 c4bf                                   6      0.0000       0.00000       A     3.39805e-01     4.50861e-01
 n5bf                                   7      0.0000       0.00000       A     3.38154e-01     3.96168e-01
 c6bf                                   6      0.0000       0.00000       A     3.31533e-01     4.12083e-01
 n7bf                                   7      0.0000       0.00000       A     3.38154e-01     3.96168e-01
 c8bf                                   6      0.0000       0.00000       A     3.31556e-01     4.12718e-01
 c9bf                                   6      0.0000       0.00000       A     3.39805e-01     4.50859e-01
 n10bf                                  7      0.0000       0.00000       A     3.19428e-01     8.94136e-01
 c11bf                                  6      0.0000       0.00000       A     3.39585e-01     4.49212e-01
 c12bf                                  6      0.0000       0.00000       A     3.39712e-01     4.49806e-01
 c13bf                                  6      0.0000       0.00000       A     3.39727e-01     4.50797e-01
 n14bf                                  7      0.0000       0.00000       A     3.18172e-01     6.81534e-01
 c15bf                                  6      0.0000       0.00000       A     3.39727e-01     4.50797e-01
 c16bf                                  6      0.0000       0.00000       A     3.39712e-01     4.49806e-01
 c17bf                                  6      0.0000       0.00000       A     3.39585e-01     4.49212e-01
 c18bf                                  6      0.0000       0.00000       A     3.31327e-01     4.13248e-01
 o19bf                                  8      0.0000       0.00000       A     3.04514e-01     6.13792e-01
 c20bf                                  6      0.0000       0.00000       A     3.31273e-01     4.13283e-01
 c21bf                                  6      0.0000       0.00000       A     3.31521e-01     4.13918e-01
 f22bf                                  9      0.0000       0.00000       A     3.03540e-01     3.48621e-01
 c23bf                                  6      0.0000       0.00000       A     3.31463e-01     4.12493e-01
 c24bf                                  6      0.0000       0.00000       A     3.31469e-01     4.12700e-01
 c25bf                                  6      0.0000       0.00000       A     3.31436e-01     4.11484e-01
 c26bf                                  6      0.0000       0.00000       A     3.31571e-01     4.13495e-01
 n27bf                                  7      0.0000       0.00000       A     3.20910e-01     8.46558e-01
 n28bf                                  7      0.0000       0.00000       A     3.38251e-01     3.94826e-01
 c29bf                                  6      0.0000       0.00000       A     3.31301e-01     4.12308e-01
 c30bf                                  6      0.0000       0.00000       A     3.31301e-01     4.12308e-01
 n31bf                                  7      0.0000       0.00000       A     3.38251e-01     3.94826e-01
 h32bf                                  1      0.0000       0.00000       A     2.42080e-01     8.75859e-02
 h33bf                                  1      0.0000       0.00000       A     2.42080e-01     8.75859e-02
 h34bf                                  1      0.0000       0.00000       A     2.42080e-01     8.75859e-02
 h35bf                                  1      0.0000       0.00000       A     2.59933e-01     8.72731e-02
 h36bf                                  1      0.0000       0.00000       A     2.59933e-01     8.72731e-02
 h37bf                                  1      0.0000       0.00000       A     2.59933e-01     8.72731e-02
 h38bf                                  1      0.0000       0.00000       A     2.59933e-01     8.72731e-02
 h39bf                                  1      0.0000       0.00000       A     2.59933e-01     8.72731e-02
 h40bf                                  1      0.0000       0.00000       A     2.59933e-01     8.72731e-02
 h41bf                                  1      0.0000       0.00000       A     2.42127e-01     8.72842e-02
 h42bf                                  1      0.0000       0.00000       A     2.42127e-01     8.72842e-02
 h43bf                                  1      0.0000       0.00000       A     2.60149e-01     8.67575e-02
 h44bf                                  1      0.0000       0.00000       A     2.42171e-01     8.72571e-02
 h45bf                                  1      0.0000       0.00000       A     2.42171e-01     8.72571e-02
 h46bf                                  1      0.0000       0.00000       A     2.42171e-01     8.72571e-02
 h47bf                                  1      0.0000       0.00000       A     2.42171e-01     8.72571e-02
 h48bf                                  1      0.0000       0.00000       A     2.60149e-01     8.67575e-02
 h49bf                                  1      0.0000       0.00000       A     2.42127e-01     8.72842e-02
 h50bf                                  1      0.0000       0.00000       A     2.42127e-01     8.72842e-02
 h51bf                                  1      0.0000       0.00000       A     2.62509e-01     6.72536e-02
 h52bf                                  1      0.0000       0.00000       A     2.62495e-01     6.71945e-02
 h53bf                                  1      0.0000       0.00000       A     2.62555e-01     6.79734e-02
 h54bf                                  1      0.0000       0.00000       A     2.53897e-01     6.74946e-02
 h55bf                                  1      0.0000       0.00000       A     2.53897e-01     6.74946e-02

[ moleculetype ]
;name             nrexcl
 set_1_25              3

[ atoms ]
;       nr            type      resi   res      atom      cgnr      charge          mass ; qtot
         1            c0bf         1   UNL        c0         1     0.14053       12.0110 ; qtot    0.141
         2            o1bf         1   UNL        o1         2    -0.35399       15.9990 ; qtot   -0.213
         3            c2bf         1   UNL        c2         3    -0.08316       12.0110 ; qtot   -0.297
         4            c3bf         1   UNL        c3         4     0.16438       12.0110 ; qtot   -0.132
         5            c4bf         1   UNL        c4         5    -0.14599       12.0110 ; qtot   -0.278
         6            n5bf         1   UNL        n5         6    -0.24374       14.0070 ; qtot   -0.522
         7            c6bf         1   UNL        c6         7     0.36892       12.0110 ; qtot   -0.153
         8            n7bf         1   UNL        n7         8    -0.24374       14.0070 ; qtot   -0.397
         9            c8bf         1   UNL        c8         9     0.16438       12.0110 ; qtot   -0.232
        10            c9bf         1   UNL        c9        10    -0.14599       12.0110 ; qtot   -0.378
        11           n10bf         1   UNL       n10        11    -0.77924       14.0070 ; qtot   -1.158
        12           c11bf         1   UNL       c11        12     0.23669       12.0110 ; qtot   -0.921
        13           c12bf         1   UNL       c12        13    -0.10223       12.0110 ; qtot   -1.023
        14           c13bf         1   UNL       c13        14     0.11230       12.0110 ; qtot   -0.911
        15           n14bf         1   UNL       n14        15    -0.41240       14.0070 ; qtot   -1.323
        16           c15bf         1   UNL       c15        16     0.11230       12.0110 ; qtot   -1.211
        17           c16bf         1   UNL       c16        17    -0.10223       12.0110 ; qtot   -1.313
        18           c17bf         1   UNL       c17        18     0.23669       12.0110 ; qtot   -1.077
        19           c18bf         1   UNL       c18        19     0.64532       12.0110 ; qtot   -0.431
        20           o19bf         1   UNL       o19        20    -0.58742       15.9990 ; qtot   -1.019
        21           c20bf         1   UNL       c20        21    -0.15190       12.0110 ; qtot   -1.171
        22           c21bf         1   UNL       c21        22     0.19456       12.0110 ; qtot   -0.976
        23           f22bf         1   UNL       f22        23    -0.16798       18.9980 ; qtot   -1.144
        24           c23bf         1   UNL       c23        24    -0.14840       12.0110 ; qtot   -1.292
        25           c24bf         1   UNL       c24        25    -0.06562       12.0110 ; qtot   -1.358
        26           c25bf         1   UNL       c25        26    -0.10373       12.0110 ; qtot   -1.462
        27           c26bf         1   UNL       c26        27     0.06898       12.0110 ; qtot   -1.393
        28           n27bf         1   UNL       n27        28     0.31512       14.0070 ; qtot   -1.078
        29           n28bf         1   UNL       n28        29    -0.47882       14.0070 ; qtot   -1.556
        30           c29bf         1   UNL       c29        30     0.20629       12.0110 ; qtot   -1.350
        31           c30bf         1   UNL       c30        31     0.20629       12.0110 ; qtot   -1.144
        32           n31bf         1   UNL       n31        32    -0.47882       14.0070 ; qtot   -1.623
        33           h32bf         1   UNL       h32        33     0.04531        1.0080 ; qtot   -1.577
        34           h33bf         1   UNL       h33        34     0.04531        1.0080 ; qtot   -1.532
        35           h34bf         1   UNL       h34        35     0.04531        1.0080 ; qtot   -1.487
        36           h35bf         1   UNL       h35        36     0.05778        1.0080 ; qtot   -1.429
        37           h36bf         1   UNL       h36        37     0.05778        1.0080 ; qtot   -1.371
        38           h37bf         1   UNL       h37        38     0.05778        1.0080 ; qtot   -1.313
        39           h38bf         1   UNL       h38        39     0.05778        1.0080 ; qtot   -1.256
        40           h39bf         1   UNL       h39        40     0.05778        1.0080 ; qtot   -1.198
        41           h40bf         1   UNL       h40        41     0.05778        1.0080 ; qtot   -1.140
        42           h41bf         1   UNL       h41        42     0.05798        1.0080 ; qtot   -1.082
        43           h42bf         1   UNL       h42        43     0.05798        1.0080 ; qtot   -1.024
        44           h43bf         1   UNL       h43        44     0.07208        1.0080 ; qtot   -0.952
        45           h44bf         1   UNL       h44        45     0.06015        1.0080 ; qtot   -0.892
        46           h45bf         1   UNL       h45        46     0.06015        1.0080 ; qtot   -0.832
        47           h46bf         1   UNL       h46        47     0.06015        1.0080 ; qtot   -0.772
        48           h47bf         1   UNL       h47        48     0.06015        1.0080 ; qtot   -0.711
        49           h48bf         1   UNL       h48        49     0.07208        1.0080 ; qtot   -0.639
        50           h49bf         1   UNL       h49        50     0.05798        1.0080 ; qtot   -0.581
        51           h50bf         1   UNL       h50        51     0.05798        1.0080 ; qtot   -0.523
        52           h51bf         1   UNL       h51        52     0.14181        1.0080 ; qtot   -0.382
        53           h52bf         1   UNL       h52        53     0.12690        1.0080 ; qtot   -0.255
        54           h53bf         1   UNL       h53        54     0.14214        1.0080 ; qtot   -0.113
        55           h54bf         1   UNL       h54        55     0.05626        1.0080 ; qtot   -0.056
        56           h55bf         1   UNL       h55        56     0.05625        1.0080 ; qtot   -0.000

[ bonds ]
;       ai        aj funct               r               k
         1         2     1        0.143479   196389.807056
         1        33     1        0.109336   300894.694092
         1        34     1        0.109336   300894.694092
         1        35     1        0.109336   300894.694092
         2         3     1        0.138360   252309.066650
         3         4     1        0.140202   269311.903906
         3         9     1        0.140202   269311.903906
         4         5     1        0.150530   206456.842017
         4         6     1        0.133898   334933.439160
         5        36     1        0.109316   305648.912207
         5        37     1        0.109316   305648.912207
         5        38     1        0.109316   305648.912207
         6         7     1        0.134848   258200.656543
         7         8     1        0.134848   258200.656543
         7        11     1        0.136450   316560.357227
         8         9     1        0.133898   334933.439160
         9        10     1        0.150530   206456.842017
        10        39     1        0.109316   305648.912207
        10        40     1        0.109316   305648.912207
        10        41     1        0.109316   305648.912207
        11        12     1        0.146885   181060.582568
        11        18     1        0.146885   181060.582568
        12        13     1        0.153334   175036.020947
        12        42     1        0.109481   294444.786377
        12        43     1        0.109481   294444.786377
        13        14     1        0.153427   175080.787500
        13        17     1        0.154277   149842.130322
        13        44     1        0.109325   303915.887354
        14        15     1        0.147261   177221.078174
        14        45     1        0.109385   298254.744336
        14        46     1        0.109385   298254.744336
        15        16     1        0.147261   177221.103711
        15        19     1        0.135519   319235.343896
        16        17     1        0.153427   175080.787500
        16        47     1        0.109385   298254.744336
        16        48     1        0.109385   298254.744336
        17        18     1        0.153334   175036.020947
        17        49     1        0.109325   303915.912891
        18        50     1        0.109481   294444.811914
        18        51     1        0.109481   294444.811914
        19        20     1        0.123360   594256.707031
        19        21     1        0.151390   177572.570947
        21        22     1        0.139458   293723.388574
        21        27     1        0.140413   276391.377979
        22        23     1        0.135748   284734.964502
        22        24     1        0.139016   308702.537598
        24        25     1        0.139696   310400.653223
        24        52     1        0.108455   325846.007715
        25        26     1        0.139473   319062.687500
        25        53     1        0.108533   323324.933203
        26        27     1        0.139859   295100.783643
        26        54     1        0.108380   327020.204004
        27        28     1        0.142246   231473.134814
        28        29     1        0.134040   244717.267090
        28        32     1        0.134040   244717.267090
        29        30     1        0.133423   350873.498535
        30        31     1        0.141148   279463.543311
        30        55     1        0.108128   339085.415625
        31        32     1        0.133423   350873.498535
        31        56     1        0.108128   339085.415625

[ angles ]
;       ai        aj        ak funct           theta             cth
         1         2         3     1      114.552124      538.550376
         2         1        33     1      109.364059      440.016205
         2         1        34     1      109.364059      440.016205
         2         1        35     1      109.364059      440.016205
         2         3         4     1      121.091576      472.318861
         2         3         9     1      121.091576      472.318797
         3         4         5     1      121.465164      392.391508
         3         4         6     1      120.930222      732.628385
         3         9         8     1      120.930222      732.628385
         3         9        10     1      121.465164      392.391539
         4         3         9     1      117.954994      674.859294
         4         5        36     1      110.375931      501.147481
         4         5        37     1      110.375931      501.147481
         4         5        38     1      110.375931      501.147481
         4         6         7     1      117.221336      958.425463
         5         4         6     1      117.212845      495.341331
         6         7         8     1      125.942360      583.239104
         6         7        11     1      116.938354      548.082740
         7         8         9     1      117.221336      958.425399
         7        11        12     1      122.617264      494.481848
         7        11        18     1      122.617264      494.481880
         8         7        11     1      116.938354      548.082677
         8         9        10     1      117.212845      495.341331
         9        10        39     1      110.375931      501.147481
         9        10        40     1      110.375931      501.147481
         9        10        41     1      110.375931      501.147481
        11        12        13     1      102.892921      518.507959
        11        12        42     1      110.665466      411.334999
        11        12        43     1      110.665466      411.334967
        11        18        17     1      102.892921      518.507927
        11        18        50     1      110.665466      411.334967
        11        18        51     1      110.665466      411.334967
        12        11        18     1      113.053551      339.130610
        12        13        14     1      115.967918      490.766039
        12        13        17     1      103.531944      553.400524
        12        13        44     1      110.411415      471.837231
        13        12        42     1      112.134521      456.886371
        13        12        43     1      112.134521      456.886371
        13        14        15     1      103.310646      531.297103
        13        14        45     1      112.216675      453.127085
        13        14        46     1      112.216675      453.127085
        13        17        16     1      103.849327      536.391532
        13        17        18     1      103.531944      553.400524
        13        17        49     1      111.068626      475.836438
        14        13        17     1      103.849327      536.391532
        14        13        44     1      110.495773      465.529182
        14        15        16     1      111.682663      397.236312
        14        15        19     1      123.751732      462.075033
        15        14        45     1      110.410095      437.420741
        15        14        46     1      110.410095      437.420741
        15        16        17     1      103.310646      531.297103
        15        16        47     1      110.410095      437.420741
        15        16        48     1      110.410095      437.420741
        15        19        20     1      123.358742      631.986382
        15        19        21     1      116.499901      442.236497
        16        15        19     1      123.751732      462.075033
        16        17        18     1      115.967918      490.766039
        16        17        49     1      110.495773      465.529246
        17        13        44     1      111.068642      475.836438
        17        16        47     1      112.216675      453.127085
        17        16        48     1      112.216675      453.127085
        17        18        50     1      112.134521      456.886371
        17        18        51     1      112.134521      456.886371
        18        17        49     1      110.411415      471.837167
        19        21        22     1      120.170364      658.951909
        19        21        27     1      123.059631      563.306688
        20        19        21     1      119.672501      497.066650
        21        22        23     1      118.381653      447.457304
        21        22        24     1      123.063400      625.661925
        21        27        26     1      121.246506      661.938219
        21        27        28     1      119.852539      464.186441
        22        21        27     1      116.733643      734.512130
        22        24        25     1      118.224327      691.816126
        22        24        52     1      119.628578      419.195289
        23        22        24     1      118.309547      519.263729
        24        25        26     1      120.316055      729.245229
        24        25        53     1      119.748978      430.367360
        25        24        52     1      122.164230      418.572822
        25        26        27     1      119.566689      681.094307
        25        26        54     1      121.180099      420.410728
        26        25        53     1      119.884033      429.820291
        26        27        28     1      118.315903      543.668715
        27        26        54     1      119.153160      420.650809
        27        28        29     1      121.993149      521.996040
        27        28        32     1      121.993149      521.996040
        28        29        30     1      103.760353      480.370712
        28        32        31     1      103.760353      480.370712
        29        28        32     1      115.047997      210.842914
        29        30        31     1      108.709312      295.765661
        29        30        55     1      120.742882      391.074016
        30        31        32     1      108.709312      295.765661
        30        31        56     1      130.286758      343.611766
        31        30        55     1      130.286758      343.611766
        32        31        56     1      120.742882      391.074016
        33         1        34     1      109.751831      344.851625
        33         1        35     1      109.751831      344.851625
        34         1        35     1      109.751846      344.851657
        36         5        37     1      108.594040      355.313987
        36         5        38     1      108.594040      355.313987
        37         5        38     1      108.594040      355.313987
        39        10        40     1      108.594040      355.313987
        39        10        41     1      108.594040      355.313987
        40        10        41     1      108.594040      355.313987
        42        12        43     1      107.788414      347.454335
        45        14        46     1      107.816490      348.007916
        47        16        48     1      107.816490      348.007948
        50        18        51     1      107.788414      347.454367

[ dihedrals ] ; propers for gromacs 4.5 or higher, use funct 9
;       ai        aj        ak        al funct           phase               k        pn
         1         2         3         4     9        0.000000        0.970211         1
         1         2         3         4     9      180.000000        2.509923         2
         1         2         3         4     9        0.000000        0.092775         3
         1         2         3         4     9      180.000000        0.048052         4
         1         2         3         9     9        0.000000        0.970212         1
         1         2         3         9     9      180.000000        2.509923         2
         1         2         3         9     9        0.000000        0.092774         3
         1         2         3         9     9      180.000000        0.048052         4
         2         3         4         5     9        0.000000        0.171490         1
         2         3         4         5     9      180.000000       15.944036         2
         2         3         4         5     9        0.000000        0.033875         3
         2         3         4         5     9      180.000000       -0.348133         4
         2         3         4         6     9        0.000000        0.288812         1
         2         3         4         6     9      180.000000       16.713397         2
         2         3         4         6     9        0.000000        0.551854         3
         2         3         4         6     9      180.000000       -0.559244         4
         2         3         9         8     9        0.000000        0.288813         1
         2         3         9         8     9      180.000000       16.713394         2
         2         3         9         8     9        0.000000        0.551854         3
         2         3         9         8     9      180.000000       -0.559244         4
         2         3         9        10     9        0.000000        0.171491         1
         2         3         9        10     9      180.000000       15.944035         2
         2         3         9        10     9        0.000000        0.033875         3
         2         3         9        10     9      180.000000       -0.348133         4
         3         2         1        33     9        0.000000       -0.018068         1
         3         2         1        33     9      180.000000        0.063926         2
         3         2         1        33     9        0.000000        0.687122         3
         3         2         1        33     9      180.000000       -0.023680         4
         3         2         1        34     9        0.000000       -0.018068         1
         3         2         1        34     9      180.000000        0.063926         2
         3         2         1        34     9        0.000000        0.687122         3
         3         2         1        34     9      180.000000       -0.023680         4
         3         2         1        35     9        0.000000       -0.018068         1
         3         2         1        35     9      180.000000        0.063926         2
         3         2         1        35     9        0.000000        0.687122         3
         3         2         1        35     9      180.000000       -0.023680         4
         3         4         5        36     9        0.000000       -0.005821         1
         3         4         5        36     9      180.000000       -0.055875         2
         3         4         5        36     9        0.000000       -0.127807         3
         3         4         5        36     9      180.000000       -0.009314         4
         3         4         5        37     9        0.000000       -0.005821         1
         3         4         5        37     9      180.000000       -0.055875         2
         3         4         5        37     9        0.000000       -0.127807         3
         3         4         5        37     9      180.000000       -0.009314         4
         3         4         5        38     9        0.000000       -0.005821         1
         3         4         5        38     9      180.000000       -0.055875         2
         3         4         5        38     9        0.000000       -0.127807         3
         3         4         5        38     9      180.000000       -0.009314         4
         3         4         6         7     9        0.000000       -0.506152         1
         3         4         6         7     9      180.000000       20.462602         2
         3         4         6         7     9        0.000000       -1.123530         3
         3         4         6         7     9      180.000000       -0.531864         4
         3         9         8         7     9        0.000000       -0.506152         1
         3         9         8         7     9      180.000000       20.462602         2
         3         9         8         7     9        0.000000       -1.123530         3
         3         9         8         7     9      180.000000       -0.531864         4
         3         9        10        39     9        0.000000       -0.005820         1
         3         9        10        39     9      180.000000       -0.055876         2
         3         9        10        39     9        0.000000       -0.127806         3
         3         9        10        39     9      180.000000       -0.009314         4
         3         9        10        40     9        0.000000       -0.005820         1
         3         9        10        40     9      180.000000       -0.055876         2
         3         9        10        40     9        0.000000       -0.127806         3
         3         9        10        40     9      180.000000       -0.009314         4
         3         9        10        41     9        0.000000       -0.005820         1
         3         9        10        41     9      180.000000       -0.055876         2
         3         9        10        41     9        0.000000       -0.127806         3
         3         9        10        41     9      180.000000       -0.009314         4
         4         3         9         8     9        0.000000        0.067922         1
         4         3         9         8     9      180.000000       12.780025         2
         4         3         9         8     9        0.000000       -0.156525         3
         4         3         9         8     9      180.000000       -0.303804         4
         4         3         9        10     9        0.000000       -0.039893         1
         4         3         9        10     9      180.000000       11.356917         2
         4         3         9        10     9        0.000000       -0.025040         3
         4         3         9        10     9      180.000000       -0.231597         4
         4         6         7         8     9        0.000000        0.220402         1
         4         6         7         8     9      180.000000        9.617977         2
         4         6         7         8     9        0.000000        0.754118         3
         4         6         7         8     9      180.000000       -0.552051         4
         4         6         7        11     9        0.000000        0.875847         1
         4         6         7        11     9      180.000000       16.779317         2
         4         6         7        11     9        0.000000        0.547023         3
         4         6         7        11     9      180.000000       -1.105280         4
         5         4         3         9     9        0.000000       -0.039894         1
         5         4         3         9     9      180.000000       11.356919         2
         5         4         3         9     9        0.000000       -0.025040         3
         5         4         3         9     9      180.000000       -0.231597         4
         5         4         6         7     9        0.000000        0.006787         1
         5         4         6         7     9      180.000000       18.419275         2
         5         4         6         7     9        0.000000        0.219277         3
         5         4         6         7     9      180.000000       -0.542981         4
         6         4         3         9     9        0.000000        0.067921         1
         6         4         3         9     9      180.000000       12.780028         2
         6         4         3         9     9        0.000000       -0.156524         3
         6         4         3         9     9      180.000000       -0.303804         4
         6         4         5        36     9        0.000000        0.039034         1
         6         4         5        36     9      180.000000       -0.065267         2
         6         4         5        36     9        0.000000       -0.048274         3
         6         4         5        36     9      180.000000       -0.038832         4
         6         4         5        37     9        0.000000        0.039034         1
         6         4         5        37     9      180.000000       -0.065267         2
         6         4         5        37     9        0.000000       -0.048274         3
         6         4         5        37     9      180.000000       -0.038832         4
         6         4         5        38     9        0.000000        0.039034         1
         6         4         5        38     9      180.000000       -0.065267         2
         6         4         5        38     9        0.000000       -0.048274         3
         6         4         5        38     9      180.000000       -0.038832         4
         6         7         8         9     9        0.000000        0.220404         1
         6         7         8         9     9      180.000000        9.617977         2
         6         7         8         9     9        0.000000        0.754118         3
         6         7         8         9     9      180.000000       -0.552052         4
         6         7        11        12     9        0.000000        0.862385         1
         6         7        11        12     9      180.000000        8.701695         2
         6         7        11        12     9        0.000000       -0.026366         3
         6         7        11        12     9      180.000000       -0.914356         4
         6         7        11        18     9        0.000000        0.862385         1
         6         7        11        18     9      180.000000        8.701693         2
         6         7        11        18     9        0.000000       -0.026366         3
         6         7        11        18     9      180.000000       -0.914356         4
         7         8         9        10     9        0.000000        0.006788         1
         7         8         9        10     9      180.000000       18.419273         2
         7         8         9        10     9        0.000000        0.219277         3
         7         8         9        10     9      180.000000       -0.542981         4
         7        11        12        13     9        0.000000       -3.607560         1
         7        11        12        13     9      180.000000       -0.475339         2
         7        11        12        13     9        0.000000        0.403080         3
         7        11        12        13     9      180.000000        0.196271         4
         7        11        12        42     9        0.000000       -0.006909         1
         7        11        12        42     9      180.000000       -0.091863         2
         7        11        12        42     9        0.000000        0.567736         3
         7        11        12        42     9      180.000000       -0.015167         4
         7        11        12        43     9        0.000000       -0.006911         1
         7        11        12        43     9      180.000000       -0.091864         2
         7        11        12        43     9        0.000000        0.567735         3
         7        11        12        43     9      180.000000       -0.015167         4
         7        11        18        17     9        0.000000       -3.607556         1
         7        11        18        17     9      180.000000       -0.475339         2
         7        11        18        17     9        0.000000        0.403080         3
         7        11        18        17     9      180.000000        0.196271         4
         7        11        18        50     9        0.000000       -0.006910         1
         7        11        18        50     9      180.000000       -0.091864         2
         7        11        18        50     9        0.000000        0.567735         3
         7        11        18        50     9      180.000000       -0.015167         4
         7        11        18        51     9        0.000000       -0.006910         1
         7        11        18        51     9      180.000000       -0.091864         2
         7        11        18        51     9        0.000000        0.567735         3
         7        11        18        51     9      180.000000       -0.015167         4
         8         7        11        12     9        0.000000        0.862386         1
         8         7        11        12     9      180.000000        8.701693         2
         8         7        11        12     9        0.000000       -0.026366         3
         8         7        11        12     9      180.000000       -0.914356         4
         8         7        11        18     9        0.000000        0.862385         1
         8         7        11        18     9      180.000000        8.701693         2
         8         7        11        18     9        0.000000       -0.026366         3
         8         7        11        18     9      180.000000       -0.914356         4
         8         9        10        39     9        0.000000        0.039034         1
         8         9        10        39     9      180.000000       -0.065268         2
         8         9        10        39     9        0.000000       -0.048274         3
         8         9        10        39     9      180.000000       -0.038832         4
         8         9        10        40     9        0.000000        0.039034         1
         8         9        10        40     9      180.000000       -0.065268         2
         8         9        10        40     9        0.000000       -0.048274         3
         8         9        10        40     9      180.000000       -0.038832         4
         8         9        10        41     9        0.000000        0.039034         1
         8         9        10        41     9      180.000000       -0.065268         2
         8         9        10        41     9        0.000000       -0.048274         3
         8         9        10        41     9      180.000000       -0.038832         4
         9         8         7        11     9        0.000000        0.875847         1
         9         8         7        11     9      180.000000       16.779317         2
         9         8         7        11     9        0.000000        0.547023         3
         9         8         7        11     9      180.000000       -1.105281         4
        11        12        13        14     9        0.000000        0.141092         1
        11        12        13        14     9      180.000000       -1.554592         2
        11        12        13        14     9        0.000000        0.129275         3
        11        12        13        14     9      180.000000        0.187854         4
        11        12        13        17     9        0.000000       -3.183877         1
        11        12        13        17     9      180.000000       11.770764         2
        11        12        13        17     9        0.000000       -0.669596         3
        11        12        13        17     9      180.000000       -2.371234         4
        11        12        13        44     9        0.000000        3.046271         1
        11        12        13        44     9      180.000000       -0.789547         2
        11        12        13        44     9        0.000000       -0.188589         3
        11        12        13        44     9      180.000000        0.438256         4
        11        18        17        13     9        0.000000       -3.183878         1
        11        18        17        13     9      180.000000       11.770767         2
        11        18        17        13     9        0.000000       -0.669596         3
        11        18        17        13     9      180.000000       -2.371235         4
        11        18        17        16     9        0.000000        0.141093         1
        11        18        17        16     9      180.000000       -1.554592         2
        11        18        17        16     9        0.000000        0.129275         3
        11        18        17        16     9      180.000000        0.187854         4
        11        18        17        49     9        0.000000        3.046269         1
        11        18        17        49     9      180.000000       -0.789547         2
        11        18        17        49     9        0.000000       -0.188588         3
        11        18        17        49     9      180.000000        0.438255         4
        12        11        18        17     9        0.000000       -0.515519         1
        12        11        18        17     9      180.000000        0.695785         2
        12        11        18        17     9        0.000000        0.374724         3
        12        11        18        17     9      180.000000       -0.306280         4
        12        11        18        50     9        0.000000       -0.040239         1
        12        11        18        50     9      180.000000       -0.063463         2
        12        11        18        50     9        0.000000        0.343610         3
        12        11        18        50     9      180.000000        0.107466         4
        12        11        18        51     9        0.000000       -0.040239         1
        12        11        18        51     9      180.000000       -0.063463         2
        12        11        18        51     9        0.000000        0.343610         3
        12        11        18        51     9      180.000000        0.107466         4
        12        13        14        15     9        0.000000       -0.177639         1
        12        13        14        15     9      180.000000       -1.441188         2
        12        13        14        15     9        0.000000        0.139510         3
        12        13        14        15     9      180.000000        0.103643         4
        12        13        14        45     9        0.000000       -0.090271         1
        12        13        14        45     9      180.000000        0.043314         2
        12        13        14        45     9        0.000000        0.181102         3
        12        13        14        45     9      180.000000        0.056845         4
        12        13        14        46     9        0.000000       -0.090271         1
        12        13        14        46     9      180.000000        0.043314         2
        12        13        14        46     9        0.000000        0.181102         3
        12        13        14        46     9      180.000000        0.056845         4
        12        13        17        16     9        0.000000       -1.429697         1
        12        13        17        16     9      180.000000       -0.955407         2
        12        13        17        16     9        0.000000        0.546147         3
        12        13        17        16     9      180.000000       -0.724521         4
        12        13        17        18     9        0.000000       -1.723216         1
        12        13        17        18     9      180.000000       -1.104300         2
        12        13        17        18     9        0.000000        0.465854         3
        12        13        17        18     9      180.000000       -0.749204         4
        12        13        17        49     9        0.000000        0.196400         1
        12        13        17        49     9      180.000000        0.124290         2
        12        13        17        49     9        0.000000        0.308843         3
        12        13        17        49     9      180.000000        0.285300         4
        13        12        11        18     9        0.000000       -0.515520         1
        13        12        11        18     9      180.000000        0.695787         2
        13        12        11        18     9        0.000000        0.374724         3
        13        12        11        18     9      180.000000       -0.306281         4
        13        14        15        16     9        0.000000       -0.098874         1
        13        14        15        16     9      180.000000       -0.275992         2
        13        14        15        16     9        0.000000        0.219330         3
        13        14        15        16     9      180.000000       -0.018668         4
        13        14        15        19     9        0.000000       -0.924898         1
        13        14        15        19     9      180.000000       -0.742800         2
        13        14        15        19     9        0.000000        0.102247         3
        13        14        15        19     9      180.000000        0.138445         4
        13        17        16        15     9        0.000000       -2.932575         1
        13        17        16        15     9      180.000000        7.822341         2
        13        17        16        15     9        0.000000       -0.704965         3
        13        17        16        15     9      180.000000       -1.187778         4
        13        17        16        47     9        0.000000        0.022483         1
        13        17        16        47     9      180.000000       -0.185436         2
        13        17        16        47     9        0.000000       -0.302149         3
        13        17        16        47     9      180.000000        0.229395         4
        13        17        16        48     9        0.000000        0.022483         1
        13        17        16        48     9      180.000000       -0.185436         2
        13        17        16        48     9        0.000000       -0.302149         3
        13        17        16        48     9      180.000000        0.229395         4
        13        17        18        50     9        0.000000        0.005453         1
        13        17        18        50     9      180.000000       -0.187956         2
        13        17        18        50     9        0.000000       -0.253493         3
        13        17        18        50     9      180.000000        0.289446         4
        13        17        18        51     9        0.000000        0.005453         1
        13        17        18        51     9      180.000000       -0.187956         2
        13        17        18        51     9        0.000000       -0.253493         3
        13        17        18        51     9      180.000000        0.289446         4
        14        13        12        42     9        0.000000       -0.150868         1
        14        13        12        42     9      180.000000        0.072012         2
        14        13        12        42     9        0.000000        0.214875         3
        14        13        12        42     9      180.000000        0.045180         4
        14        13        12        43     9        0.000000       -0.150868         1
        14        13        12        43     9      180.000000        0.072012         2
        14        13        12        43     9        0.000000        0.214875         3
        14        13        12        43     9      180.000000        0.045179         4
        14        13        17        16     9        0.000000       -0.903494         1
        14        13        17        16     9      180.000000       -0.930898         2
        14        13        17        16     9        0.000000        0.568820         3
        14        13        17        16     9      180.000000       -0.686260         4
        14        13        17        18     9        0.000000       -1.429699         1
        14        13        17        18     9      180.000000       -0.955405         2
        14        13        17        18     9        0.000000        0.546147         3
        14        13        17        18     9      180.000000       -0.724522         4
        14        13        17        49     9        0.000000       -0.022164         1
        14        13        17        49     9      180.000000        0.142975         2
        14        13        17        49     9        0.000000        0.388150         3
        14        13        17        49     9      180.000000        0.197015         4
        14        15        16        17     9        0.000000       -0.098875         1
        14        15        16        17     9      180.000000       -0.275991         2
        14        15        16        17     9        0.000000        0.219330         3
        14        15        16        17     9      180.000000       -0.018668         4
        14        15        16        47     9        0.000000       -0.018324         1
        14        15        16        47     9      180.000000       -0.010219         2
        14        15        16        47     9        0.000000        0.119733         3
        14        15        16        47     9      180.000000        0.059477         4
        14        15        16        48     9        0.000000       -0.018324         1
        14        15        16        48     9      180.000000       -0.010219         2
        14        15        16        48     9        0.000000        0.119733         3
        14        15        16        48     9      180.000000        0.059477         4
        14        15        19        20     9        0.000000       -0.772407         1
        14        15        19        20     9      180.000000       13.817704         2
        14        15        19        20     9        0.000000       -1.124658         3
        14        15        19        20     9      180.000000       -0.523087         4
        14        15        19        21     9        0.000000        3.807755         1
        14        15        19        21     9      180.000000       11.423134         2
        14        15        19        21     9        0.000000        0.950522         3
        14        15        19        21     9      180.000000       -0.728722         4
        15        14        13        17     9        0.000000       -2.932575         1
        15        14        13        17     9      180.000000        7.822339         2
        15        14        13        17     9        0.000000       -0.704966         3
        15        14        13        17     9      180.000000       -1.187778         4
        15        14        13        44     9        0.000000        0.949044         1
        15        14        13        44     9      180.000000       -0.377382         2
        15        14        13        44     9        0.000000       -0.056736         3
        15        14        13        44     9      180.000000        0.252566         4
        15        16        17        18     9        0.000000       -0.177640         1
        15        16        17        18     9      180.000000       -1.441189         2
        15        16        17        18     9        0.000000        0.139510         3
        15        16        17        18     9      180.000000        0.103643         4
        15        16        17        49     9        0.000000        0.949044         1
        15        16        17        49     9      180.000000       -0.377382         2
        15        16        17        49     9        0.000000       -0.056736         3
        15        16        17        49     9      180.000000        0.252566         4
        15        19        21        22     9        0.000000       -0.368550         1
        15        19        21        22     9      180.000000        3.799954         2
        15        19        21        22     9        0.000000       -0.343838         3
        15        19        21        22     9      180.000000        0.220400         4
        15        19        21        27     9        0.000000        1.305198         1
        15        19        21        27     9      180.000000        4.080130         2
        15        19        21        27     9        0.000000       -0.555958         3
        15        19        21        27     9      180.000000        0.231954         4
        16        15        14        45     9        0.000000       -0.018324         1
        16        15        14        45     9      180.000000       -0.010219         2
        16        15        14        45     9        0.000000        0.119733         3
        16        15        14        45     9      180.000000        0.059477         4
        16        15        14        46     9        0.000000       -0.018324         1
        16        15        14        46     9      180.000000       -0.010219         2
        16        15        14        46     9        0.000000        0.119733         3
        16        15        14        46     9      180.000000        0.059477         4
        16        15        19        20     9        0.000000       -0.772407         1
        16        15        19        20     9      180.000000       13.817704         2
        16        15        19        20     9        0.000000       -1.124658         3
        16        15        19        20     9      180.000000       -0.523087         4
        16        15        19        21     9        0.000000        3.807756         1
        16        15        19        21     9      180.000000       11.423134         2
        16        15        19        21     9        0.000000        0.950522         3
        16        15        19        21     9      180.000000       -0.728722         4
        16        17        13        44     9        0.000000       -0.022163         1
        16        17        13        44     9      180.000000        0.142975         2
        16        17        13        44     9        0.000000        0.388150         3
        16        17        13        44     9      180.000000        0.197014         4
        16        17        18        50     9        0.000000       -0.150868         1
        16        17        18        50     9      180.000000        0.072012         2
        16        17        18        50     9        0.000000        0.214875         3
        16        17        18        50     9      180.000000        0.045180         4
        16        17        18        51     9        0.000000       -0.150868         1
        16        17        18        51     9      180.000000        0.072012         2
        16        17        18        51     9        0.000000        0.214875         3
        16        17        18        51     9      180.000000        0.045180         4
        17        13        12        42     9        0.000000        0.005454         1
        17        13        12        42     9      180.000000       -0.187956         2
        17        13        12        42     9        0.000000       -0.253494         3
        17        13        12        42     9      180.000000        0.289446         4
        17        13        12        43     9        0.000000        0.005453         1
        17        13        12        43     9      180.000000       -0.187957         2
        17        13        12        43     9        0.000000       -0.253494         3
        17        13        12        43     9      180.000000        0.289446         4
        17        13        14        45     9        0.000000        0.022483         1
        17        13        14        45     9      180.000000       -0.185435         2
        17        13        14        45     9        0.000000       -0.302149         3
        17        13        14        45     9      180.000000        0.229395         4
        17        13        14        46     9        0.000000        0.022483         1
        17        13        14        46     9      180.000000       -0.185435         2
        17        13        14        46     9        0.000000       -0.302149         3
        17        13        14        46     9      180.000000        0.229395         4
        17        16        15        19     9        0.000000       -0.924897         1
        17        16        15        19     9      180.000000       -0.742800         2
        17        16        15        19     9        0.000000        0.102247         3
        17        16        15        19     9      180.000000        0.138445         4
        18        11        12        42     9        0.000000       -0.040239         1
        18        11        12        42     9      180.000000       -0.063463         2
        18        11        12        42     9        0.000000        0.343610         3
        18        11        12        42     9      180.000000        0.107466         4
        18        11        12        43     9        0.000000       -0.040239         1
        18        11        12        43     9      180.000000       -0.063463         2
        18        11        12        43     9        0.000000        0.343610         3
        18        11        12        43     9      180.000000        0.107465         4
        18        17        13        44     9        0.000000        0.196400         1
        18        17        13        44     9      180.000000        0.124289         2
        18        17        13        44     9        0.000000        0.308842         3
        18        17        13        44     9      180.000000        0.285300         4
        18        17        16        47     9        0.000000       -0.090272         1
        18        17        16        47     9      180.000000        0.043313         2
        18        17        16        47     9        0.000000        0.181102         3
        18        17        16        47     9      180.000000        0.056845         4
        18        17        16        48     9        0.000000       -0.090272         1
        18        17        16        48     9      180.000000        0.043313         2
        18        17        16        48     9        0.000000        0.181102         3
        18        17        16        48     9      180.000000        0.056845         4
        19        15        14        45     9        0.000000        0.071282         1
        19        15        14        45     9      180.000000        0.076325         2
        19        15        14        45     9        0.000000        0.084134         3
        19        15        14        45     9      180.000000       -0.022120         4
        19        15        14        46     9        0.000000        0.071282         1
        19        15        14        46     9      180.000000        0.076325         2
        19        15        14        46     9        0.000000        0.084134         3
        19        15        14        46     9      180.000000       -0.022120         4
        19        15        16        47     9        0.000000        0.071281         1
        19        15        16        47     9      180.000000        0.076325         2
        19        15        16        47     9        0.000000        0.084133         3
        19        15        16        47     9      180.000000       -0.022120         4
        19        15        16        48     9        0.000000        0.071281         1
        19        15        16        48     9      180.000000        0.076325         2
        19        15        16        48     9        0.000000        0.084133         3
        19        15        16        48     9      180.000000       -0.022120         4
        19        21        22        23     9        0.000000        0.323763         1
        19        21        22        23     9      180.000000       17.639032         2
        19        21        22        23     9        0.000000        0.671040         3
        19        21        22        23     9      180.000000       -0.965029         4
        19        21        22        24     9        0.000000       -0.042703         1
        19        21        22        24     9      180.000000       12.507043         2
        19        21        22        24     9        0.000000        0.025809         3
        19        21        22        24     9      180.000000       -0.298713         4
        19        21        27        26     9        0.000000       -0.159485         1
        19        21        27        26     9      180.000000       11.728617         2
        19        21        27        26     9        0.000000       -0.307066         3
        19        21        27        26     9      180.000000       -0.206715         4
        19        21        27        28     9        0.000000       -0.058327         1
        19        21        27        28     9      180.000000       16.156169         2
        19        21        27        28     9        0.000000        0.341551         3
        19        21        27        28     9      180.000000       -0.901250         4
        20        19        21        22     9        0.000000       -1.941661         1
        20        19        21        22     9      180.000000        1.094345         2
        20        19        21        22     9        0.000000        0.427875         3
        20        19        21        22     9      180.000000       -0.033087         4
        20        19        21        27     9        0.000000       -5.069446         1
        20        19        21        27     9      180.000000        1.308677         2
        20        19        21        27     9        0.000000        0.034082         3
        20        19        21        27     9      180.000000       -0.013060         4
        21        22        24        25     9        0.000000       -0.230779         1
        21        22        24        25     9      180.000000       17.563438         2
        21        22        24        25     9        0.000000       -1.369842         3
        21        22        24        25     9      180.000000       -0.339553         4
        21        22        24        52     9        0.000000       -0.133924         1
        21        22        24        52     9      180.000000       13.166471         2
        21        22        24        52     9        0.000000       -0.700048         3
        21        22        24        52     9      180.000000        0.076451         4
        21        27        26        25     9        0.000000       -0.224893         1
        21        27        26        25     9      180.000000       17.844406         2
        21        27        26        25     9        0.000000       -1.762319         3
        21        27        26        25     9      180.000000       -0.293758         4
        21        27        26        54     9        0.000000        0.075314         1
        21        27        26        54     9      180.000000       13.789726         2
        21        27        26        54     9        0.000000       -0.664391         3
        21        27        26        54     9      180.000000        0.152451         4
        21        27        28        29     9        0.000000       -0.928394         1
        21        27        28        29     9      180.000000        3.806786         2
        21        27        28        29     9        0.000000        0.016176         3
        21        27        28        29     9      180.000000       -0.052316         4
        21        27        28        32     9        0.000000       -0.928394         1
        21        27        28        32     9      180.000000        3.806786         2
        21        27        28        32     9        0.000000        0.016176         3
        21        27        28        32     9      180.000000       -0.052316         4
        22        21        27        26     9        0.000000       -0.141325         1
        22        21        27        26     9      180.000000       16.126330         2
        22        21        27        26     9        0.000000       -1.429498         3
        22        21        27        26     9      180.000000       -0.178699         4
        22        21        27        28     9        0.000000        0.375258         1
        22        21        27        28     9      180.000000       18.126685         2
        22        21        27        28     9        0.000000        0.186440         3
        22        21        27        28     9      180.000000       -0.681470         4
        22        24        25        26     9        0.000000       -0.152374         1
        22        24        25        26     9      180.000000       18.716159         2
        22        24        25        26     9        0.000000       -1.818927         3
        22        24        25        26     9      180.000000       -0.453550         4
        22        24        25        53     9        0.000000        0.180905         1
        22        24        25        53     9      180.000000       14.902493         2
        22        24        25        53     9        0.000000       -0.731347         3
        22        24        25        53     9      180.000000        0.027321         4
        23        22        21        27     9        0.000000        0.673215         1
        23        22        21        27     9      180.000000       23.238171         2
        23        22        21        27     9        0.000000        0.955629         3
        23        22        21        27     9      180.000000       -1.163490         4
        23        22        24        25     9        0.000000        0.552801         1
        23        22        24        25     9      180.000000       23.768154         2
        23        22        24        25     9        0.000000        0.607966         3
        23        22        24        25     9      180.000000       -0.689434         4
        23        22        24        52     9        0.000000        0.278729         1
        23        22        24        52     9      180.000000       16.994412         2
        23        22        24        52     9        0.000000        0.338076         3
        23        22        24        52     9      180.000000        0.093222         4
        24        22        21        27     9        0.000000        0.135116         1
        24        22        21        27     9      180.000000       15.814503         2
        24        22        21        27     9        0.000000       -0.812439         3
        24        22        21        27     9      180.000000       -0.422734         4
        24        25        26        27     9        0.000000       -0.192714         1
        24        25        26        27     9      180.000000       18.408477         2
        24        25        26        27     9        0.000000       -1.779917         3
        24        25        26        27     9      180.000000       -0.374514         4
        24        25        26        54     9        0.000000        0.142296         1
        24        25        26        54     9      180.000000       15.187280         2
        24        25        26        54     9        0.000000       -0.758856         3
        24        25        26        54     9      180.000000        0.063922         4
        25        26        27        28     9        0.000000        0.358636         1
        25        26        27        28     9      180.000000       18.702790         2
        25        26        27        28     9        0.000000        0.139137         3
        25        26        27        28     9      180.000000       -0.377297         4
        26        25        24        52     9        0.000000        0.246067         1
        26        25        24        52     9      180.000000       14.028888         2
        26        25        24        52     9        0.000000       -0.660950         3
        26        25        24        52     9      180.000000        0.116191         4
        26        27        28        29     9        0.000000        0.756737         1
        26        27        28        29     9      180.000000        3.189610         2
        26        27        28        29     9        0.000000       -0.349349         3
        26        27        28        29     9      180.000000        0.086097         4
        26        27        28        32     9        0.000000        0.756737         1
        26        27        28        32     9      180.000000        3.189610         2
        26        27        28        32     9        0.000000       -0.349349         3
        26        27        28        32     9      180.000000        0.086097         4
        27        26        25        53     9        0.000000        0.014670         1
        27        26        25        53     9      180.000000       14.765854         2
        27        26        25        53     9        0.000000       -0.786746         3
        27        26        25        53     9      180.000000        0.015738         4
        27        28        29        30     9        0.000000        0.775624         1
        27        28        29        30     9      180.000000       14.213466         2
        27        28        29        30     9        0.000000        0.460130         3
        27        28        29        30     9      180.000000       -0.178471         4
        27        28        32        31     9        0.000000        0.775624         1
        27        28        32        31     9      180.000000       14.213466         2
        27        28        32        31     9        0.000000        0.460130         3
        27        28        32        31     9      180.000000       -0.178471         4
        28        27        26        54     9        0.000000        0.319830         1
        28        27        26        54     9      180.000000       14.602055         2
        28        27        26        54     9        0.000000        0.000376         3
        28        27        26        54     9      180.000000        0.144391         4
        28        29        30        31     9        0.000000       -0.095083         1
        28        29        30        31     9      180.000000       41.109451         2
        28        29        30        31     9        0.000000       -5.890197         3
        28        29        30        31     9      180.000000       -0.007891         4
        28        29        30        55     9        0.000000        1.230246         1
        28        29        30        55     9      180.000000       26.477525         2
        28        29        30        55     9        0.000000       -0.131285         3
        28        29        30        55     9      180.000000       -0.123740         4
        28        32        31        30     9        0.000000       -0.095083         1
        28        32        31        30     9      180.000000       41.109451         2
        28        32        31        30     9        0.000000       -5.890197         3
        28        32        31        30     9      180.000000       -0.007891         4
        28        32        31        56     9        0.000000        1.230246         1
        28        32        31        56     9      180.000000       26.477525         2
        28        32        31        56     9        0.000000       -0.131285         3
        28        32        31        56     9      180.000000       -0.123740         4
        29        28        32        31     9        0.000000       -0.214504         1
        29        28        32        31     9      180.000000       33.461254         2
        29        28        32        31     9        0.000000       -5.627568         3
        29        28        32        31     9      180.000000        0.135267         4
        29        30        31        32     9        0.000000       -0.646396         1
        29        30        31        32     9      180.000000       33.879564         2
        29        30        31        32     9        0.000000       -7.997882         3
        29        30        31        32     9      180.000000       -0.068922         4
        29        30        31        56     9        0.000000        0.399471         1
        29        30        31        56     9      180.000000       15.777787         2
        29        30        31        56     9        0.000000       -0.622625         3
        29        30        31        56     9      180.000000       -0.473181         4
        30        29        28        32     9        0.000000       -0.214504         1
        30        29        28        32     9      180.000000       33.461254         2
        30        29        28        32     9        0.000000       -5.627568         3
        30        29        28        32     9      180.000000        0.135267         4
        32        31        30        55     9        0.000000        0.399471         1
        32        31        30        55     9      180.000000       15.777787         2
        32        31        30        55     9        0.000000       -0.622625         3
        32        31        30        55     9      180.000000       -0.473181         4
        42        12        13        44     9        0.000000       -0.140740         1
        42        12        13        44     9      180.000000       -0.009946         2
        42        12        13        44     9        0.000000        0.295617         3
        42        12        13        44     9      180.000000       -0.018107         4
        43        12        13        44     9        0.000000       -0.140741         1
        43        12        13        44     9      180.000000       -0.009948         2
        43        12        13        44     9        0.000000        0.295617         3
        43        12        13        44     9      180.000000       -0.018107         4
        44        13        14        45     9        0.000000       -0.086595         1
        44        13        14        45     9      180.000000        0.026399         2
        44        13        14        45     9        0.000000        0.269152         3
        44        13        14        45     9      180.000000       -0.020189         4
        44        13        14        46     9        0.000000       -0.086595         1
        44        13        14        46     9      180.000000        0.026399         2
        44        13        14        46     9        0.000000        0.269152         3
        44        13        14        46     9      180.000000       -0.020189         4
        44        13        17        49     9        0.000000        0.223574         1
        44        13        17        49     9      180.000000       -0.077956         2
        44        13        17        49     9        0.000000        0.353694         3
        44        13        17        49     9      180.000000       -0.057173         4
        47        16        17        49     9        0.000000       -0.086595         1
        47        16        17        49     9      180.000000        0.026398         2
        47        16        17        49     9        0.000000        0.269152         3
        47        16        17        49     9      180.000000       -0.020189         4
        48        16        17        49     9        0.000000       -0.086595         1
        48        16        17        49     9      180.000000        0.026398         2
        48        16        17        49     9        0.000000        0.269152         3
        48        16        17        49     9      180.000000       -0.020189         4
        49        17        18        50     9        0.000000       -0.140741         1
        49        17        18        50     9      180.000000       -0.009947         2
        49        17        18        50     9        0.000000        0.295617         3
        49        17        18        50     9      180.000000       -0.018107         4
        49        17        18        51     9        0.000000       -0.140741         1
        49        17        18        51     9      180.000000       -0.009947         2
        49        17        18        51     9        0.000000        0.295617         3
        49        17        18        51     9      180.000000       -0.018107         4
        52        24        25        53     9        0.000000       -0.176698         1
        52        24        25        53     9      180.000000       10.882745         2
        52        24        25        53     9        0.000000       -0.527182         3
        52        24        25        53     9      180.000000        0.131688         4
        53        25        26        54     9        0.000000       -0.152786         1
        53        25        26        54     9      180.000000       12.297011         2
        53        25        26        54     9        0.000000       -0.885313         3
        53        25        26        54     9      180.000000        0.289530         4
        55        30        31        56     9        0.000000       -0.304766         1
        55        30        31        56     9      180.000000        8.321253         2
        55        30        31        56     9        0.000000       -0.141498         3
        55        30        31        56     9      180.000000        0.273252         4

[ dihedrals ] ; impropers
;       ai        aj        ak        al funct           phase               k        pn
         4         3         5         6     4      180.000000       13.310375         2
         4         5         6         3     4      180.000000       13.310375         2
         4         6         3         5     4      180.000000       13.310375         2
         7         6         8        11     4      180.000000       27.893333         2
         7         8        11         6     4      180.000000       27.893333         2
         7        11         6         8     4      180.000000       27.893333         2
         9         3         8        10     4      180.000000       13.310375         2
         9         8        10         3     4      180.000000       13.310375         2
         9        10         3         8     4      180.000000       13.310375         2
        24        22        25        52     4      180.000000        0.307014         2
        24        25        52        22     4      180.000000        0.307014         2
        24        52        22        25     4      180.000000        0.307014         2
        25        24        26        53     4      180.000000        2.050246         2
        25        26        53        24     4      180.000000        2.050246         2
        25        53        24        26     4      180.000000        2.050246         2
        26        25        27        54     4      180.000000        0.161180         2
        26        27        54        25     4      180.000000        0.161180         2
        26        54        25        27     4      180.000000        0.161180         2

[ pairs ]
;       ai        aj funct
         1         4     1
         1         9     1
         2         5     1
         2         6     1
         2         8     1
         2        10     1
         3         7     1
         3        33     1
         3        34     1
         3        35     1
         3        36     1
         3        37     1
         3        38     1
         3        39     1
         3        40     1
         3        41     1
         4         8     1
         4        10     1
         4        11     1
         5         7     1
         5         9     1
         6         9     1
         6        12     1
         6        18     1
         6        36     1
         6        37     1
         6        38     1
         7        10     1
         7        13     1
         7        17     1
         7        42     1
         7        43     1
         7        50     1
         7        51     1
         8        12     1
         8        18     1
         8        39     1
         8        40     1
         8        41     1
         9        11     1
        11        14     1
        11        16     1
        11        44     1
        11        49     1
        12        15     1
        12        16     1
        12        45     1
        12        46     1
        12        49     1
        12        50     1
        12        51     1
        13        19     1
        13        47     1
        13        48     1
        13        50     1
        13        51     1
        14        18     1
        14        20     1
        14        21     1
        14        42     1
        14        43     1
        14        47     1
        14        48     1
        14        49     1
        15        18     1
        15        22     1
        15        27     1
        15        44     1
        15        49     1
        16        20     1
        16        21     1
        16        44     1
        16        45     1
        16        46     1
        16        50     1
        16        51     1
        17        19     1
        17        42     1
        17        43     1
        17        45     1
        17        46     1
        18        42     1
        18        43     1
        18        44     1
        18        47     1
        18        48     1
        19        23     1
        19        24     1
        19        26     1
        19        28     1
        19        45     1
        19        46     1
        19        47     1
        19        48     1
        20        22     1
        20        27     1
        21        25     1
        21        29     1
        21        32     1
        21        52     1
        21        54     1
        22        26     1
        22        28     1
        22        53     1
        23        25     1
        23        27     1
        23        52     1
        24        27     1
        24        54     1
        25        28     1
        26        29     1
        26        32     1
        26        52     1
        27        30     1
        27        31     1
        27        53     1
        28        54     1
        28        55     1
        28        56     1
        29        56     1
        32        55     1
        42        44     1
        43        44     1
        44        45     1
        44        46     1
        44        49     1
        47        49     1
        48        49     1
        49        50     1
        49        51     1
        52        53     1
        53        54     1
        55        56     1
