; ITP file created by ByteFF-ML, 2025-12-06 04:43:24.639178

[ atomtypes ]
;name           bonded.type        at.num        mass        charge   ptype           sigma         epsilon
 c0bf                                   6      0.0000       0.00000       A     3.39813e-01     4.50976e-01
 c1bf                                   6      0.0000       0.00000       A     3.31356e-01     4.11183e-01
 c2bf                                   6      0.0000       0.00000       A     3.31508e-01     4.12834e-01
 c3bf                                   6      0.0000       0.00000       A     3.31356e-01     4.11183e-01
 c4bf                                   6      0.0000       0.00000       A     3.39813e-01     4.50976e-01
 n5bf                                   7      0.0000       0.00000       A     3.38255e-01     3.94373e-01
 c6bf                                   6      0.0000       0.00000       A     3.31548e-01     4.12659e-01
 n7bf                                   7      0.0000       0.00000       A     3.38255e-01     3.94373e-01
 n8bf                                   7      0.0000       0.00000       A     3.19428e-01     8.94136e-01
 c9bf                                   6      0.0000       0.00000       A     3.39585e-01     4.49212e-01
 c10bf                                  6      0.0000       0.00000       A     3.39712e-01     4.49806e-01
 c11bf                                  6      0.0000       0.00000       A     3.39807e-01     4.50623e-01
 n12bf                                  7      0.0000       0.00000       A     3.18110e-01     6.89069e-01
 c13bf                                  6      0.0000       0.00000       A     3.39807e-01     4.50623e-01
 c14bf                                  6      0.0000       0.00000       A     3.39712e-01     4.49806e-01
 c15bf                                  6      0.0000       0.00000       A     3.39585e-01     4.49212e-01
 c16bf                                  6      0.0000       0.00000       A     3.31527e-01     4.09915e-01
 o17bf                                  8      0.0000       0.00000       A     3.04416e-01     6.07959e-01
 c18bf                                  6      0.0000       0.00000       A     3.31509e-01     4.17843e-01
 n19bf                                  7      0.0000       0.00000       A     3.38244e-01     3.94339e-01
 c20bf                                  6      0.0000       0.00000       A     3.31547e-01     4.12598e-01
 c21bf                                  6      0.0000       0.00000       A     3.31518e-01     4.13170e-01
 c22bf                                  6      0.0000       0.00000       A     3.31433e-01     4.11582e-01
 c23bf                                  6      0.0000       0.00000       A     3.31223e-01     4.15613e-01
 n24bf                                  7      0.0000       0.00000       A     3.20821e-01     8.50017e-01
 n25bf                                  7      0.0000       0.00000       A     3.38268e-01     3.95163e-01
 c26bf                                  6      0.0000       0.00000       A     3.31301e-01     4.12308e-01
 c27bf                                  6      0.0000       0.00000       A     3.31301e-01     4.12308e-01
 n28bf                                  7      0.0000       0.00000       A     3.38268e-01     3.95163e-01
 h29bf                                  1      0.0000       0.00000       A     2.59989e-01     8.71151e-02
 h30bf                                  1      0.0000       0.00000       A     2.59989e-01     8.71151e-02
 h31bf                                  1      0.0000       0.00000       A     2.59989e-01     8.71151e-02
 h32bf                                  1      0.0000       0.00000       A     2.62556e-01     6.77132e-02
 h33bf                                  1      0.0000       0.00000       A     2.59989e-01     8.71151e-02
 h34bf                                  1      0.0000       0.00000       A     2.59989e-01     8.71151e-02
 h35bf                                  1      0.0000       0.00000       A     2.59989e-01     8.71151e-02
 h36bf                                  1      0.0000       0.00000       A     2.42127e-01     8.72842e-02
 h37bf                                  1      0.0000       0.00000       A     2.42127e-01     8.72842e-02
 h38bf                                  1      0.0000       0.00000       A     2.60149e-01     8.67575e-02
 h39bf                                  1      0.0000       0.00000       A     2.42171e-01     8.72571e-02
 h40bf                                  1      0.0000       0.00000       A     2.42171e-01     8.72571e-02
 h41bf                                  1      0.0000       0.00000       A     2.42171e-01     8.72571e-02
 h42bf                                  1      0.0000       0.00000       A     2.42171e-01     8.72571e-02
 h43bf                                  1      0.0000       0.00000       A     2.60149e-01     8.67575e-02
 h44bf                                  1      0.0000       0.00000       A     2.42127e-01     8.72842e-02
 h45bf                                  1      0.0000       0.00000       A     2.42127e-01     8.72842e-02
 h46bf                                  1      0.0000       0.00000       A     2.53658e-01     6.72903e-02
 h47bf                                  1      0.0000       0.00000       A     2.62486e-01     6.74164e-02
 h48bf                                  1      0.0000       0.00000       A     2.62493e-01     6.77212e-02
 h49bf                                  1      0.0000       0.00000       A     2.53896e-01     6.74946e-02
 h50bf                                  1      0.0000       0.00000       A     2.53896e-01     6.74946e-02

[ moleculetype ]
;name             nrexcl
 set_2_11              3

[ atoms ]
;       nr            type      resi   res      atom      cgnr      charge          mass ; qtot
         1            c0bf         1   UNL        c0         1    -0.15050       12.0110 ; qtot   -0.150
         2            c1bf         1   UNL        c1         2     0.16283       12.0110 ; qtot    0.012
         3            c2bf         1   UNL        c2         3    -0.27614       12.0110 ; qtot   -0.264
         4            c3bf         1   UNL        c3         4     0.16283       12.0110 ; qtot   -0.101
         5            c4bf         1   UNL        c4         5    -0.15050       12.0110 ; qtot   -0.251
         6            n5bf         1   UNL        n5         6    -0.25087       14.0070 ; qtot   -0.502
         7            c6bf         1   UNL        c6         7     0.38591       12.0110 ; qtot   -0.116
         8            n7bf         1   UNL        n7         8    -0.25087       14.0070 ; qtot   -0.367
         9            n8bf         1   UNL        n8         9    -0.78178       14.0070 ; qtot   -1.149
        10            c9bf         1   UNL        c9        10     0.23669       12.0110 ; qtot   -0.912
        11           c10bf         1   UNL       c10        11    -0.10309       12.0110 ; qtot   -1.015
        12           c11bf         1   UNL       c11        12     0.11529       12.0110 ; qtot   -0.900
        13           n12bf         1   UNL       n12        13    -0.40089       14.0070 ; qtot   -1.301
        14           c13bf         1   UNL       c13        14     0.11529       12.0110 ; qtot   -1.186
        15           c14bf         1   UNL       c14        15    -0.10309       12.0110 ; qtot   -1.289
        16           c15bf         1   UNL       c15        16     0.23669       12.0110 ; qtot   -1.052
        17           c16bf         1   UNL       c16        17     0.53189       12.0110 ; qtot   -0.520
        18           o17bf         1   UNL       o17        18    -0.59020       15.9990 ; qtot   -1.111
        19           c18bf         1   UNL       c18        19     0.31589       12.0110 ; qtot   -0.795
        20           n19bf         1   UNL       n19        20    -0.63655       14.0070 ; qtot   -1.431
        21           c20bf         1   UNL       c20        21     0.33352       12.0110 ; qtot   -1.098
        22           c21bf         1   UNL       c21        22    -0.14593       12.0110 ; qtot   -1.244
        23           c22bf         1   UNL       c22        23    -0.06198       12.0110 ; qtot   -1.306
        24           c23bf         1   UNL       c23        24     0.01092       12.0110 ; qtot   -1.295
        25           n24bf         1   UNL       n24        25     0.31671       14.0070 ; qtot   -0.978
        26           n25bf         1   UNL       n25        26    -0.47509       14.0070 ; qtot   -1.453
        27           c26bf         1   UNL       c26        27     0.20780       12.0110 ; qtot   -1.245
        28           c27bf         1   UNL       c27        28     0.20780       12.0110 ; qtot   -1.037
        29           n28bf         1   UNL       n28        29    -0.47509       14.0070 ; qtot   -1.513
        30           h29bf         1   UNL       h29        30     0.05717        1.0080 ; qtot   -1.455
        31           h30bf         1   UNL       h30        31     0.05717        1.0080 ; qtot   -1.398
        32           h31bf         1   UNL       h31        32     0.05717        1.0080 ; qtot   -1.341
        33           h32bf         1   UNL       h32        33     0.13105        1.0080 ; qtot   -1.210
        34           h33bf         1   UNL       h33        34     0.05717        1.0080 ; qtot   -1.153
        35           h34bf         1   UNL       h34        35     0.05717        1.0080 ; qtot   -1.096
        36           h35bf         1   UNL       h35        36     0.05717        1.0080 ; qtot   -1.038
        37           h36bf         1   UNL       h36        37     0.05798        1.0080 ; qtot   -0.980
        38           h37bf         1   UNL       h37        38     0.05798        1.0080 ; qtot   -0.922
        39           h38bf         1   UNL       h38        39     0.07208        1.0080 ; qtot   -0.850
        40           h39bf         1   UNL       h39        40     0.06112        1.0080 ; qtot   -0.789
        41           h40bf         1   UNL       h40        41     0.06112        1.0080 ; qtot   -0.728
        42           h41bf         1   UNL       h41        42     0.06112        1.0080 ; qtot   -0.667
        43           h42bf         1   UNL       h42        43     0.06112        1.0080 ; qtot   -0.606
        44           h43bf         1   UNL       h43        44     0.07208        1.0080 ; qtot   -0.534
        45           h44bf         1   UNL       h44        45     0.05798        1.0080 ; qtot   -0.476
        46           h45bf         1   UNL       h45        46     0.05798        1.0080 ; qtot   -0.418
        47           h46bf         1   UNL       h46        47     0.02838        1.0080 ; qtot   -0.389
        48           h47bf         1   UNL       h47        48     0.13090        1.0080 ; qtot   -0.259
        49           h48bf         1   UNL       h48        49     0.14611        1.0080 ; qtot   -0.112
        50           h49bf         1   UNL       h49        50     0.05626        1.0080 ; qtot   -0.056
        51           h50bf         1   UNL       h50        51     0.05623        1.0080 ; qtot    0.000

[ bonds ]
;       ai        aj funct               r               k
         1         2     1        0.150694   207469.745923
         1        30     1        0.109354   305309.983691
         1        31     1        0.109354   305309.983691
         1        32     1        0.109354   305309.983691
         2         3     1        0.140051   285005.555713
         2         8     1        0.133745   333057.585254
         3         4     1        0.140051   285005.555713
         3        33     1        0.108514   321723.577686
         4         5     1        0.150694   207469.745923
         4         6     1        0.133745   333057.585254
         5        34     1        0.109354   305309.983691
         5        35     1        0.109354   305309.983691
         5        36     1        0.109354   305309.983691
         6         7     1        0.135061   255154.794434
         7         8     1        0.135061   255154.794434
         7         9     1        0.136150   322423.090186
         9        10     1        0.146885   181060.582568
         9        16     1        0.146885   181060.557031
        10        11     1        0.153334   175036.020947
        10        37     1        0.109481   294444.786377
        10        38     1        0.109481   294444.786377
        11        12     1        0.153399   175674.308228
        11        15     1        0.154277   149842.130322
        11        39     1        0.109325   303915.912891
        12        13     1        0.147364   176597.857788
        12        40     1        0.109367   298866.613477
        12        41     1        0.109367   298866.613477
        13        14     1        0.147364   176597.857788
        13        17     1        0.135472   320697.317871
        14        15     1        0.153399   175674.308228
        14        42     1        0.109367   298866.587939
        14        43     1        0.109367   298866.587939
        15        16     1        0.153334   175036.020947
        15        44     1        0.109325   303915.912891
        16        45     1        0.109481   294444.811914
        16        46     1        0.109481   294444.811914
        17        18     1        0.123596   584834.024414
        17        19     1        0.151611   176839.477148
        19        20     1        0.133782   313349.499854
        19        24     1        0.140827   262115.904004
        20        21     1        0.133774   317512.738184
        21        22     1        0.139861   291546.222314
        21        47     1        0.108762   317029.908057
        22        23     1        0.139264   326857.839062
        22        48     1        0.108518   324221.643262
        23        24     1        0.139840   296955.441748
        23        49     1        0.108439   326464.005762
        24        25     1        0.141791   238566.781982
        25        26     1        0.134142   242574.678076
        25        29     1        0.134142   242574.678076
        26        27     1        0.133400   351464.989062
        27        28     1        0.141148   279463.543311
        27        50     1        0.108128   339085.415625
        28        29     1        0.133400   351464.989062
        28        51     1        0.108128   339085.415625

[ angles ]
;       ai        aj        ak funct           theta             cth
         1         2         3     1      122.040428      489.957279
         1         2         8     1      116.354942      475.838226
         2         1        30     1      110.547607      500.572608
         2         1        31     1      110.547607      500.572608
         2         1        32     1      110.547607      500.572608
         2         3         4     1      117.478683      761.775612
         2         3        33     1      121.294067      418.995525
         2         8         7     1      116.614647      960.079055
         3         2         8     1      121.655540      736.540159
         3         4         5     1      122.040428      489.957279
         3         4         6     1      121.655540      736.540159
         4         3        33     1      121.294067      418.995525
         4         5        34     1      110.547607      500.572608
         4         5        35     1      110.547607      500.572608
         4         5        36     1      110.547607      500.572608
         4         6         7     1      116.614647      960.079055
         5         4         6     1      116.354942      475.838226
         6         7         8     1      126.191666      604.351846
         6         7         9     1      116.861961      541.920764
         7         9        10     1      122.793289      492.092852
         7         9        16     1      122.793289      492.092852
         8         7         9     1      116.861961      541.920764
         9        10        11     1      102.892921      518.507927
         9        10        37     1      110.665466      411.334967
         9        10        38     1      110.665466      411.334967
         9        16        15     1      102.892921      518.507927
         9        16        45     1      110.665466      411.334967
         9        16        46     1      110.665466      411.334967
        10         9        16     1      113.053551      339.130642
        10        11        12     1      115.939186      492.595358
        10        11        15     1      103.531944      553.400524
        10        11        39     1      110.411415      471.837231
        11        10        37     1      112.134521      456.886371
        11        10        38     1      112.134521      456.886371
        11        12        13     1      103.351929      531.435482
        11        12        40     1      112.257553      451.675045
        11        12        41     1      112.257553      451.675045
        11        15        14     1      103.865463      536.103346
        11        15        16     1      103.531944      553.400524
        11        15        44     1      111.068626      475.836438
        12        11        15     1      103.865463      536.103346
        12        11        39     1      110.490501      465.748035
        12        13        14     1      111.840149      390.224460
        12        13        17     1      123.750565      456.519562
        13        12        40     1      110.366051      438.979335
        13        12        41     1      110.366051      438.979335
        13        14        15     1      103.351929      531.435482
        13        14        42     1      110.366051      438.979335
        13        14        43     1      110.366051      438.979335
        13        17        18     1      122.867966      623.912505
        13        17        19     1      117.215515      466.872402
        14        13        17     1      123.750565      456.519562
        14        15        16     1      115.939186      492.595358
        14        15        44     1      110.490501      465.748035
        15        11        39     1      111.068642      475.836438
        15        14        42     1      112.257553      451.675045
        15        14        43     1      112.257553      451.675045
        15        16        45     1      112.134521      456.886371
        15        16        46     1      112.134521      456.886371
        16        15        44     1      110.411415      471.837167
        17        19        20     1      116.261024      568.756371
        17        19        24     1      121.908401      554.077130
        18        17        19     1      119.488487      508.344189
        19        20        21     1      118.755661      691.925233
        19        24        23     1      119.028885      695.822068
        19        24        25     1      121.826431      498.721264
        20        19        24     1      121.861473      701.990302
        20        21        22     1      123.111099      707.854452
        20        21        47     1      116.154686      395.290895
        21        22        23     1      118.335854      780.534087
        21        22        48     1      120.514427      441.837193
        22        21        47     1      120.756119      413.000785
        22        23        24     1      118.535057      748.832064
        22        23        49     1      121.924271      416.340751
        23        22        48     1      121.085342      436.254525
        23        24        25     1      118.674438      558.334485
        24        23        49     1      119.275612      420.964022
        24        25        26     1      121.807579      531.371416
        24        25        29     1      121.807579      531.371416
        25        26        27     1      103.813499      479.820898
        25        29        28     1      103.813499      479.820898
        26        25        29     1      115.111343      211.520525
        26        27        28     1      108.716751      296.647841
        26        27        50     1      120.754967      391.103384
        27        28        29     1      108.716751      296.647809
        27        28        51     1      130.286758      343.611766
        28        27        50     1      130.286758      343.611766
        29        28        51     1      120.754967      391.103384
        30         1        31     1      108.389893      359.969498
        30         1        32     1      108.389893      359.969498
        31         1        32     1      108.389893      359.969498
        34         5        35     1      108.389893      359.969498
        34         5        36     1      108.389893      359.969498
        35         5        36     1      108.389893      359.969498
        37        10        38     1      107.788414      347.454335
        40        12        41     1      107.830688      347.630158
        42        14        43     1      107.830688      347.630126
        45        16        46     1      107.788414      347.454335

[ dihedrals ] ; propers for gromacs 4.5 or higher, use funct 9
;       ai        aj        ak        al funct           phase               k        pn
         1         2         3         4     9        0.000000        0.256556         1
         1         2         3         4     9      180.000000       13.179428         2
         1         2         3         4     9        0.000000       -0.097633         3
         1         2         3         4     9      180.000000       -0.317869         4
         1         2         3        33     9        0.000000       -0.223957         1
         1         2         3        33     9      180.000000       11.375068         2
         1         2         3        33     9        0.000000       -0.534831         3
         1         2         3        33     9      180.000000        0.134009         4
         1         2         8         7     9        0.000000       -0.024262         1
         1         2         8         7     9      180.000000       17.595210         2
         1         2         8         7     9        0.000000        0.133711         3
         1         2         8         7     9      180.000000       -0.526295         4
         2         3         4         5     9        0.000000        0.256556         1
         2         3         4         5     9      180.000000       13.179428         2
         2         3         4         5     9        0.000000       -0.097633         3
         2         3         4         5     9      180.000000       -0.317869         4
         2         3         4         6     9        0.000000       -0.062248         1
         2         3         4         6     9      180.000000       14.568157         2
         2         3         4         6     9        0.000000       -0.276619         3
         2         3         4         6     9      180.000000       -0.509287         4
         2         8         7         6     9        0.000000        0.513201         1
         2         8         7         6     9      180.000000        9.191428         2
         2         8         7         6     9        0.000000        0.738957         3
         2         8         7         6     9      180.000000       -0.519149         4
         2         8         7         9     9        0.000000        1.229502         1
         2         8         7         9     9      180.000000       16.103329         2
         2         8         7         9     9        0.000000        0.664456         3
         2         8         7         9     9      180.000000       -1.018199         4
         3         2         1        30     9        0.000000       -0.025287         1
         3         2         1        30     9      180.000000       -0.035803         2
         3         2         1        30     9        0.000000       -0.089579         3
         3         2         1        30     9      180.000000        0.005712         4
         3         2         1        31     9        0.000000       -0.025287         1
         3         2         1        31     9      180.000000       -0.035803         2
         3         2         1        31     9        0.000000       -0.089579         3
         3         2         1        31     9      180.000000        0.005712         4
         3         2         1        32     9        0.000000       -0.025287         1
         3         2         1        32     9      180.000000       -0.035803         2
         3         2         1        32     9        0.000000       -0.089579         3
         3         2         1        32     9      180.000000        0.005712         4
         3         2         8         7     9        0.000000       -0.379284         1
         3         2         8         7     9      180.000000       19.341467         2
         3         2         8         7     9        0.000000       -1.106329         3
         3         2         8         7     9      180.000000       -0.500796         4
         3         4         5        34     9        0.000000       -0.025287         1
         3         4         5        34     9      180.000000       -0.035803         2
         3         4         5        34     9        0.000000       -0.089579         3
         3         4         5        34     9      180.000000        0.005712         4
         3         4         5        35     9        0.000000       -0.025287         1
         3         4         5        35     9      180.000000       -0.035803         2
         3         4         5        35     9        0.000000       -0.089579         3
         3         4         5        35     9      180.000000        0.005712         4
         3         4         5        36     9        0.000000       -0.025287         1
         3         4         5        36     9      180.000000       -0.035803         2
         3         4         5        36     9        0.000000       -0.089579         3
         3         4         5        36     9      180.000000        0.005712         4
         3         4         6         7     9        0.000000       -0.379284         1
         3         4         6         7     9      180.000000       19.341467         2
         3         4         6         7     9        0.000000       -1.106329         3
         3         4         6         7     9      180.000000       -0.500796         4
         4         3         2         8     9        0.000000       -0.062248         1
         4         3         2         8     9      180.000000       14.568157         2
         4         3         2         8     9        0.000000       -0.276619         3
         4         3         2         8     9      180.000000       -0.509287         4
         4         6         7         8     9        0.000000        0.513201         1
         4         6         7         8     9      180.000000        9.191428         2
         4         6         7         8     9        0.000000        0.738957         3
         4         6         7         8     9      180.000000       -0.519149         4
         4         6         7         9     9        0.000000        1.229502         1
         4         6         7         9     9      180.000000       16.103329         2
         4         6         7         9     9        0.000000        0.664456         3
         4         6         7         9     9      180.000000       -1.018199         4
         5         4         3        33     9        0.000000       -0.223957         1
         5         4         3        33     9      180.000000       11.375068         2
         5         4         3        33     9        0.000000       -0.534831         3
         5         4         3        33     9      180.000000        0.134009         4
         5         4         6         7     9        0.000000       -0.024262         1
         5         4         6         7     9      180.000000       17.595210         2
         5         4         6         7     9        0.000000        0.133711         3
         5         4         6         7     9      180.000000       -0.526295         4
         6         4         3        33     9        0.000000       -0.034010         1
         6         4         3        33     9      180.000000       12.223298         2
         6         4         3        33     9        0.000000       -0.267637         3
         6         4         3        33     9      180.000000       -0.072661         4
         6         4         5        34     9        0.000000        0.003881         1
         6         4         5        34     9      180.000000       -0.062736         2
         6         4         5        34     9        0.000000        0.023445         3
         6         4         5        34     9      180.000000       -0.007650         4
         6         4         5        35     9        0.000000        0.003881         1
         6         4         5        35     9      180.000000       -0.062736         2
         6         4         5        35     9        0.000000        0.023445         3
         6         4         5        35     9      180.000000       -0.007650         4
         6         4         5        36     9        0.000000        0.003881         1
         6         4         5        36     9      180.000000       -0.062736         2
         6         4         5        36     9        0.000000        0.023445         3
         6         4         5        36     9      180.000000       -0.007650         4
         6         7         9        10     9        0.000000        0.747629         1
         6         7         9        10     9      180.000000        9.366862         2
         6         7         9        10     9        0.000000       -0.095722         3
         6         7         9        10     9      180.000000       -1.018207         4
         6         7         9        16     9        0.000000        0.747628         1
         6         7         9        16     9      180.000000        9.366863         2
         6         7         9        16     9        0.000000       -0.095722         3
         6         7         9        16     9      180.000000       -1.018207         4
         7         9        10        11     9        0.000000       -3.777482         1
         7         9        10        11     9      180.000000       -0.445033         2
         7         9        10        11     9        0.000000        0.410579         3
         7         9        10        11     9      180.000000        0.178916         4
         7         9        10        37     9        0.000000       -0.010161         1
         7         9        10        37     9      180.000000       -0.080809         2
         7         9        10        37     9        0.000000        0.536714         3
         7         9        10        37     9      180.000000       -0.022063         4
         7         9        10        38     9        0.000000       -0.010161         1
         7         9        10        38     9      180.000000       -0.080809         2
         7         9        10        38     9        0.000000        0.536714         3
         7         9        10        38     9      180.000000       -0.022063         4
         7         9        16        15     9        0.000000       -3.777482         1
         7         9        16        15     9      180.000000       -0.445032         2
         7         9        16        15     9        0.000000        0.410579         3
         7         9        16        15     9      180.000000        0.178916         4
         7         9        16        45     9        0.000000       -0.010160         1
         7         9        16        45     9      180.000000       -0.080811         2
         7         9        16        45     9        0.000000        0.536714         3
         7         9        16        45     9      180.000000       -0.022063         4
         7         9        16        46     9        0.000000       -0.010160         1
         7         9        16        46     9      180.000000       -0.080811         2
         7         9        16        46     9        0.000000        0.536714         3
         7         9        16        46     9      180.000000       -0.022063         4
         8         2         1        30     9        0.000000        0.003881         1
         8         2         1        30     9      180.000000       -0.062736         2
         8         2         1        30     9        0.000000        0.023445         3
         8         2         1        30     9      180.000000       -0.007650         4
         8         2         1        31     9        0.000000        0.003881         1
         8         2         1        31     9      180.000000       -0.062736         2
         8         2         1        31     9        0.000000        0.023445         3
         8         2         1        31     9      180.000000       -0.007650         4
         8         2         1        32     9        0.000000        0.003881         1
         8         2         1        32     9      180.000000       -0.062736         2
         8         2         1        32     9        0.000000        0.023445         3
         8         2         1        32     9      180.000000       -0.007650         4
         8         2         3        33     9        0.000000       -0.034010         1
         8         2         3        33     9      180.000000       12.223298         2
         8         2         3        33     9        0.000000       -0.267637         3
         8         2         3        33     9      180.000000       -0.072661         4
         8         7         9        10     9        0.000000        0.747629         1
         8         7         9        10     9      180.000000        9.366862         2
         8         7         9        10     9        0.000000       -0.095722         3
         8         7         9        10     9      180.000000       -1.018207         4
         8         7         9        16     9        0.000000        0.747628         1
         8         7         9        16     9      180.000000        9.366863         2
         8         7         9        16     9        0.000000       -0.095722         3
         8         7         9        16     9      180.000000       -1.018207         4
         9        10        11        12     9        0.000000        0.105862         1
         9        10        11        12     9      180.000000       -1.545971         2
         9        10        11        12     9        0.000000        0.128987         3
         9        10        11        12     9      180.000000        0.187216         4
         9        10        11        15     9        0.000000       -3.183876         1
         9        10        11        15     9      180.000000       11.770762         2
         9        10        11        15     9        0.000000       -0.669596         3
         9        10        11        15     9      180.000000       -2.371235         4
         9        10        11        39     9        0.000000        3.046272         1
         9        10        11        39     9      180.000000       -0.789547         2
         9        10        11        39     9        0.000000       -0.188589         3
         9        10        11        39     9      180.000000        0.438256         4
         9        16        15        11     9        0.000000       -3.183875         1
         9        16        15        11     9      180.000000       11.770769         2
         9        16        15        11     9        0.000000       -0.669596         3
         9        16        15        11     9      180.000000       -2.371236         4
         9        16        15        14     9        0.000000        0.105863         1
         9        16        15        14     9      180.000000       -1.545970         2
         9        16        15        14     9        0.000000        0.128987         3
         9        16        15        14     9      180.000000        0.187216         4
         9        16        15        44     9        0.000000        3.046268         1
         9        16        15        44     9      180.000000       -0.789546         2
         9        16        15        44     9        0.000000       -0.188588         3
         9        16        15        44     9      180.000000        0.438255         4
        10         9        16        15     9        0.000000       -0.515520         1
        10         9        16        15     9      180.000000        0.695785         2
        10         9        16        15     9        0.000000        0.374724         3
        10         9        16        15     9      180.000000       -0.306280         4
        10         9        16        45     9        0.000000       -0.040238         1
        10         9        16        45     9      180.000000       -0.063463         2
        10         9        16        45     9        0.000000        0.343610         3
        10         9        16        45     9      180.000000        0.107466         4
        10         9        16        46     9        0.000000       -0.040238         1
        10         9        16        46     9      180.000000       -0.063463         2
        10         9        16        46     9        0.000000        0.343610         3
        10         9        16        46     9      180.000000        0.107466         4
        10        11        12        13     9        0.000000       -0.297210         1
        10        11        12        13     9      180.000000       -1.335632         2
        10        11        12        13     9        0.000000        0.126295         3
        10        11        12        13     9      180.000000        0.110253         4
        10        11        12        40     9        0.000000       -0.078603         1
        10        11        12        40     9      180.000000        0.045854         2
        10        11        12        40     9        0.000000        0.184760         3
        10        11        12        40     9      180.000000        0.055178         4
        10        11        12        41     9        0.000000       -0.078603         1
        10        11        12        41     9      180.000000        0.045854         2
        10        11        12        41     9        0.000000        0.184760         3
        10        11        12        41     9      180.000000        0.055178         4
        10        11        15        14     9        0.000000       -1.435917         1
        10        11        15        14     9      180.000000       -0.928215         2
        10        11        15        14     9        0.000000        0.549102         3
        10        11        15        14     9      180.000000       -0.737631         4
        10        11        15        16     9        0.000000       -1.723216         1
        10        11        15        16     9      180.000000       -1.104300         2
        10        11        15        16     9        0.000000        0.465854         3
        10        11        15        16     9      180.000000       -0.749204         4
        10        11        15        44     9        0.000000        0.196400         1
        10        11        15        44     9      180.000000        0.124290         2
        10        11        15        44     9        0.000000        0.308843         3
        10        11        15        44     9      180.000000        0.285300         4
        11        10         9        16     9        0.000000       -0.515520         1
        11        10         9        16     9      180.000000        0.695787         2
        11        10         9        16     9        0.000000        0.374724         3
        11        10         9        16     9      180.000000       -0.306281         4
        11        12        13        14     9        0.000000        0.183028         1
        11        12        13        14     9      180.000000       -0.456750         2
        11        12        13        14     9        0.000000        0.261644         3
        11        12        13        14     9      180.000000        0.010580         4
        11        12        13        17     9        0.000000       -0.799490         1
        11        12        13        17     9      180.000000       -0.730859         2
        11        12        13        17     9        0.000000        0.070131         3
        11        12        13        17     9      180.000000        0.133510         4
        11        15        14        13     9        0.000000       -2.888113         1
        11        15        14        13     9      180.000000        8.127689         2
        11        15        14        13     9        0.000000       -0.735434         3
        11        15        14        13     9      180.000000       -1.265512         4
        11        15        14        42     9        0.000000        0.017300         1
        11        15        14        42     9      180.000000       -0.173231         2
        11        15        14        42     9        0.000000       -0.307491         3
        11        15        14        42     9      180.000000        0.223150         4
        11        15        14        43     9        0.000000        0.017300         1
        11        15        14        43     9      180.000000       -0.173231         2
        11        15        14        43     9        0.000000       -0.307491         3
        11        15        14        43     9      180.000000        0.223150         4
        11        15        16        45     9        0.000000        0.005453         1
        11        15        16        45     9      180.000000       -0.187956         2
        11        15        16        45     9        0.000000       -0.253493         3
        11        15        16        45     9      180.000000        0.289446         4
        11        15        16        46     9        0.000000        0.005453         1
        11        15        16        46     9      180.000000       -0.187956         2
        11        15        16        46     9        0.000000       -0.253493         3
        11        15        16        46     9      180.000000        0.289446         4
        12        11        10        37     9        0.000000       -0.167032         1
        12        11        10        37     9      180.000000        0.074166         2
        12        11        10        37     9        0.000000        0.218732         3
        12        11        10        37     9      180.000000        0.047376         4
        12        11        10        38     9        0.000000       -0.167032         1
        12        11        10        38     9      180.000000        0.074166         2
        12        11        10        38     9        0.000000        0.218732         3
        12        11        10        38     9      180.000000        0.047376         4
        12        11        15        14     9        0.000000       -0.935776         1
        12        11        15        14     9      180.000000       -0.874704         2
        12        11        15        14     9        0.000000        0.551308         3
        12        11        15        14     9      180.000000       -0.698992         4
        12        11        15        16     9        0.000000       -1.435918         1
        12        11        15        16     9      180.000000       -0.928217         2
        12        11        15        16     9        0.000000        0.549102         3
        12        11        15        16     9      180.000000       -0.737632         4
        12        11        15        44     9        0.000000       -0.051794         1
        12        11        15        44     9      180.000000        0.121979         2
        12        11        15        44     9        0.000000        0.375960         3
        12        11        15        44     9      180.000000        0.220606         4
        12        13        14        15     9        0.000000        0.183027         1
        12        13        14        15     9      180.000000       -0.456750         2
        12        13        14        15     9        0.000000        0.261644         3
        12        13        14        15     9      180.000000        0.010580         4
        12        13        14        42     9        0.000000       -0.021552         1
        12        13        14        42     9      180.000000        0.022271         2
        12        13        14        42     9        0.000000        0.161782         3
        12        13        14        42     9      180.000000        0.062276         4
        12        13        14        43     9        0.000000       -0.021552         1
        12        13        14        43     9      180.000000        0.022271         2
        12        13        14        43     9        0.000000        0.161782         3
        12        13        14        43     9      180.000000        0.062276         4
        12        13        17        18     9        0.000000        0.183443         1
        12        13        17        18     9      180.000000       14.157603         2
        12        13        17        18     9        0.000000       -1.496302         3
        12        13        17        18     9      180.000000       -0.593806         4
        12        13        17        19     9        0.000000        2.366191         1
        12        13        17        19     9      180.000000       11.057072         2
        12        13        17        19     9        0.000000        0.727364         3
        12        13        17        19     9      180.000000       -0.809476         4
        13        12        11        15     9        0.000000       -2.888113         1
        13        12        11        15     9      180.000000        8.127685         2
        13        12        11        15     9        0.000000       -0.735434         3
        13        12        11        15     9      180.000000       -1.265511         4
        13        12        11        39     9        0.000000        1.091098         1
        13        12        11        39     9      180.000000       -0.329663         2
        13        12        11        39     9        0.000000       -0.083959         3
        13        12        11        39     9      180.000000        0.241602         4
        13        14        15        16     9        0.000000       -0.297210         1
        13        14        15        16     9      180.000000       -1.335632         2
        13        14        15        16     9        0.000000        0.126295         3
        13        14        15        16     9      180.000000        0.110253         4
        13        14        15        44     9        0.000000        1.091099         1
        13        14        15        44     9      180.000000       -0.329662         2
        13        14        15        44     9        0.000000       -0.083959         3
        13        14        15        44     9      180.000000        0.241602         4
        13        17        19        20     9        0.000000        0.343443         1
        13        17        19        20     9      180.000000        2.974055         2
        13        17        19        20     9        0.000000        0.068153         3
        13        17        19        20     9      180.000000        0.178203         4
        13        17        19        24     9        0.000000        1.147833         1
        13        17        19        24     9      180.000000        3.404930         2
        13        17        19        24     9        0.000000       -0.891730         3
        13        17        19        24     9      180.000000        0.317780         4
        14        13        12        40     9        0.000000       -0.021553         1
        14        13        12        40     9      180.000000        0.022272         2
        14        13        12        40     9        0.000000        0.161782         3
        14        13        12        40     9      180.000000        0.062277         4
        14        13        12        41     9        0.000000       -0.021553         1
        14        13        12        41     9      180.000000        0.022272         2
        14        13        12        41     9        0.000000        0.161782         3
        14        13        12        41     9      180.000000        0.062277         4
        14        13        17        18     9        0.000000        0.183443         1
        14        13        17        18     9      180.000000       14.157604         2
        14        13        17        18     9        0.000000       -1.496302         3
        14        13        17        18     9      180.000000       -0.593806         4
        14        13        17        19     9        0.000000        2.366189         1
        14        13        17        19     9      180.000000       11.057071         2
        14        13        17        19     9        0.000000        0.727363         3
        14        13        17        19     9      180.000000       -0.809476         4
        14        15        11        39     9        0.000000       -0.051796         1
        14        15        11        39     9      180.000000        0.121979         2
        14        15        11        39     9        0.000000        0.375960         3
        14        15        11        39     9      180.000000        0.220606         4
        14        15        16        45     9        0.000000       -0.167031         1
        14        15        16        45     9      180.000000        0.074167         2
        14        15        16        45     9        0.000000        0.218732         3
        14        15        16        45     9      180.000000        0.047376         4
        14        15        16        46     9        0.000000       -0.167031         1
        14        15        16        46     9      180.000000        0.074167         2
        14        15        16        46     9        0.000000        0.218732         3
        14        15        16        46     9      180.000000        0.047376         4
        15        11        10        37     9        0.000000        0.005454         1
        15        11        10        37     9      180.000000       -0.187956         2
        15        11        10        37     9        0.000000       -0.253494         3
        15        11        10        37     9      180.000000        0.289446         4
        15        11        10        38     9        0.000000        0.005454         1
        15        11        10        38     9      180.000000       -0.187956         2
        15        11        10        38     9        0.000000       -0.253494         3
        15        11        10        38     9      180.000000        0.289446         4
        15        11        12        40     9        0.000000        0.017300         1
        15        11        12        40     9      180.000000       -0.173231         2
        15        11        12        40     9        0.000000       -0.307491         3
        15        11        12        40     9      180.000000        0.223150         4
        15        11        12        41     9        0.000000        0.017300         1
        15        11        12        41     9      180.000000       -0.173231         2
        15        11        12        41     9        0.000000       -0.307491         3
        15        11        12        41     9      180.000000        0.223150         4
        15        14        13        17     9        0.000000       -0.799490         1
        15        14        13        17     9      180.000000       -0.730859         2
        15        14        13        17     9        0.000000        0.070131         3
        15        14        13        17     9      180.000000        0.133509         4
        16         9        10        37     9        0.000000       -0.040238         1
        16         9        10        37     9      180.000000       -0.063462         2
        16         9        10        37     9        0.000000        0.343610         3
        16         9        10        37     9      180.000000        0.107466         4
        16         9        10        38     9        0.000000       -0.040238         1
        16         9        10        38     9      180.000000       -0.063462         2
        16         9        10        38     9        0.000000        0.343610         3
        16         9        10        38     9      180.000000        0.107466         4
        16        15        11        39     9        0.000000        0.196399         1
        16        15        11        39     9      180.000000        0.124289         2
        16        15        11        39     9        0.000000        0.308842         3
        16        15        11        39     9      180.000000        0.285300         4
        16        15        14        42     9        0.000000       -0.078604         1
        16        15        14        42     9      180.000000        0.045855         2
        16        15        14        42     9        0.000000        0.184760         3
        16        15        14        42     9      180.000000        0.055178         4
        16        15        14        43     9        0.000000       -0.078604         1
        16        15        14        43     9      180.000000        0.045855         2
        16        15        14        43     9        0.000000        0.184760         3
        16        15        14        43     9      180.000000        0.055178         4
        17        13        12        40     9        0.000000        0.033461         1
        17        13        12        40     9      180.000000        0.063348         2
        17        13        12        40     9        0.000000       -0.018908         3
        17        13        12        40     9      180.000000       -0.006177         4
        17        13        12        41     9        0.000000        0.033461         1
        17        13        12        41     9      180.000000        0.063348         2
        17        13        12        41     9        0.000000       -0.018908         3
        17        13        12        41     9      180.000000       -0.006177         4
        17        13        14        42     9        0.000000        0.033462         1
        17        13        14        42     9      180.000000        0.063348         2
        17        13        14        42     9        0.000000       -0.018908         3
        17        13        14        42     9      180.000000       -0.006178         4
        17        13        14        43     9        0.000000        0.033462         1
        17        13        14        43     9      180.000000        0.063348         2
        17        13        14        43     9        0.000000       -0.018908         3
        17        13        14        43     9      180.000000       -0.006178         4
        17        19        20        21     9        0.000000        0.953982         1
        17        19        20        21     9      180.000000       20.459803         2
        17        19        20        21     9        0.000000        0.547002         3
        17        19        20        21     9      180.000000       -0.778406         4
        17        19        24        23     9        0.000000        0.090505         1
        17        19        24        23     9      180.000000       10.669838         2
        17        19        24        23     9        0.000000       -0.148116         3
        17        19        24        23     9      180.000000       -0.276174         4
        17        19        24        25     9        0.000000        0.030599         1
        17        19        24        25     9      180.000000       14.574770         2
        17        19        24        25     9        0.000000        0.458901         3
        17        19        24        25     9      180.000000       -0.857257         4
        18        17        19        20     9        0.000000       -6.304401         1
        18        17        19        20     9      180.000000        0.844550         2
        18        17        19        20     9        0.000000        0.405429         3
        18        17        19        20     9      180.000000       -0.020513         4
        18        17        19        24     9        0.000000       -5.331206         1
        18        17        19        24     9      180.000000        0.966807         2
        18        17        19        24     9        0.000000       -0.374432         3
        18        17        19        24     9      180.000000        0.133726         4
        19        20        21        22     9        0.000000       -0.112088         1
        19        20        21        22     9      180.000000       22.393517         2
        19        20        21        22     9        0.000000       -1.005430         3
        19        20        21        22     9      180.000000       -0.288448         4
        19        20        21        47     9        0.000000        0.976149         1
        19        20        21        47     9      180.000000       19.238451         2
        19        20        21        47     9        0.000000        0.109407         3
        19        20        21        47     9      180.000000       -0.260229         4
        19        24        23        22     9        0.000000       -0.208314         1
        19        24        23        22     9      180.000000       16.642428         2
        19        24        23        22     9        0.000000       -1.624134         3
        19        24        23        22     9      180.000000       -0.208532         4
        19        24        23        49     9        0.000000       -0.017166         1
        19        24        23        49     9      180.000000       13.367257         2
        19        24        23        49     9        0.000000       -0.598811         3
        19        24        23        49     9      180.000000        0.198136         4
        19        24        25        26     9        0.000000       -0.701892         1
        19        24        25        26     9      180.000000        3.904118         2
        19        24        25        26     9        0.000000       -0.032609         3
        19        24        25        26     9      180.000000       -0.046569         4
        19        24        25        29     9        0.000000       -0.701892         1
        19        24        25        29     9      180.000000        3.904118         2
        19        24        25        29     9        0.000000       -0.032609         3
        19        24        25        29     9      180.000000       -0.046569         4
        20        19        24        23     9        0.000000        0.193819         1
        20        19        24        23     9      180.000000       12.492095         2
        20        19        24        23     9        0.000000       -0.550041         3
        20        19        24        23     9      180.000000       -0.053937         4
        20        19        24        25     9        0.000000       -0.251748         1
        20        19        24        25     9      180.000000       13.626221         2
        20        19        24        25     9        0.000000        0.140432         3
        20        19        24        25     9      180.000000       -0.333203         4
        20        21        22        23     9        0.000000       -0.091428         1
        20        21        22        23     9      180.000000       17.597871         2
        20        21        22        23     9        0.000000       -1.126137         3
        20        21        22        23     9      180.000000       -0.330318         4
        20        21        22        48     9        0.000000        0.012015         1
        20        21        22        48     9      180.000000       13.604052         2
        20        21        22        48     9        0.000000       -0.361375         3
        20        21        22        48     9      180.000000       -0.036508         4
        21        20        19        24     9        0.000000       -0.446994         1
        21        20        19        24     9      180.000000       22.774246         2
        21        20        19        24     9        0.000000       -0.641571         3
        21        20        19        24     9      180.000000       -0.082317         4
        21        22        23        24     9        0.000000       -0.068177         1
        21        22        23        24     9      180.000000       18.302560         2
        21        22        23        24     9        0.000000       -1.856356         3
        21        22        23        24     9      180.000000       -0.414398         4
        21        22        23        49     9        0.000000        0.095870         1
        21        22        23        49     9      180.000000       14.505030         2
        21        22        23        49     9        0.000000       -0.664584         3
        21        22        23        49     9      180.000000        0.113861         4
        22        23        24        25     9        0.000000        0.312689         1
        22        23        24        25     9      180.000000       18.625756         2
        22        23        24        25     9        0.000000        0.126336         3
        22        23        24        25     9      180.000000       -0.370737         4
        23        22        21        47     9        0.000000        0.175219         1
        23        22        21        47     9      180.000000       14.015167         2
        23        22        21        47     9        0.000000       -0.613308         3
        23        22        21        47     9      180.000000        0.005207         4
        23        24        25        26     9        0.000000        0.832179         1
        23        24        25        26     9      180.000000        3.361626         2
        23        24        25        26     9        0.000000       -0.375742         3
        23        24        25        26     9      180.000000        0.025211         4
        23        24        25        29     9        0.000000        0.832180         1
        23        24        25        29     9      180.000000        3.361627         2
        23        24        25        29     9        0.000000       -0.375742         3
        23        24        25        29     9      180.000000        0.025211         4
        24        23        22        48     9        0.000000        0.037181         1
        24        23        22        48     9      180.000000       14.937621         2
        24        23        22        48     9        0.000000       -0.745252         3
        24        23        22        48     9      180.000000        0.039601         4
        24        25        26        27     9        0.000000        1.098251         1
        24        25        26        27     9      180.000000       14.297023         2
        24        25        26        27     9        0.000000        0.423117         3
        24        25        26        27     9      180.000000       -0.127781         4
        24        25        29        28     9        0.000000        1.098250         1
        24        25        29        28     9      180.000000       14.297023         2
        24        25        29        28     9        0.000000        0.423117         3
        24        25        29        28     9      180.000000       -0.127782         4
        25        24        23        49     9        0.000000        0.140827         1
        25        24        23        49     9      180.000000       14.545935         2
        25        24        23        49     9        0.000000       -0.026208         3
        25        24        23        49     9      180.000000        0.212280         4
        25        26        27        28     9        0.000000       -0.071917         1
        25        26        27        28     9      180.000000       41.329820         2
        25        26        27        28     9        0.000000       -5.888492         3
        25        26        27        28     9      180.000000        0.003159         4
        25        26        27        50     9        0.000000        1.153290         1
        25        26        27        50     9      180.000000       26.435664         2
        25        26        27        50     9        0.000000       -0.113348         3
        25        26        27        50     9      180.000000       -0.148816         4
        25        29        28        27     9        0.000000       -0.071915         1
        25        29        28        27     9      180.000000       41.329820         2
        25        29        28        27     9        0.000000       -5.888493         3
        25        29        28        27     9      180.000000        0.003157         4
        25        29        28        51     9        0.000000        1.153289         1
        25        29        28        51     9      180.000000       26.435660         2
        25        29        28        51     9        0.000000       -0.113348         3
        25        29        28        51     9      180.000000       -0.148816         4
        26        25        29        28     9        0.000000       -0.269684         1
        26        25        29        28     9      180.000000       33.446271         2
        26        25        29        28     9        0.000000       -5.485018         3
        26        25        29        28     9      180.000000        0.194930         4
        26        27        28        29     9        0.000000       -0.617714         1
        26        27        28        29     9      180.000000       33.867382         2
        26        27        28        29     9        0.000000       -7.991217         3
        26        27        28        29     9      180.000000       -0.073020         4
        26        27        28        51     9        0.000000        0.396588         1
        26        27        28        51     9      180.000000       15.752955         2
        26        27        28        51     9        0.000000       -0.619762         3
        26        27        28        51     9      180.000000       -0.474255         4
        27        26        25        29     9        0.000000       -0.269684         1
        27        26        25        29     9      180.000000       33.446271         2
        27        26        25        29     9        0.000000       -5.485019         3
        27        26        25        29     9      180.000000        0.194930         4
        29        28        27        50     9        0.000000        0.396588         1
        29        28        27        50     9      180.000000       15.752955         2
        29        28        27        50     9        0.000000       -0.619762         3
        29        28        27        50     9      180.000000       -0.474255         4
        37        10        11        39     9        0.000000       -0.140741         1
        37        10        11        39     9      180.000000       -0.009947         2
        37        10        11        39     9        0.000000        0.295617         3
        37        10        11        39     9      180.000000       -0.018107         4
        38        10        11        39     9        0.000000       -0.140741         1
        38        10        11        39     9      180.000000       -0.009947         2
        38        10        11        39     9        0.000000        0.295617         3
        38        10        11        39     9      180.000000       -0.018107         4
        39        11        12        40     9        0.000000       -0.082968         1
        39        11        12        40     9      180.000000        0.025523         2
        39        11        12        40     9        0.000000        0.271411         3
        39        11        12        40     9      180.000000       -0.026067         4
        39        11        12        41     9        0.000000       -0.082968         1
        39        11        12        41     9      180.000000        0.025523         2
        39        11        12        41     9        0.000000        0.271411         3
        39        11        12        41     9      180.000000       -0.026067         4
        39        11        15        44     9        0.000000        0.223574         1
        39        11        15        44     9      180.000000       -0.077956         2
        39        11        15        44     9        0.000000        0.353694         3
        39        11        15        44     9      180.000000       -0.057173         4
        42        14        15        44     9        0.000000       -0.082968         1
        42        14        15        44     9      180.000000        0.025524         2
        42        14        15        44     9        0.000000        0.271411         3
        42        14        15        44     9      180.000000       -0.026067         4
        43        14        15        44     9        0.000000       -0.082968         1
        43        14        15        44     9      180.000000        0.025524         2
        43        14        15        44     9        0.000000        0.271411         3
        43        14        15        44     9      180.000000       -0.026067         4
        44        15        16        45     9        0.000000       -0.140741         1
        44        15        16        45     9      180.000000       -0.009947         2
        44        15        16        45     9        0.000000        0.295617         3
        44        15        16        45     9      180.000000       -0.018107         4
        44        15        16        46     9        0.000000       -0.140741         1
        44        15        16        46     9      180.000000       -0.009947         2
        44        15        16        46     9        0.000000        0.295617         3
        44        15        16        46     9      180.000000       -0.018107         4
        47        21        22        48     9        0.000000       -0.144530         1
        47        21        22        48     9      180.000000       10.991321         2
        47        21        22        48     9        0.000000       -0.726719         3
        47        21        22        48     9      180.000000        0.248678         4
        48        22        23        49     9        0.000000       -0.281086         1
        48        22        23        49     9      180.000000       12.264624         2
        48        22        23        49     9        0.000000       -0.825980         3
        48        22        23        49     9      180.000000        0.326851         4
        50        27        28        51     9        0.000000       -0.304766         1
        50        27        28        51     9      180.000000        8.321253         2
        50        27        28        51     9        0.000000       -0.141498         3
        50        27        28        51     9      180.000000        0.273252         4

[ dihedrals ] ; impropers
;       ai        aj        ak        al funct           phase               k        pn
         2         1         3         8     4      180.000000       21.793920         2
         2         3         8         1     4      180.000000       21.793920         2
         2         8         1         3     4      180.000000       21.793920         2
         4         3         5         6     4      180.000000       21.793920         2
         4         5         6         3     4      180.000000       21.793920         2
         4         6         3         5     4      180.000000       21.793920         2
         7         6         8         9     4      180.000000       27.893333         2
         7         8         9         6     4      180.000000       27.893333         2
         7         9         6         8     4      180.000000       27.893333         2
        17        13        18        19     4      180.000000        2.038720         2
        17        18        19        13     4      180.000000        2.038720         2
        17        19        13        18     4      180.000000        2.038720         2
        21        20        22        47     4      180.000000        6.748342         2
        21        22        47        20     4      180.000000        6.748342         2
        21        47        20        22     4      180.000000        6.748342         2
        23        22        24        49     4      180.000000        0.099994         2
        23        24        49        22     4      180.000000        0.099994         2
        23        49        22        24     4      180.000000        0.099994         2

[ pairs ]
;       ai        aj funct
         1         4     1
         1         7     1
         1        33     1
         2         5     1
         2         6     1
         2         9     1
         3         7     1
         3        30     1
         3        31     1
         3        32     1
         3        34     1
         3        35     1
         3        36     1
         4         8     1
         4         9     1
         5         7     1
         5        33     1
         6        10     1
         6        16     1
         6        33     1
         6        34     1
         6        35     1
         6        36     1
         7        11     1
         7        15     1
         7        37     1
         7        38     1
         7        45     1
         7        46     1
         8        10     1
         8        16     1
         8        30     1
         8        31     1
         8        32     1
         8        33     1
         9        12     1
         9        14     1
         9        39     1
         9        44     1
        10        13     1
        10        14     1
        10        40     1
        10        41     1
        10        44     1
        10        45     1
        10        46     1
        11        17     1
        11        42     1
        11        43     1
        11        45     1
        11        46     1
        12        16     1
        12        18     1
        12        19     1
        12        37     1
        12        38     1
        12        42     1
        12        43     1
        12        44     1
        13        16     1
        13        20     1
        13        24     1
        13        39     1
        13        44     1
        14        18     1
        14        19     1
        14        39     1
        14        40     1
        14        41     1
        14        45     1
        14        46     1
        15        17     1
        15        37     1
        15        38     1
        15        40     1
        15        41     1
        16        37     1
        16        38     1
        16        39     1
        16        42     1
        16        43     1
        17        21     1
        17        23     1
        17        25     1
        17        40     1
        17        41     1
        17        42     1
        17        43     1
        18        20     1
        18        24     1
        19        22     1
        19        26     1
        19        29     1
        19        47     1
        19        49     1
        20        23     1
        20        25     1
        20        48     1
        21        24     1
        21        49     1
        22        25     1
        23        26     1
        23        29     1
        23        47     1
        24        27     1
        24        28     1
        24        48     1
        25        49     1
        25        50     1
        25        51     1
        26        51     1
        29        50     1
        37        39     1
        38        39     1
        39        40     1
        39        41     1
        39        44     1
        42        44     1
        43        44     1
        44        45     1
        44        46     1
        47        48     1
        48        49     1
        50        51     1
