; ITP file created by ByteFF-ML, 2025-12-06 04:44:57.339191

[ atomtypes ]
;name           bonded.type        at.num        mass        charge   ptype           sigma         epsilon
 c0bf                                   6      0.0000       0.00000       A     3.39823e-01     4.52372e-01
 c1bf                                   6      0.0000       0.00000       A     3.31212e-01     4.15506e-01
 n2bf                                   7      0.0000       0.00000       A     3.38221e-01     3.95283e-01
 c3bf                                   6      0.0000       0.00000       A     3.31533e-01     4.12083e-01
 n4bf                                   7      0.0000       0.00000       A     3.38221e-01     3.95283e-01
 c5bf                                   6      0.0000       0.00000       A     3.31212e-01     4.15506e-01
 c6bf                                   6      0.0000       0.00000       A     3.39823e-01     4.52372e-01
 c7bf                                   6      0.0000       0.00000       A     3.31449e-01     4.14533e-01
 o8bf                                   8      0.0000       0.00000       A     3.24332e-01     3.89320e-01
 n9bf                                   7      0.0000       0.00000       A     3.19428e-01     8.94136e-01
 c10bf                                  6      0.0000       0.00000       A     3.39585e-01     4.49212e-01
 c11bf                                  6      0.0000       0.00000       A     3.39712e-01     4.49806e-01
 c12bf                                  6      0.0000       0.00000       A     3.39727e-01     4.50797e-01
 n13bf                                  7      0.0000       0.00000       A     3.18172e-01     6.81534e-01
 c14bf                                  6      0.0000       0.00000       A     3.39727e-01     4.50797e-01
 c15bf                                  6      0.0000       0.00000       A     3.39712e-01     4.49806e-01
 c16bf                                  6      0.0000       0.00000       A     3.39585e-01     4.49212e-01
 c17bf                                  6      0.0000       0.00000       A     3.31327e-01     4.13248e-01
 o18bf                                  8      0.0000       0.00000       A     3.04514e-01     6.13792e-01
 c19bf                                  6      0.0000       0.00000       A     3.31273e-01     4.13283e-01
 c20bf                                  6      0.0000       0.00000       A     3.31521e-01     4.13918e-01
 f21bf                                  9      0.0000       0.00000       A     3.03540e-01     3.48621e-01
 c22bf                                  6      0.0000       0.00000       A     3.31463e-01     4.12493e-01
 c23bf                                  6      0.0000       0.00000       A     3.31469e-01     4.12700e-01
 c24bf                                  6      0.0000       0.00000       A     3.31436e-01     4.11484e-01
 c25bf                                  6      0.0000       0.00000       A     3.31571e-01     4.13495e-01
 n26bf                                  7      0.0000       0.00000       A     3.20910e-01     8.46558e-01
 n27bf                                  7      0.0000       0.00000       A     3.38251e-01     3.94826e-01
 c28bf                                  6      0.0000       0.00000       A     3.31301e-01     4.12308e-01
 c29bf                                  6      0.0000       0.00000       A     3.31301e-01     4.12308e-01
 n30bf                                  7      0.0000       0.00000       A     3.38251e-01     3.94826e-01
 h31bf                                  1      0.0000       0.00000       A     2.59933e-01     8.72731e-02
 h32bf                                  1      0.0000       0.00000       A     2.59933e-01     8.72731e-02
 h33bf                                  1      0.0000       0.00000       A     2.59933e-01     8.72731e-02
 h34bf                                  1      0.0000       0.00000       A     2.59933e-01     8.72731e-02
 h35bf                                  1      0.0000       0.00000       A     2.59933e-01     8.72731e-02
 h36bf                                  1      0.0000       0.00000       A     2.59933e-01     8.72731e-02
 h37bf                                  1      0.0000       0.00000       A     5.34370e-02     2.01967e-02
 h38bf                                  1      0.0000       0.00000       A     2.42127e-01     8.72842e-02
 h39bf                                  1      0.0000       0.00000       A     2.42127e-01     8.72842e-02
 h40bf                                  1      0.0000       0.00000       A     2.60149e-01     8.67575e-02
 h41bf                                  1      0.0000       0.00000       A     2.42171e-01     8.72571e-02
 h42bf                                  1      0.0000       0.00000       A     2.42171e-01     8.72571e-02
 h43bf                                  1      0.0000       0.00000       A     2.42171e-01     8.72571e-02
 h44bf                                  1      0.0000       0.00000       A     2.42171e-01     8.72571e-02
 h45bf                                  1      0.0000       0.00000       A     2.60149e-01     8.67575e-02
 h46bf                                  1      0.0000       0.00000       A     2.42127e-01     8.72842e-02
 h47bf                                  1      0.0000       0.00000       A     2.42127e-01     8.72842e-02
 h48bf                                  1      0.0000       0.00000       A     2.62509e-01     6.72536e-02
 h49bf                                  1      0.0000       0.00000       A     2.62495e-01     6.71945e-02
 h50bf                                  1      0.0000       0.00000       A     2.62555e-01     6.79734e-02
 h51bf                                  1      0.0000       0.00000       A     2.53897e-01     6.74946e-02
 h52bf                                  1      0.0000       0.00000       A     2.53896e-01     6.74946e-02

[ moleculetype ]
;name             nrexcl
 set_1_24              3

[ atoms ]
;       nr            type      resi   res      atom      cgnr      charge          mass ; qtot
         1            c0bf         1   UNL        c0         1    -0.14545       12.0110 ; qtot   -0.145
         2            c1bf         1   UNL        c1         2     0.12853       12.0110 ; qtot   -0.017
         3            n2bf         1   UNL        n2         3    -0.23245       14.0070 ; qtot   -0.249
         4            c3bf         1   UNL        c3         4     0.36206       12.0110 ; qtot    0.113
         5            n4bf         1   UNL        n4         5    -0.23245       14.0070 ; qtot   -0.120
         6            c5bf         1   UNL        c5         6     0.12853       12.0110 ; qtot    0.009
         7            c6bf         1   UNL        c6         7    -0.14545       12.0110 ; qtot   -0.137
         8            c7bf         1   UNL        c7         8    -0.03300       12.0110 ; qtot   -0.170
         9            o8bf         1   UNL        o8         9    -0.53243       15.9990 ; qtot   -0.702
        10            n9bf         1   UNL        n9        10    -0.77924       14.0070 ; qtot   -1.481
        11           c10bf         1   UNL       c10        11     0.23669       12.0110 ; qtot   -1.245
        12           c11bf         1   UNL       c11        12    -0.10223       12.0110 ; qtot   -1.347
        13           c12bf         1   UNL       c12        13     0.11230       12.0110 ; qtot   -1.235
        14           n13bf         1   UNL       n13        14    -0.41240       14.0070 ; qtot   -1.647
        15           c14bf         1   UNL       c14        15     0.11230       12.0110 ; qtot   -1.535
        16           c15bf         1   UNL       c15        16    -0.10223       12.0110 ; qtot   -1.637
        17           c16bf         1   UNL       c16        17     0.23669       12.0110 ; qtot   -1.400
        18           c17bf         1   UNL       c17        18     0.64532       12.0110 ; qtot   -0.755
        19           o18bf         1   UNL       o18        19    -0.58742       15.9990 ; qtot   -1.342
        20           c19bf         1   UNL       c19        20    -0.15190       12.0110 ; qtot   -1.494
        21           c20bf         1   UNL       c20        21     0.19456       12.0110 ; qtot   -1.300
        22           f21bf         1   UNL       f21        22    -0.16798       18.9980 ; qtot   -1.468
        23           c22bf         1   UNL       c22        23    -0.14840       12.0110 ; qtot   -1.616
        24           c23bf         1   UNL       c23        24    -0.06562       12.0110 ; qtot   -1.682
        25           c24bf         1   UNL       c24        25    -0.10373       12.0110 ; qtot   -1.785
        26           c25bf         1   UNL       c25        26     0.06898       12.0110 ; qtot   -1.716
        27           n26bf         1   UNL       n26        27     0.31512       14.0070 ; qtot   -1.401
        28           n27bf         1   UNL       n27        28    -0.47882       14.0070 ; qtot   -1.880
        29           c28bf         1   UNL       c28        29     0.20629       12.0110 ; qtot   -1.674
        30           c29bf         1   UNL       c29        30     0.20629       12.0110 ; qtot   -1.468
        31           n30bf         1   UNL       n30        31    -0.47882       14.0070 ; qtot   -1.946
        32           h31bf         1   UNL       h31        32     0.05639        1.0080 ; qtot   -1.890
        33           h32bf         1   UNL       h32        33     0.05639        1.0080 ; qtot   -1.834
        34           h33bf         1   UNL       h33        34     0.05639        1.0080 ; qtot   -1.777
        35           h34bf         1   UNL       h34        35     0.05639        1.0080 ; qtot   -1.721
        36           h35bf         1   UNL       h35        36     0.05639        1.0080 ; qtot   -1.664
        37           h36bf         1   UNL       h36        37     0.05639        1.0080 ; qtot   -1.608
        38           h37bf         1   UNL       h37        38     0.46799        1.0080 ; qtot   -1.140
        39           h38bf         1   UNL       h38        39     0.05798        1.0080 ; qtot   -1.082
        40           h39bf         1   UNL       h39        40     0.05798        1.0080 ; qtot   -1.024
        41           h40bf         1   UNL       h40        41     0.07208        1.0080 ; qtot   -0.952
        42           h41bf         1   UNL       h41        42     0.06015        1.0080 ; qtot   -0.892
        43           h42bf         1   UNL       h42        43     0.06015        1.0080 ; qtot   -0.832
        44           h43bf         1   UNL       h43        44     0.06015        1.0080 ; qtot   -0.772
        45           h44bf         1   UNL       h44        45     0.06015        1.0080 ; qtot   -0.711
        46           h45bf         1   UNL       h45        46     0.07208        1.0080 ; qtot   -0.639
        47           h46bf         1   UNL       h46        47     0.05798        1.0080 ; qtot   -0.581
        48           h47bf         1   UNL       h47        48     0.05798        1.0080 ; qtot   -0.523
        49           h48bf         1   UNL       h48        49     0.14181        1.0080 ; qtot   -0.382
        50           h49bf         1   UNL       h49        50     0.12690        1.0080 ; qtot   -0.255
        51           h50bf         1   UNL       h50        51     0.14214        1.0080 ; qtot   -0.112
        52           h51bf         1   UNL       h51        52     0.05626        1.0080 ; qtot   -0.056
        53           h52bf         1   UNL       h52        53     0.05624        1.0080 ; qtot    0.000

[ bonds ]
;       ai        aj funct               r               k
         1         2     1        0.150573   206689.829834
         1        32     1        0.109369   304536.107129
         1        33     1        0.109369   304536.107129
         1        34     1        0.109369   304536.107129
         2         3     1        0.133680   337610.954004
         2         8     1        0.140218   270006.666504
         3         4     1        0.135019   253097.090771
         4         5     1        0.135019   253097.090771
         4        10     1        0.136450   316560.357227
         5         6     1        0.133680   337610.954004
         6         7     1        0.150573   206689.829834
         6         8     1        0.140218   270006.666504
         7        35     1        0.109369   304536.107129
         7        36     1        0.109369   304536.107129
         7        37     1        0.109369   304536.107129
         8         9     1        0.137895   275356.512158
         9        38     1        0.097079   466911.723047
        10        11     1        0.146885   181060.582568
        10        17     1        0.146885   181060.582568
        11        12     1        0.153334   175036.020947
        11        39     1        0.109481   294444.786377
        11        40     1        0.109481   294444.786377
        12        13     1        0.153427   175080.787500
        12        16     1        0.154277   149842.130322
        12        41     1        0.109325   303915.887354
        13        14     1        0.147261   177221.078174
        13        42     1        0.109385   298254.744336
        13        43     1        0.109385   298254.744336
        14        15     1        0.147261   177221.103711
        14        18     1        0.135519   319235.369434
        15        16     1        0.153427   175080.787500
        15        44     1        0.109385   298254.744336
        15        45     1        0.109385   298254.744336
        16        17     1        0.153334   175036.020947
        16        46     1        0.109325   303915.912891
        17        47     1        0.109481   294444.811914
        17        48     1        0.109481   294444.811914
        18        19     1        0.123360   594256.707031
        18        20     1        0.151390   177572.570947
        20        21     1        0.139458   293723.388574
        20        26     1        0.140413   276391.377979
        21        22     1        0.135748   284734.964502
        21        23     1        0.139016   308702.537598
        23        24     1        0.139696   310400.653223
        23        49     1        0.108455   325846.007715
        24        25     1        0.139473   319062.687500
        24        50     1        0.108533   323324.933203
        25        26     1        0.139859   295100.783643
        25        51     1        0.108380   327020.204004
        26        27     1        0.142246   231473.134814
        27        28     1        0.134040   244717.267090
        27        31     1        0.134040   244717.267090
        28        29     1        0.133423   350873.498535
        29        30     1        0.141148   279463.543311
        29        52     1        0.108128   339085.415625
        30        31     1        0.133423   350873.498535
        30        53     1        0.108128   339085.415625

[ angles ]
;       ai        aj        ak funct           theta             cth
         1         2         3     1      118.010742      470.743605
         1         2         8     1      121.047607      415.127739
         2         1        32     1      110.576942      495.057646
         2         1        33     1      110.576942      495.057646
         2         1        34     1      110.576942      495.057646
         2         3         4     1      117.285789      950.713511
         2         8         6     1      118.004898      656.045658
         2         8         9     1      120.893875      544.155708
         3         2         8     1      120.993896      788.866463
         3         4         5     1      125.868530      582.966176
         3         4        10     1      116.864342      544.893028
         4         5         6     1      117.285789      950.713511
         4        10        11     1      122.617264      494.481848
         4        10        17     1      122.617264      494.481848
         5         4        10     1      116.864342      544.893028
         5         6         7     1      118.010742      470.743605
         5         6         8     1      120.993896      788.866463
         6         7        35     1      110.576942      495.057646
         6         7        36     1      110.576942      495.057646
         6         7        37     1      110.576942      495.057646
         6         8         9     1      120.893875      544.155708
         7         6         8     1      121.047607      415.127739
         8         9        38     1      108.724205      568.300661
        10        11        12     1      102.892921      518.507927
        10        11        39     1      110.665466      411.334999
        10        11        40     1      110.665466      411.334999
        10        17        16     1      102.892921      518.507927
        10        17        47     1      110.665466      411.334967
        10        17        48     1      110.665466      411.334967
        11        10        17     1      113.053551      339.130642
        11        12        13     1      115.967918      490.766039
        11        12        16     1      103.531944      553.400524
        11        12        41     1      110.411415      471.837231
        12        11        39     1      112.134521      456.886371
        12        11        40     1      112.134521      456.886371
        12        13        14     1      103.310646      531.297103
        12        13        42     1      112.216675      453.127085
        12        13        43     1      112.216675      453.127085
        12        16        15     1      103.849327      536.391532
        12        16        17     1      103.531944      553.400524
        12        16        46     1      111.068626      475.836438
        13        12        16     1      103.849327      536.391532
        13        12        41     1      110.495773      465.529182
        13        14        15     1      111.682663      397.236312
        13        14        18     1      123.751732      462.075033
        14        13        42     1      110.410095      437.420741
        14        13        43     1      110.410095      437.420741
        14        15        16     1      103.310646      531.297103
        14        15        44     1      110.410095      437.420741
        14        15        45     1      110.410095      437.420741
        14        18        19     1      123.358742      631.986382
        14        18        20     1      116.499901      442.236497
        15        14        18     1      123.751732      462.075033
        15        16        17     1      115.967918      490.766039
        15        16        46     1      110.495773      465.529246
        16        12        41     1      111.068642      475.836438
        16        15        44     1      112.216675      453.127085
        16        15        45     1      112.216675      453.127085
        16        17        47     1      112.134521      456.886371
        16        17        48     1      112.134521      456.886371
        17        16        46     1      110.411415      471.837167
        18        20        21     1      120.170364      658.951909
        18        20        26     1      123.059631      563.306688
        19        18        20     1      119.672501      497.066650
        20        21        22     1      118.381653      447.457304
        20        21        23     1      123.063400      625.661925
        20        26        25     1      121.246506      661.938219
        20        26        27     1      119.852539      464.186441
        21        20        26     1      116.733643      734.512130
        21        23        24     1      118.224327      691.816126
        21        23        49     1      119.628578      419.195289
        22        21        23     1      118.309547      519.263729
        23        24        25     1      120.316055      729.245229
        23        24        50     1      119.748978      430.367360
        24        23        49     1      122.164230      418.572822
        24        25        26     1      119.566689      681.094307
        24        25        51     1      121.180099      420.410728
        25        24        50     1      119.884033      429.820291
        25        26        27     1      118.315903      543.668715
        26        25        51     1      119.153160      420.650809
        26        27        28     1      121.993149      521.996040
        26        27        31     1      121.993149      521.996040
        27        28        29     1      103.760353      480.370712
        27        31        30     1      103.760353      480.370712
        28        27        31     1      115.047997      210.842914
        28        29        30     1      108.709312      295.765661
        28        29        52     1      120.742882      391.074016
        29        30        31     1      108.709312      295.765661
        29        30        53     1      130.286758      343.611766
        30        29        52     1      130.286758      343.611766
        31        30        53     1      120.742882      391.074016
        32         1        33     1      108.454025      357.037582
        32         1        34     1      108.454025      357.037582
        33         1        34     1      108.454025      357.037582
        35         7        36     1      108.454025      357.037582
        35         7        37     1      108.454025      357.037582
        36         7        37     1      108.454041      357.037646
        39        11        40     1      107.788414      347.454335
        42        13        43     1      107.816490      348.007916
        44        15        45     1      107.816490      348.007948
        47        17        48     1      107.788414      347.454335

[ dihedrals ] ; propers for gromacs 4.5 or higher, use funct 9
;       ai        aj        ak        al funct           phase               k        pn
         1         2         3         4     9        0.000000        0.035855         1
         1         2         3         4     9      180.000000       19.356447         2
         1         2         3         4     9        0.000000        0.211328         3
         1         2         3         4     9      180.000000       -0.548983         4
         1         2         8         6     9        0.000000        0.177179         1
         1         2         8         6     9      180.000000       11.680600         2
         1         2         8         6     9        0.000000       -0.019188         3
         1         2         8         6     9      180.000000       -0.143544         4
         1         2         8         9     9        0.000000        0.021385         1
         1         2         8         9     9      180.000000       17.338063         2
         1         2         8         9     9        0.000000        0.096002         3
         1         2         8         9     9      180.000000       -0.457974         4
         2         3         4         5     9        0.000000        0.175153         1
         2         3         4         5     9      180.000000        9.000469         2
         2         3         4         5     9        0.000000        0.760786         3
         2         3         4         5     9      180.000000       -0.475740         4
         2         3         4        10     9        0.000000        1.153007         1
         2         3         4        10     9      180.000000       16.969046         2
         2         3         4        10     9        0.000000        0.603808         3
         2         3         4        10     9      180.000000       -1.174454         4
         2         8         6         5     9        0.000000        0.156298         1
         2         8         6         5     9      180.000000       13.296356         2
         2         8         6         5     9        0.000000       -0.226554         3
         2         8         6         5     9      180.000000       -0.292610         4
         2         8         6         7     9        0.000000        0.177179         1
         2         8         6         7     9      180.000000       11.680600         2
         2         8         6         7     9        0.000000       -0.019188         3
         2         8         6         7     9      180.000000       -0.143544         4
         2         8         9        38     9        0.000000       -0.402717         1
         2         8         9        38     9      180.000000        2.888912         2
         2         8         9        38     9        0.000000        0.376276         3
         2         8         9        38     9      180.000000        0.000366         4
         3         2         1        32     9        0.000000        0.032594         1
         3         2         1        32     9      180.000000       -0.040493         2
         3         2         1        32     9        0.000000       -0.046409         3
         3         2         1        32     9      180.000000       -0.031019         4
         3         2         1        33     9        0.000000        0.032594         1
         3         2         1        33     9      180.000000       -0.040493         2
         3         2         1        33     9        0.000000       -0.046409         3
         3         2         1        33     9      180.000000       -0.031019         4
         3         2         1        34     9        0.000000        0.032594         1
         3         2         1        34     9      180.000000       -0.040493         2
         3         2         1        34     9        0.000000       -0.046409         3
         3         2         1        34     9      180.000000       -0.031019         4
         3         2         8         6     9        0.000000        0.156298         1
         3         2         8         6     9      180.000000       13.296356         2
         3         2         8         6     9        0.000000       -0.226554         3
         3         2         8         6     9      180.000000       -0.292610         4
         3         2         8         9     9        0.000000        0.246575         1
         3         2         8         9     9      180.000000       17.791321         2
         3         2         8         9     9        0.000000        0.371248         3
         3         2         8         9     9      180.000000       -0.750133         4
         3         4         5         6     9        0.000000        0.175153         1
         3         4         5         6     9      180.000000        9.000469         2
         3         4         5         6     9        0.000000        0.760786         3
         3         4         5         6     9      180.000000       -0.475740         4
         3         4        10        11     9        0.000000        1.087232         1
         3         4        10        11     9      180.000000        8.577928         2
         3         4        10        11     9        0.000000       -0.007023         3
         3         4        10        11     9      180.000000       -0.921443         4
         3         4        10        17     9        0.000000        1.087231         1
         3         4        10        17     9      180.000000        8.577929         2
         3         4        10        17     9        0.000000       -0.007023         3
         3         4        10        17     9      180.000000       -0.921443         4
         4         3         2         8     9        0.000000       -0.519285         1
         4         3         2         8     9      180.000000       20.896175         2
         4         3         2         8     9        0.000000       -1.246522         3
         4         3         2         8     9      180.000000       -0.515234         4
         4         5         6         7     9        0.000000        0.035855         1
         4         5         6         7     9      180.000000       19.356447         2
         4         5         6         7     9        0.000000        0.211328         3
         4         5         6         7     9      180.000000       -0.548983         4
         4         5         6         8     9        0.000000       -0.519285         1
         4         5         6         8     9      180.000000       20.896175         2
         4         5         6         8     9        0.000000       -1.246522         3
         4         5         6         8     9      180.000000       -0.515234         4
         4        10        11        12     9        0.000000       -3.607558         1
         4        10        11        12     9      180.000000       -0.475339         2
         4        10        11        12     9        0.000000        0.403080         3
         4        10        11        12     9      180.000000        0.196271         4
         4        10        11        39     9        0.000000       -0.006910         1
         4        10        11        39     9      180.000000       -0.091863         2
         4        10        11        39     9        0.000000        0.567736         3
         4        10        11        39     9      180.000000       -0.015167         4
         4        10        11        40     9        0.000000       -0.006910         1
         4        10        11        40     9      180.000000       -0.091863         2
         4        10        11        40     9        0.000000        0.567736         3
         4        10        11        40     9      180.000000       -0.015167         4
         4        10        17        16     9        0.000000       -3.607558         1
         4        10        17        16     9      180.000000       -0.475339         2
         4        10        17        16     9        0.000000        0.403080         3
         4        10        17        16     9      180.000000        0.196272         4
         4        10        17        47     9        0.000000       -0.006910         1
         4        10        17        47     9      180.000000       -0.091864         2
         4        10        17        47     9        0.000000        0.567736         3
         4        10        17        47     9      180.000000       -0.015167         4
         4        10        17        48     9        0.000000       -0.006910         1
         4        10        17        48     9      180.000000       -0.091864         2
         4        10        17        48     9        0.000000        0.567736         3
         4        10        17        48     9      180.000000       -0.015167         4
         5         4        10        11     9        0.000000        1.087232         1
         5         4        10        11     9      180.000000        8.577928         2
         5         4        10        11     9        0.000000       -0.007023         3
         5         4        10        11     9      180.000000       -0.921443         4
         5         4        10        17     9        0.000000        1.087231         1
         5         4        10        17     9      180.000000        8.577929         2
         5         4        10        17     9        0.000000       -0.007023         3
         5         4        10        17     9      180.000000       -0.921443         4
         5         6         7        35     9        0.000000        0.032594         1
         5         6         7        35     9      180.000000       -0.040493         2
         5         6         7        35     9        0.000000       -0.046409         3
         5         6         7        35     9      180.000000       -0.031019         4
         5         6         7        36     9        0.000000        0.032594         1
         5         6         7        36     9      180.000000       -0.040493         2
         5         6         7        36     9        0.000000       -0.046409         3
         5         6         7        36     9      180.000000       -0.031019         4
         5         6         7        37     9        0.000000        0.032594         1
         5         6         7        37     9      180.000000       -0.040493         2
         5         6         7        37     9        0.000000       -0.046409         3
         5         6         7        37     9      180.000000       -0.031019         4
         5         6         8         9     9        0.000000        0.246575         1
         5         6         8         9     9      180.000000       17.791321         2
         5         6         8         9     9        0.000000        0.371248         3
         5         6         8         9     9      180.000000       -0.750133         4
         6         5         4        10     9        0.000000        1.153007         1
         6         5         4        10     9      180.000000       16.969046         2
         6         5         4        10     9        0.000000        0.603808         3
         6         5         4        10     9      180.000000       -1.174454         4
         6         8         9        38     9        0.000000       -0.402717         1
         6         8         9        38     9      180.000000        2.888912         2
         6         8         9        38     9        0.000000        0.376276         3
         6         8         9        38     9      180.000000        0.000366         4
         7         6         8         9     9        0.000000        0.021385         1
         7         6         8         9     9      180.000000       17.338063         2
         7         6         8         9     9        0.000000        0.096002         3
         7         6         8         9     9      180.000000       -0.457974         4
         8         2         1        32     9        0.000000        0.003528         1
         8         2         1        32     9      180.000000       -0.008195         2
         8         2         1        32     9        0.000000       -0.151159         3
         8         2         1        32     9      180.000000       -0.020894         4
         8         2         1        33     9        0.000000        0.003528         1
         8         2         1        33     9      180.000000       -0.008195         2
         8         2         1        33     9        0.000000       -0.151159         3
         8         2         1        33     9      180.000000       -0.020894         4
         8         2         1        34     9        0.000000        0.003528         1
         8         2         1        34     9      180.000000       -0.008195         2
         8         2         1        34     9        0.000000       -0.151159         3
         8         2         1        34     9      180.000000       -0.020894         4
         8         6         7        35     9        0.000000        0.003528         1
         8         6         7        35     9      180.000000       -0.008195         2
         8         6         7        35     9        0.000000       -0.151159         3
         8         6         7        35     9      180.000000       -0.020894         4
         8         6         7        36     9        0.000000        0.003528         1
         8         6         7        36     9      180.000000       -0.008195         2
         8         6         7        36     9        0.000000       -0.151159         3
         8         6         7        36     9      180.000000       -0.020894         4
         8         6         7        37     9        0.000000        0.003528         1
         8         6         7        37     9      180.000000       -0.008195         2
         8         6         7        37     9        0.000000       -0.151159         3
         8         6         7        37     9      180.000000       -0.020894         4
        10        11        12        13     9        0.000000        0.141092         1
        10        11        12        13     9      180.000000       -1.554592         2
        10        11        12        13     9        0.000000        0.129275         3
        10        11        12        13     9      180.000000        0.187854         4
        10        11        12        16     9        0.000000       -3.183877         1
        10        11        12        16     9      180.000000       11.770762         2
        10        11        12        16     9        0.000000       -0.669595         3
        10        11        12        16     9      180.000000       -2.371234         4
        10        11        12        41     9        0.000000        3.046271         1
        10        11        12        41     9      180.000000       -0.789547         2
        10        11        12        41     9        0.000000       -0.188589         3
        10        11        12        41     9      180.000000        0.438256         4
        10        17        16        12     9        0.000000       -3.183876         1
        10        17        16        12     9      180.000000       11.770770         2
        10        17        16        12     9        0.000000       -0.669596         3
        10        17        16        12     9      180.000000       -2.371237         4
        10        17        16        15     9        0.000000        0.141092         1
        10        17        16        15     9      180.000000       -1.554592         2
        10        17        16        15     9        0.000000        0.129275         3
        10        17        16        15     9      180.000000        0.187853         4
        10        17        16        46     9        0.000000        3.046269         1
        10        17        16        46     9      180.000000       -0.789547         2
        10        17        16        46     9        0.000000       -0.188589         3
        10        17        16        46     9      180.000000        0.438255         4
        11        10        17        16     9        0.000000       -0.515520         1
        11        10        17        16     9      180.000000        0.695785         2
        11        10        17        16     9        0.000000        0.374724         3
        11        10        17        16     9      180.000000       -0.306280         4
        11        10        17        47     9        0.000000       -0.040238         1
        11        10        17        47     9      180.000000       -0.063463         2
        11        10        17        47     9        0.000000        0.343610         3
        11        10        17        47     9      180.000000        0.107465         4
        11        10        17        48     9        0.000000       -0.040238         1
        11        10        17        48     9      180.000000       -0.063463         2
        11        10        17        48     9        0.000000        0.343610         3
        11        10        17        48     9      180.000000        0.107465         4
        11        12        13        14     9        0.000000       -0.177639         1
        11        12        13        14     9      180.000000       -1.441188         2
        11        12        13        14     9        0.000000        0.139510         3
        11        12        13        14     9      180.000000        0.103643         4
        11        12        13        42     9        0.000000       -0.090271         1
        11        12        13        42     9      180.000000        0.043314         2
        11        12        13        42     9        0.000000        0.181102         3
        11        12        13        42     9      180.000000        0.056845         4
        11        12        13        43     9        0.000000       -0.090271         1
        11        12        13        43     9      180.000000        0.043314         2
        11        12        13        43     9        0.000000        0.181102         3
        11        12        13        43     9      180.000000        0.056845         4
        11        12        16        15     9        0.000000       -1.429697         1
        11        12        16        15     9      180.000000       -0.955407         2
        11        12        16        15     9        0.000000        0.546147         3
        11        12        16        15     9      180.000000       -0.724521         4
        11        12        16        17     9        0.000000       -1.723216         1
        11        12        16        17     9      180.000000       -1.104300         2
        11        12        16        17     9        0.000000        0.465854         3
        11        12        16        17     9      180.000000       -0.749204         4
        11        12        16        46     9        0.000000        0.196400         1
        11        12        16        46     9      180.000000        0.124290         2
        11        12        16        46     9        0.000000        0.308843         3
        11        12        16        46     9      180.000000        0.285300         4
        12        11        10        17     9        0.000000       -0.515520         1
        12        11        10        17     9      180.000000        0.695787         2
        12        11        10        17     9        0.000000        0.374724         3
        12        11        10        17     9      180.000000       -0.306281         4
        12        13        14        15     9        0.000000       -0.098874         1
        12        13        14        15     9      180.000000       -0.275992         2
        12        13        14        15     9        0.000000        0.219330         3
        12        13        14        15     9      180.000000       -0.018668         4
        12        13        14        18     9        0.000000       -0.924898         1
        12        13        14        18     9      180.000000       -0.742800         2
        12        13        14        18     9        0.000000        0.102247         3
        12        13        14        18     9      180.000000        0.138445         4
        12        16        15        14     9        0.000000       -2.932575         1
        12        16        15        14     9      180.000000        7.822341         2
        12        16        15        14     9        0.000000       -0.704965         3
        12        16        15        14     9      180.000000       -1.187778         4
        12        16        15        44     9        0.000000        0.022483         1
        12        16        15        44     9      180.000000       -0.185436         2
        12        16        15        44     9        0.000000       -0.302149         3
        12        16        15        44     9      180.000000        0.229395         4
        12        16        15        45     9        0.000000        0.022483         1
        12        16        15        45     9      180.000000       -0.185436         2
        12        16        15        45     9        0.000000       -0.302149         3
        12        16        15        45     9      180.000000        0.229395         4
        12        16        17        47     9        0.000000        0.005453         1
        12        16        17        47     9      180.000000       -0.187956         2
        12        16        17        47     9        0.000000       -0.253493         3
        12        16        17        47     9      180.000000        0.289446         4
        12        16        17        48     9        0.000000        0.005453         1
        12        16        17        48     9      180.000000       -0.187956         2
        12        16        17        48     9        0.000000       -0.253493         3
        12        16        17        48     9      180.000000        0.289446         4
        13        12        11        39     9        0.000000       -0.150868         1
        13        12        11        39     9      180.000000        0.072012         2
        13        12        11        39     9        0.000000        0.214875         3
        13        12        11        39     9      180.000000        0.045180         4
        13        12        11        40     9        0.000000       -0.150868         1
        13        12        11        40     9      180.000000        0.072012         2
        13        12        11        40     9        0.000000        0.214875         3
        13        12        11        40     9      180.000000        0.045180         4
        13        12        16        15     9        0.000000       -0.903494         1
        13        12        16        15     9      180.000000       -0.930898         2
        13        12        16        15     9        0.000000        0.568820         3
        13        12        16        15     9      180.000000       -0.686260         4
        13        12        16        17     9        0.000000       -1.429699         1
        13        12        16        17     9      180.000000       -0.955405         2
        13        12        16        17     9        0.000000        0.546147         3
        13        12        16        17     9      180.000000       -0.724522         4
        13        12        16        46     9        0.000000       -0.022164         1
        13        12        16        46     9      180.000000        0.142975         2
        13        12        16        46     9        0.000000        0.388150         3
        13        12        16        46     9      180.000000        0.197015         4
        13        14        15        16     9        0.000000       -0.098875         1
        13        14        15        16     9      180.000000       -0.275991         2
        13        14        15        16     9        0.000000        0.219330         3
        13        14        15        16     9      180.000000       -0.018668         4
        13        14        15        44     9        0.000000       -0.018324         1
        13        14        15        44     9      180.000000       -0.010219         2
        13        14        15        44     9        0.000000        0.119733         3
        13        14        15        44     9      180.000000        0.059477         4
        13        14        15        45     9        0.000000       -0.018324         1
        13        14        15        45     9      180.000000       -0.010219         2
        13        14        15        45     9        0.000000        0.119733         3
        13        14        15        45     9      180.000000        0.059477         4
        13        14        18        19     9        0.000000       -0.772407         1
        13        14        18        19     9      180.000000       13.817704         2
        13        14        18        19     9        0.000000       -1.124658         3
        13        14        18        19     9      180.000000       -0.523087         4
        13        14        18        20     9        0.000000        3.807755         1
        13        14        18        20     9      180.000000       11.423134         2
        13        14        18        20     9        0.000000        0.950522         3
        13        14        18        20     9      180.000000       -0.728722         4
        14        13        12        16     9        0.000000       -2.932575         1
        14        13        12        16     9      180.000000        7.822339         2
        14        13        12        16     9        0.000000       -0.704966         3
        14        13        12        16     9      180.000000       -1.187778         4
        14        13        12        41     9        0.000000        0.949044         1
        14        13        12        41     9      180.000000       -0.377382         2
        14        13        12        41     9        0.000000       -0.056736         3
        14        13        12        41     9      180.000000        0.252566         4
        14        15        16        17     9        0.000000       -0.177640         1
        14        15        16        17     9      180.000000       -1.441189         2
        14        15        16        17     9        0.000000        0.139510         3
        14        15        16        17     9      180.000000        0.103643         4
        14        15        16        46     9        0.000000        0.949044         1
        14        15        16        46     9      180.000000       -0.377382         2
        14        15        16        46     9        0.000000       -0.056736         3
        14        15        16        46     9      180.000000        0.252566         4
        14        18        20        21     9        0.000000       -0.368550         1
        14        18        20        21     9      180.000000        3.799954         2
        14        18        20        21     9        0.000000       -0.343838         3
        14        18        20        21     9      180.000000        0.220400         4
        14        18        20        26     9        0.000000        1.305198         1
        14        18        20        26     9      180.000000        4.080130         2
        14        18        20        26     9        0.000000       -0.555958         3
        14        18        20        26     9      180.000000        0.231954         4
        15        14        13        42     9        0.000000       -0.018324         1
        15        14        13        42     9      180.000000       -0.010219         2
        15        14        13        42     9        0.000000        0.119733         3
        15        14        13        42     9      180.000000        0.059477         4
        15        14        13        43     9        0.000000       -0.018324         1
        15        14        13        43     9      180.000000       -0.010219         2
        15        14        13        43     9        0.000000        0.119733         3
        15        14        13        43     9      180.000000        0.059477         4
        15        14        18        19     9        0.000000       -0.772407         1
        15        14        18        19     9      180.000000       13.817704         2
        15        14        18        19     9        0.000000       -1.124658         3
        15        14        18        19     9      180.000000       -0.523087         4
        15        14        18        20     9        0.000000        3.807756         1
        15        14        18        20     9      180.000000       11.423134         2
        15        14        18        20     9        0.000000        0.950522         3
        15        14        18        20     9      180.000000       -0.728722         4
        15        16        12        41     9        0.000000       -0.022163         1
        15        16        12        41     9      180.000000        0.142975         2
        15        16        12        41     9        0.000000        0.388150         3
        15        16        12        41     9      180.000000        0.197014         4
        15        16        17        47     9        0.000000       -0.150868         1
        15        16        17        47     9      180.000000        0.072012         2
        15        16        17        47     9        0.000000        0.214875         3
        15        16        17        47     9      180.000000        0.045180         4
        15        16        17        48     9        0.000000       -0.150868         1
        15        16        17        48     9      180.000000        0.072012         2
        15        16        17        48     9        0.000000        0.214875         3
        15        16        17        48     9      180.000000        0.045180         4
        16        12        11        39     9        0.000000        0.005454         1
        16        12        11        39     9      180.000000       -0.187956         2
        16        12        11        39     9        0.000000       -0.253494         3
        16        12        11        39     9      180.000000        0.289446         4
        16        12        11        40     9        0.000000        0.005454         1
        16        12        11        40     9      180.000000       -0.187956         2
        16        12        11        40     9        0.000000       -0.253494         3
        16        12        11        40     9      180.000000        0.289446         4
        16        12        13        42     9        0.000000        0.022483         1
        16        12        13        42     9      180.000000       -0.185435         2
        16        12        13        42     9        0.000000       -0.302149         3
        16        12        13        42     9      180.000000        0.229395         4
        16        12        13        43     9        0.000000        0.022483         1
        16        12        13        43     9      180.000000       -0.185435         2
        16        12        13        43     9        0.000000       -0.302149         3
        16        12        13        43     9      180.000000        0.229395         4
        16        15        14        18     9        0.000000       -0.924897         1
        16        15        14        18     9      180.000000       -0.742800         2
        16        15        14        18     9        0.000000        0.102247         3
        16        15        14        18     9      180.000000        0.138445         4
        17        10        11        39     9        0.000000       -0.040239         1
        17        10        11        39     9      180.000000       -0.063463         2
        17        10        11        39     9        0.000000        0.343610         3
        17        10        11        39     9      180.000000        0.107466         4
        17        10        11        40     9        0.000000       -0.040239         1
        17        10        11        40     9      180.000000       -0.063463         2
        17        10        11        40     9        0.000000        0.343610         3
        17        10        11        40     9      180.000000        0.107466         4
        17        16        12        41     9        0.000000        0.196400         1
        17        16        12        41     9      180.000000        0.124289         2
        17        16        12        41     9        0.000000        0.308842         3
        17        16        12        41     9      180.000000        0.285300         4
        17        16        15        44     9        0.000000       -0.090272         1
        17        16        15        44     9      180.000000        0.043313         2
        17        16        15        44     9        0.000000        0.181102         3
        17        16        15        44     9      180.000000        0.056845         4
        17        16        15        45     9        0.000000       -0.090272         1
        17        16        15        45     9      180.000000        0.043313         2
        17        16        15        45     9        0.000000        0.181102         3
        17        16        15        45     9      180.000000        0.056845         4
        18        14        13        42     9        0.000000        0.071282         1
        18        14        13        42     9      180.000000        0.076325         2
        18        14        13        42     9        0.000000        0.084134         3
        18        14        13        42     9      180.000000       -0.022120         4
        18        14        13        43     9        0.000000        0.071282         1
        18        14        13        43     9      180.000000        0.076325         2
        18        14        13        43     9        0.000000        0.084134         3
        18        14        13        43     9      180.000000       -0.022120         4
        18        14        15        44     9        0.000000        0.071281         1
        18        14        15        44     9      180.000000        0.076325         2
        18        14        15        44     9        0.000000        0.084133         3
        18        14        15        44     9      180.000000       -0.022120         4
        18        14        15        45     9        0.000000        0.071281         1
        18        14        15        45     9      180.000000        0.076325         2
        18        14        15        45     9        0.000000        0.084133         3
        18        14        15        45     9      180.000000       -0.022120         4
        18        20        21        22     9        0.000000        0.323763         1
        18        20        21        22     9      180.000000       17.639032         2
        18        20        21        22     9        0.000000        0.671040         3
        18        20        21        22     9      180.000000       -0.965029         4
        18        20        21        23     9        0.000000       -0.042703         1
        18        20        21        23     9      180.000000       12.507043         2
        18        20        21        23     9        0.000000        0.025809         3
        18        20        21        23     9      180.000000       -0.298713         4
        18        20        26        25     9        0.000000       -0.159485         1
        18        20        26        25     9      180.000000       11.728617         2
        18        20        26        25     9        0.000000       -0.307066         3
        18        20        26        25     9      180.000000       -0.206715         4
        18        20        26        27     9        0.000000       -0.058327         1
        18        20        26        27     9      180.000000       16.156169         2
        18        20        26        27     9        0.000000        0.341551         3
        18        20        26        27     9      180.000000       -0.901250         4
        19        18        20        21     9        0.000000       -1.941661         1
        19        18        20        21     9      180.000000        1.094345         2
        19        18        20        21     9        0.000000        0.427875         3
        19        18        20        21     9      180.000000       -0.033087         4
        19        18        20        26     9        0.000000       -5.069446         1
        19        18        20        26     9      180.000000        1.308677         2
        19        18        20        26     9        0.000000        0.034082         3
        19        18        20        26     9      180.000000       -0.013060         4
        20        21        23        24     9        0.000000       -0.230779         1
        20        21        23        24     9      180.000000       17.563438         2
        20        21        23        24     9        0.000000       -1.369842         3
        20        21        23        24     9      180.000000       -0.339553         4
        20        21        23        49     9        0.000000       -0.133924         1
        20        21        23        49     9      180.000000       13.166471         2
        20        21        23        49     9        0.000000       -0.700048         3
        20        21        23        49     9      180.000000        0.076451         4
        20        26        25        24     9        0.000000       -0.224893         1
        20        26        25        24     9      180.000000       17.844406         2
        20        26        25        24     9        0.000000       -1.762319         3
        20        26        25        24     9      180.000000       -0.293758         4
        20        26        25        51     9        0.000000        0.075314         1
        20        26        25        51     9      180.000000       13.789726         2
        20        26        25        51     9        0.000000       -0.664391         3
        20        26        25        51     9      180.000000        0.152451         4
        20        26        27        28     9        0.000000       -0.928394         1
        20        26        27        28     9      180.000000        3.806786         2
        20        26        27        28     9        0.000000        0.016176         3
        20        26        27        28     9      180.000000       -0.052316         4
        20        26        27        31     9        0.000000       -0.928394         1
        20        26        27        31     9      180.000000        3.806786         2
        20        26        27        31     9        0.000000        0.016176         3
        20        26        27        31     9      180.000000       -0.052316         4
        21        20        26        25     9        0.000000       -0.141325         1
        21        20        26        25     9      180.000000       16.126330         2
        21        20        26        25     9        0.000000       -1.429498         3
        21        20        26        25     9      180.000000       -0.178699         4
        21        20        26        27     9        0.000000        0.375258         1
        21        20        26        27     9      180.000000       18.126685         2
        21        20        26        27     9        0.000000        0.186440         3
        21        20        26        27     9      180.000000       -0.681470         4
        21        23        24        25     9        0.000000       -0.152374         1
        21        23        24        25     9      180.000000       18.716159         2
        21        23        24        25     9        0.000000       -1.818927         3
        21        23        24        25     9      180.000000       -0.453550         4
        21        23        24        50     9        0.000000        0.180905         1
        21        23        24        50     9      180.000000       14.902493         2
        21        23        24        50     9        0.000000       -0.731347         3
        21        23        24        50     9      180.000000        0.027321         4
        22        21        20        26     9        0.000000        0.673215         1
        22        21        20        26     9      180.000000       23.238171         2
        22        21        20        26     9        0.000000        0.955629         3
        22        21        20        26     9      180.000000       -1.163490         4
        22        21        23        24     9        0.000000        0.552801         1
        22        21        23        24     9      180.000000       23.768154         2
        22        21        23        24     9        0.000000        0.607966         3
        22        21        23        24     9      180.000000       -0.689434         4
        22        21        23        49     9        0.000000        0.278729         1
        22        21        23        49     9      180.000000       16.994412         2
        22        21        23        49     9        0.000000        0.338076         3
        22        21        23        49     9      180.000000        0.093222         4
        23        21        20        26     9        0.000000        0.135116         1
        23        21        20        26     9      180.000000       15.814503         2
        23        21        20        26     9        0.000000       -0.812439         3
        23        21        20        26     9      180.000000       -0.422734         4
        23        24        25        26     9        0.000000       -0.192714         1
        23        24        25        26     9      180.000000       18.408477         2
        23        24        25        26     9        0.000000       -1.779917         3
        23        24        25        26     9      180.000000       -0.374514         4
        23        24        25        51     9        0.000000        0.142296         1
        23        24        25        51     9      180.000000       15.187280         2
        23        24        25        51     9        0.000000       -0.758856         3
        23        24        25        51     9      180.000000        0.063922         4
        24        25        26        27     9        0.000000        0.358636         1
        24        25        26        27     9      180.000000       18.702790         2
        24        25        26        27     9        0.000000        0.139137         3
        24        25        26        27     9      180.000000       -0.377297         4
        25        24        23        49     9        0.000000        0.246067         1
        25        24        23        49     9      180.000000       14.028888         2
        25        24        23        49     9        0.000000       -0.660950         3
        25        24        23        49     9      180.000000        0.116191         4
        25        26        27        28     9        0.000000        0.756737         1
        25        26        27        28     9      180.000000        3.189610         2
        25        26        27        28     9        0.000000       -0.349349         3
        25        26        27        28     9      180.000000        0.086097         4
        25        26        27        31     9        0.000000        0.756737         1
        25        26        27        31     9      180.000000        3.189610         2
        25        26        27        31     9        0.000000       -0.349349         3
        25        26        27        31     9      180.000000        0.086097         4
        26        25        24        50     9        0.000000        0.014670         1
        26        25        24        50     9      180.000000       14.765854         2
        26        25        24        50     9        0.000000       -0.786746         3
        26        25        24        50     9      180.000000        0.015738         4
        26        27        28        29     9        0.000000        0.775624         1
        26        27        28        29     9      180.000000       14.213466         2
        26        27        28        29     9        0.000000        0.460130         3
        26        27        28        29     9      180.000000       -0.178471         4
        26        27        31        30     9        0.000000        0.775624         1
        26        27        31        30     9      180.000000       14.213466         2
        26        27        31        30     9        0.000000        0.460130         3
        26        27        31        30     9      180.000000       -0.178471         4
        27        26        25        51     9        0.000000        0.319830         1
        27        26        25        51     9      180.000000       14.602055         2
        27        26        25        51     9        0.000000        0.000376         3
        27        26        25        51     9      180.000000        0.144391         4
        27        28        29        30     9        0.000000       -0.095083         1
        27        28        29        30     9      180.000000       41.109451         2
        27        28        29        30     9        0.000000       -5.890197         3
        27        28        29        30     9      180.000000       -0.007891         4
        27        28        29        52     9        0.000000        1.230246         1
        27        28        29        52     9      180.000000       26.477525         2
        27        28        29        52     9        0.000000       -0.131285         3
        27        28        29        52     9      180.000000       -0.123740         4
        27        31        30        29     9        0.000000       -0.095083         1
        27        31        30        29     9      180.000000       41.109451         2
        27        31        30        29     9        0.000000       -5.890197         3
        27        31        30        29     9      180.000000       -0.007891         4
        27        31        30        53     9        0.000000        1.230246         1
        27        31        30        53     9      180.000000       26.477525         2
        27        31        30        53     9        0.000000       -0.131285         3
        27        31        30        53     9      180.000000       -0.123740         4
        28        27        31        30     9        0.000000       -0.214504         1
        28        27        31        30     9      180.000000       33.461254         2
        28        27        31        30     9        0.000000       -5.627568         3
        28        27        31        30     9      180.000000        0.135267         4
        28        29        30        31     9        0.000000       -0.646396         1
        28        29        30        31     9      180.000000       33.879564         2
        28        29        30        31     9        0.000000       -7.997882         3
        28        29        30        31     9      180.000000       -0.068922         4
        28        29        30        53     9        0.000000        0.399471         1
        28        29        30        53     9      180.000000       15.777787         2
        28        29        30        53     9        0.000000       -0.622625         3
        28        29        30        53     9      180.000000       -0.473181         4
        29        28        27        31     9        0.000000       -0.214504         1
        29        28        27        31     9      180.000000       33.461254         2
        29        28        27        31     9        0.000000       -5.627568         3
        29        28        27        31     9      180.000000        0.135267         4
        31        30        29        52     9        0.000000        0.399471         1
        31        30        29        52     9      180.000000       15.777787         2
        31        30        29        52     9        0.000000       -0.622625         3
        31        30        29        52     9      180.000000       -0.473181         4
        39        11        12        41     9        0.000000       -0.140740         1
        39        11        12        41     9      180.000000       -0.009946         2
        39        11        12        41     9        0.000000        0.295617         3
        39        11        12        41     9      180.000000       -0.018107         4
        40        11        12        41     9        0.000000       -0.140740         1
        40        11        12        41     9      180.000000       -0.009946         2
        40        11        12        41     9        0.000000        0.295617         3
        40        11        12        41     9      180.000000       -0.018107         4
        41        12        13        42     9        0.000000       -0.086595         1
        41        12        13        42     9      180.000000        0.026399         2
        41        12        13        42     9        0.000000        0.269152         3
        41        12        13        42     9      180.000000       -0.020189         4
        41        12        13        43     9        0.000000       -0.086595         1
        41        12        13        43     9      180.000000        0.026399         2
        41        12        13        43     9        0.000000        0.269152         3
        41        12        13        43     9      180.000000       -0.020189         4
        41        12        16        46     9        0.000000        0.223574         1
        41        12        16        46     9      180.000000       -0.077956         2
        41        12        16        46     9        0.000000        0.353694         3
        41        12        16        46     9      180.000000       -0.057173         4
        44        15        16        46     9        0.000000       -0.086595         1
        44        15        16        46     9      180.000000        0.026398         2
        44        15        16        46     9        0.000000        0.269152         3
        44        15        16        46     9      180.000000       -0.020189         4
        45        15        16        46     9        0.000000       -0.086595         1
        45        15        16        46     9      180.000000        0.026398         2
        45        15        16        46     9        0.000000        0.269152         3
        45        15        16        46     9      180.000000       -0.020189         4
        46        16        17        47     9        0.000000       -0.140741         1
        46        16        17        47     9      180.000000       -0.009947         2
        46        16        17        47     9        0.000000        0.295617         3
        46        16        17        47     9      180.000000       -0.018107         4
        46        16        17        48     9        0.000000       -0.140741         1
        46        16        17        48     9      180.000000       -0.009947         2
        46        16        17        48     9        0.000000        0.295617         3
        46        16        17        48     9      180.000000       -0.018107         4
        49        23        24        50     9        0.000000       -0.176698         1
        49        23        24        50     9      180.000000       10.882745         2
        49        23        24        50     9        0.000000       -0.527182         3
        49        23        24        50     9      180.000000        0.131688         4
        50        24        25        51     9        0.000000       -0.152786         1
        50        24        25        51     9      180.000000       12.297011         2
        50        24        25        51     9        0.000000       -0.885313         3
        50        24        25        51     9      180.000000        0.289530         4
        52        29        30        53     9        0.000000       -0.304766         1
        52        29        30        53     9      180.000000        8.321253         2
        52        29        30        53     9        0.000000       -0.141498         3
        52        29        30        53     9      180.000000        0.273252         4

[ dihedrals ] ; impropers
;       ai        aj        ak        al funct           phase               k        pn
         2         1         3         8     4      180.000000       11.458743         2
         2         3         8         1     4      180.000000       11.458743         2
         2         8         1         3     4      180.000000       11.458743         2
         4         3         5        10     4      180.000000       27.893333         2
         4         5        10         3     4      180.000000       27.893333         2
         4        10         3         5     4      180.000000       27.893333         2
         6         5         7         8     4      180.000000       11.458743         2
         6         7         8         5     4      180.000000       11.458743         2
         6         8         5         7     4      180.000000       11.458743         2
        23        21        24        49     4      180.000000        0.307014         2
        23        24        49        21     4      180.000000        0.307014         2
        23        49        21        24     4      180.000000        0.307014         2
        24        23        25        50     4      180.000000        2.050246         2
        24        25        50        23     4      180.000000        2.050246         2
        24        50        23        25     4      180.000000        2.050246         2
        25        24        26        51     4      180.000000        0.161180         2
        25        26        51        24     4      180.000000        0.161180         2
        25        51        24        26     4      180.000000        0.161180         2

[ pairs ]
;       ai        aj funct
         1         4     1
         1         6     1
         1         9     1
         2         5     1
         2         7     1
         2        10     1
         2        38     1
         3         6     1
         3         9     1
         3        11     1
         3        17     1
         3        32     1
         3        33     1
         3        34     1
         4         7     1
         4         8     1
         4        12     1
         4        16     1
         4        39     1
         4        40     1
         4        47     1
         4        48     1
         5         9     1
         5        11     1
         5        17     1
         5        35     1
         5        36     1
         5        37     1
         6        10     1
         6        38     1
         7         9     1
         8        32     1
         8        33     1
         8        34     1
         8        35     1
         8        36     1
         8        37     1
        10        13     1
        10        15     1
        10        41     1
        10        46     1
        11        14     1
        11        15     1
        11        42     1
        11        43     1
        11        46     1
        11        47     1
        11        48     1
        12        18     1
        12        44     1
        12        45     1
        12        47     1
        12        48     1
        13        17     1
        13        19     1
        13        20     1
        13        39     1
        13        40     1
        13        44     1
        13        45     1
        13        46     1
        14        17     1
        14        21     1
        14        26     1
        14        41     1
        14        46     1
        15        19     1
        15        20     1
        15        41     1
        15        42     1
        15        43     1
        15        47     1
        15        48     1
        16        18     1
        16        39     1
        16        40     1
        16        42     1
        16        43     1
        17        39     1
        17        40     1
        17        41     1
        17        44     1
        17        45     1
        18        22     1
        18        23     1
        18        25     1
        18        27     1
        18        42     1
        18        43     1
        18        44     1
        18        45     1
        19        21     1
        19        26     1
        20        24     1
        20        28     1
        20        31     1
        20        49     1
        20        51     1
        21        25     1
        21        27     1
        21        50     1
        22        24     1
        22        26     1
        22        49     1
        23        26     1
        23        51     1
        24        27     1
        25        28     1
        25        31     1
        25        49     1
        26        29     1
        26        30     1
        26        50     1
        27        51     1
        27        52     1
        27        53     1
        28        53     1
        31        52     1
        39        41     1
        40        41     1
        41        42     1
        41        43     1
        41        46     1
        44        46     1
        45        46     1
        46        47     1
        46        48     1
        49        50     1
        50        51     1
        52        53     1
